 running  160 mpi-ranks, with    1 threads/rank, on   10 nodes
 distrk:  each k-point on   80 cores,    2 groups
 distr:  one band on    5 cores,   16 groups
 vasp.6.4.2 20Jul23 (build Oct 12 2023 10:31:02) complex                         
 POSCAR found type information on POSCAR GeSe
 POSCAR found :  2 types and       8 ions
 Reading from existing POTCAR
 scaLAPACK will be used
 Reading from existing POTCAR
 LDA part: xc-table for Pade appr. of Perdew
 POSCAR, INCAR and KPOINTS ok, starting setup
 FFT: planning ... GRIDC
 FFT: planning ... GRID_SOFT
 FFT: planning ... GRID
 WAVECAR not read
 entering main loop
       N       E                     dE             d eps       ncg     rms          rms(c)
DAV:   1     0.129011024376E+03    0.12901E+03   -0.12972E+04  2560   0.778E+02
DAV:   2    -0.254236910611E+02   -0.15443E+03   -0.15005E+03  3760   0.141E+02
DAV:   3    -0.335922208960E+02   -0.81685E+01   -0.81538E+01  3216   0.371E+01
DAV:   4    -0.336436709671E+02   -0.51450E-01   -0.51444E-01  3344   0.337E+00
DAV:   5    -0.336439683730E+02   -0.29741E-03   -0.29740E-03  3216   0.250E-01    0.670E+00
DAV:   6    -0.333013218244E+02    0.34265E+00   -0.67548E-01  3168   0.279E+00    0.421E+00
DAV:   7    -0.332829902245E+02    0.18332E-01   -0.21021E-01  2832   0.167E+00    0.121E+00
DAV:   8    -0.332813199172E+02    0.16703E-02   -0.18397E-02  2976   0.528E-01    0.182E-01
DAV:   9    -0.332815960286E+02   -0.27611E-03   -0.27973E-03  3136   0.236E-01    0.661E-02
DAV:  10    -0.332816610967E+02   -0.65068E-04   -0.20839E-04  3328   0.607E-02    0.236E-02
DAV:  11    -0.332816852633E+02   -0.24167E-04   -0.35513E-05  2768   0.270E-02    0.122E-02
DAV:  12    -0.332816860696E+02   -0.80627E-06   -0.46179E-06  3488   0.975E-03
   1 F= -.33281686E+02 E0= -.33281686E+02  d E =-.100671E-12
