 vasp.6.4.2 20Jul23 (build Oct 12 2023 10:31:02) complex                         
 executed on              LinuxNV date 2025.05.29  02:20:15
 running  128 mpi-ranks, with    1 threads/rank, on    2 nodes
 distrk:  each k-point on   64 cores,    2 groups
 distr:  one band on NCORE=   4 cores,   16 groups


--------------------------------------------------------------------------------------------------------


 INCAR:
   ENCUT = 360.000000
   SIGMA = 0.050000
   EDIFF = 1.00e-06
   ALGO = Normal
   GGA = PE
   PREC = Normal
   SYSTEM = ./
   ICHARG = 2
   ISMEAR = 0
   ISPIN = 1
   ISTART = 0
   ISYM = 0
   KPAR = 2
   LMAXMIX = 4
   NELM = 100
   NPAR = 16
   LASPH = .TRUE.
   LCHARG = .FALSE.
   LWAVE = .FALSE.

 POTCAR:    PAW_PBE Ge 05Jan2001                  
 POTCAR:    PAW_PBE Se 06Sep2000                  
 POTCAR:    PAW_PBE Ge 05Jan2001                  
   VRHFIN =Ge: s2p2                                                                                 
   LEXCH  = PE                                                                                      
   EATOM  =   104.9960 eV,    7.7170 Ry                                                             
                                                                                                    
   TITEL  = PAW_PBE Ge 05Jan2001                                                                    
   LULTRA =        F    use ultrasoft PP ?                                                          
   IUNSCR =        1    unscreen: 0-lin 1-nonlin 2-no                                               
   RPACOR =    2.170    partial core radius                                                         
   POMASS =   72.610; ZVAL   =    4.000    mass and valenz                                          
   RCORE  =    2.300    outmost cutoff radius                                                       
   RWIGS  =    2.300; RWIGS  =    1.217    wigner-seitz radius (au A)                               
   ENMAX  =  173.807; ENMIN  =  130.355 eV                                                          
   ICORE  =        3    local potential                                                             
   LCOR   =        T    correct aug charges                                                         
   LPAW   =        T    paw PP                                                                      
   EAUG   =  385.843                                                                                
   DEXC   =    0.000                                                                                
   RMAX   =    2.342    core radius for proj-oper                                                   
   RAUG   =    1.300    factor for augmentation sphere                                              
   RDEP   =    2.318    radius for radial grids                                                     
   RDEPT  =    2.103    core radius for aug-charge                                                  
                                                                                                    
   Atomic configuration                                                                             
   10 entries                                                                                       
     n  l   j            E        occ.                                                              
     1  0  0.50    -10959.8463   2.0000                                                             
     2  0  0.50     -1371.6056   2.0000                                                             
     2  1  1.50     -1198.4791   6.0000                                                             
     3  0  0.50      -168.4733   2.0000                                                             
     3  1  1.50      -115.6019   6.0000                                                             
     3  2  2.50       -29.3106  10.0000                                                             
     4  0  0.50       -11.7309   2.0000                                                             
     4  1  0.50        -3.8952   2.0000                                                             
     4  2  1.50        -4.0817   0.0000                                                             
     4  3  2.50        -4.0817   0.0000                                                             
   Description                                                                                      
     l       E           TYP  RCUT    TYP  RCUT                                                     
     0    -11.7309493     23  2.300                                                                 
     0     -7.4578696     23  2.300                                                                 
     1     -3.8952261     23  2.300                                                                 
     1      6.1178114     23  2.300                                                                 
     2     -4.0817478     23  2.300                                                                 
     3     -1.3605826      7  2.300                                                                 
  local pseudopotential read in
  partial core-charges read in
  partial kinetic energy density read in
  atomic valenz-charges read in
  non local Contribution for L=            0  read in
    real space projection operators read in
  non local Contribution for L=            0  read in
    real space projection operators read in
  non local Contribution for L=            1  read in
    real space projection operators read in
  non local Contribution for L=            1  read in
    real space projection operators read in
  non local Contribution for L=            2  read in
    real space projection operators read in
    PAW grid and wavefunctions read in
 
   number of l-projection  operators is LMAX  =            5
   number of lm-projection operators is LMMAX =           13
 
 POTCAR:    PAW_PBE Se 06Sep2000                  
   VRHFIN =Se: s2p4                                                                                 
   LEXCH  = PE                                                                                      
   EATOM  =   257.1286 eV,   18.8984 Ry                                                             
                                                                                                    
   TITEL  = PAW_PBE Se 06Sep2000                                                                    
   LULTRA =        F    use ultrasoft PP ?                                                          
   IUNSCR =        1    unscreen: 0-lin 1-nonlin 2-no                                               
   RPACOR =    1.900    partial core radius                                                         
   POMASS =   78.960; ZVAL   =    6.000    mass and valenz                                          
   RCORE  =    2.100    outmost cutoff radius                                                       
   RWIGS  =    2.200; RWIGS  =    1.164    wigner-seitz radius (au A)                               
   ENMAX  =  211.555; ENMIN  =  158.666 eV                                                          
   ICORE  =        3    local potential                                                             
   LCOR   =        T    correct aug charges                                                         
   LPAW   =        T    paw PP                                                                      
   EAUG   =  446.842                                                                                
   DEXC   =    0.000                                                                                
   RMAX   =    2.147    core radius for proj-oper                                                   
   RAUG   =    1.300    factor for augmentation sphere                                              
   RDEP   =    2.177    radius for radial grids                                                     
   RDEPT  =    1.928    core radius for aug-charge                                                  
                                                                                                    
   Atomic configuration                                                                             
   10 entries                                                                                       
     n  l   j            E        occ.                                                              
     1  0  0.50    -12503.4787   2.0000                                                             
     2  0  0.50     -1606.9547   2.0000                                                             
     2  1  1.50     -1413.3140   6.0000                                                             
     3  0  0.50      -213.4885   2.0000                                                             
     3  1  1.50      -152.9538   6.0000                                                             
     3  2  2.50       -53.1221  10.0000                                                             
     4  0  0.50       -17.2865   2.0000                                                             
     4  1  0.50        -6.5110   4.0000                                                             
     4  2  2.50        -6.8029   0.0000                                                             
     4  3  2.50        -6.8029   0.0000                                                             
   Description                                                                                      
     l       E           TYP  RCUT    TYP  RCUT                                                     
     0    -17.2865377     23  2.100                                                                 
     0    -15.3094411     23  2.100                                                                 
     1     -6.5110275     23  2.100                                                                 
     1     -0.0695192     23  2.100                                                                 
     2     -6.8029130     23  2.100                                                                 
     3     -1.3605826      7  2.100                                                                 
  local pseudopotential read in
  partial core-charges read in
  partial kinetic energy density read in
  atomic valenz-charges read in
  non local Contribution for L=            0  read in
    real space projection operators read in
  non local Contribution for L=            0  read in
    real space projection operators read in
  non local Contribution for L=            1  read in
    real space projection operators read in
  non local Contribution for L=            1  read in
    real space projection operators read in
  non local Contribution for L=            2  read in
    real space projection operators read in
    PAW grid and wavefunctions read in
 
   number of l-projection  operators is LMAX  =            5
   number of lm-projection operators is LMMAX =           13
 
  PAW_PBE Ge 05Jan2001                  :
 energy of atom  1       EATOM= -104.9960
 kinetic energy error for atom=    0.0005 (will be added to EATOM!!)
  PAW_PBE Se 06Sep2000                  :
 energy of atom  2       EATOM= -257.1286
 kinetic energy error for atom=    0.0030 (will be added to EATOM!!)
 
 
 POSCAR: Ge Se
  positions in cartesian coordinates
  No initial velocities read in
 exchange correlation table for  LEXCH =        8
   RHO(1)=    0.500       N(1)  =     2000
   RHO(2)=  100.500       N(2)  =     4000
 


--------------------------------------------------------------------------------------------------------


 ion  position               nearest neighbor table
   1  0.110  0.250  0.136-   5 2.52   6 2.78   6 2.78
   2  0.610  0.750  0.364-   6 2.52   5 2.78   5 2.78
   3  0.890  0.750  0.864-   7 2.52   8 2.78   8 2.78
   4  0.390  0.250  0.636-   8 2.52   7 2.78   7 2.78
   5  0.941  0.250  0.350-   1 2.52   2 2.78   2 2.78
   6  0.441  0.750  0.150-   2 2.52   1 2.78   1 2.78
   7  0.059  0.750  0.650-   3 2.52   4 2.78   4 2.78
   8  0.559  0.250  0.850-   4 2.52   3 2.78   3 2.78
 

IMPORTANT INFORMATION: All symmetrisations will be switched off!
NOSYMM: (Re-)initialisation of all symmetry stuff for point group C_1.


----------------------------------------------------------------------------------------

                                     Primitive cell                                     

  volume of cell :     243.3461

  direct lattice vectors                    reciprocal lattice vectors
     4.800000000  0.000000000  0.000000000     0.208333333  0.000000000  0.000000000
     0.000000000  4.550000000  0.000000000     0.000000000  0.219780220  0.000000000
     0.000000000  0.000000000 11.142221000     0.000000000  0.000000000  0.089748713

  length of vectors
     4.800000000  4.550000000 11.142221000     0.208333333  0.219780220  0.089748713

  position of ions in fractional coordinates (direct lattice)
     0.109764003  0.250000000  0.135577268
     0.609764003  0.750000000  0.364422732
     0.890235997  0.750000000  0.864422732
     0.390235997  0.250000000  0.635577268
     0.941017706  0.250000000  0.350071272
     0.441017706  0.750000000  0.149928728
     0.058982294  0.750000000  0.649928728
     0.558982294  0.250000000  0.850071272

  ion indices of the primitive-cell ions
   primitive index   ion index
                 1           1
                 2           2
                 3           3
                 4           4
                 5           5
                 6           6
                 7           7
                 8           8

----------------------------------------------------------------------------------------

 
 
 KPOINTS: KPOINTS created by Atomic Simulation Env

Automatic generation of k-mesh.
 Grid dimensions read from file:
 generate k-points for:    6    6    2

 Generating k-lattice:

  Cartesian coordinates                     Fractional coordinates (reciprocal lattice)
     0.034722222  0.000000000  0.000000000     0.166666667  0.000000000  0.000000000
     0.000000000  0.036630037  0.000000000     0.000000000  0.166666667  0.000000000
     0.000000000  0.000000000  0.044874357     0.000000000  0.000000000  0.500000000

  Length of vectors
     0.034722222  0.036630037  0.044874357

  Shift w.r.t. Gamma in fractional coordinates (k-lattice)
     0.000000000  0.000000000  0.000000000

 
 Subroutine IBZKPT returns following result:
 ===========================================
 
 Found     40 irreducible k-points:
 
 Following reciprocal coordinates:
            Coordinates               Weight
  0.000000  0.000000  0.000000      1.000000
  0.166667  0.000000  0.000000      2.000000
  0.333333  0.000000  0.000000      2.000000
  0.500000  0.000000  0.000000      1.000000
  0.000000  0.166667  0.000000      2.000000
  0.166667  0.166667  0.000000      2.000000
 -0.166667  0.166667  0.000000      2.000000
  0.333333  0.166667  0.000000      2.000000
 -0.333333  0.166667  0.000000      2.000000
  0.500000  0.166667  0.000000      2.000000
  0.000000  0.333333  0.000000      2.000000
  0.166667  0.333333  0.000000      2.000000
 -0.166667  0.333333  0.000000      2.000000
  0.333333  0.333333  0.000000      2.000000
 -0.333333  0.333333  0.000000      2.000000
  0.500000  0.333333  0.000000      2.000000
  0.000000  0.500000  0.000000      1.000000
  0.166667  0.500000  0.000000      2.000000
  0.333333  0.500000  0.000000      2.000000
  0.500000  0.500000  0.000000      1.000000
  0.000000  0.000000  0.500000      1.000000
  0.166667  0.000000  0.500000      2.000000
  0.333333  0.000000  0.500000      2.000000
  0.500000  0.000000  0.500000      1.000000
  0.000000  0.166667  0.500000      2.000000
  0.166667  0.166667  0.500000      2.000000
 -0.166667  0.166667  0.500000      2.000000
  0.333333  0.166667  0.500000      2.000000
 -0.333333  0.166667  0.500000      2.000000
  0.500000  0.166667  0.500000      2.000000
  0.000000  0.333333  0.500000      2.000000
  0.166667  0.333333  0.500000      2.000000
 -0.166667  0.333333  0.500000      2.000000
  0.333333  0.333333  0.500000      2.000000
 -0.333333  0.333333  0.500000      2.000000
  0.500000  0.333333  0.500000      2.000000
  0.000000  0.500000  0.500000      1.000000
  0.166667  0.500000  0.500000      2.000000
  0.333333  0.500000  0.500000      2.000000
  0.500000  0.500000  0.500000      1.000000
 
 Following cartesian coordinates:
            Coordinates               Weight
  0.000000  0.000000  0.000000      1.000000
  0.034722  0.000000  0.000000      2.000000
  0.069444  0.000000  0.000000      2.000000
  0.104167  0.000000  0.000000      1.000000
  0.000000  0.036630  0.000000      2.000000
  0.034722  0.036630  0.000000      2.000000
 -0.034722  0.036630  0.000000      2.000000
  0.069444  0.036630  0.000000      2.000000
 -0.069444  0.036630  0.000000      2.000000
  0.104167  0.036630  0.000000      2.000000
  0.000000  0.073260  0.000000      2.000000
  0.034722  0.073260  0.000000      2.000000
 -0.034722  0.073260  0.000000      2.000000
  0.069444  0.073260  0.000000      2.000000
 -0.069444  0.073260  0.000000      2.000000
  0.104167  0.073260  0.000000      2.000000
  0.000000  0.109890  0.000000      1.000000
  0.034722  0.109890  0.000000      2.000000
  0.069444  0.109890  0.000000      2.000000
  0.104167  0.109890  0.000000      1.000000
  0.000000  0.000000  0.044874      1.000000
  0.034722  0.000000  0.044874      2.000000
  0.069444  0.000000  0.044874      2.000000
  0.104167  0.000000  0.044874      1.000000
  0.000000  0.036630  0.044874      2.000000
  0.034722  0.036630  0.044874      2.000000
 -0.034722  0.036630  0.044874      2.000000
  0.069444  0.036630  0.044874      2.000000
 -0.069444  0.036630  0.044874      2.000000
  0.104167  0.036630  0.044874      2.000000
  0.000000  0.073260  0.044874      2.000000
  0.034722  0.073260  0.044874      2.000000
 -0.034722  0.073260  0.044874      2.000000
  0.069444  0.073260  0.044874      2.000000
 -0.069444  0.073260  0.044874      2.000000
  0.104167  0.073260  0.044874      2.000000
  0.000000  0.109890  0.044874      1.000000
  0.034722  0.109890  0.044874      2.000000
  0.069444  0.109890  0.044874      2.000000
  0.104167  0.109890  0.044874      1.000000
 


--------------------------------------------------------------------------------------------------------




 Dimension of arrays:
   k-points           NKPTS =     40   k-points in BZ     NKDIM =     40   number of bands    NBANDS=     32
   number of dos      NEDOS =    301   number of ions     NIONS =      8
   non local maximal  LDIM  =      5   non local SUM 2l+1 LMDIM =     13
   total plane-waves  NPLWV =  31104
   max r-space proj   IRMAX =      1   max aug-charges    IRDMAX=   7146
   dimension x,y,z NGX =    24 NGY =   24 NGZ =   54
   dimension x,y,z NGXF=    48 NGYF=   48 NGZF=  108
   support grid    NGXF=    48 NGYF=   48 NGZF=  108
   ions per type =               4   4
   NGX,Y,Z   is equivalent  to a cutoff of   8.31,  8.77,  8.06 a.u.
   NGXF,Y,Z  is equivalent  to a cutoff of  16.62, 17.54, 16.11 a.u.

 SYSTEM =  ./                                      
 POSCAR =  Ge Se                                   

 Startparameter for this run:
   NWRITE =      2    write-flag & timer
   PREC   = normal    normal or accurate (medium, high low for compatibility)
   ISTART =      0    job   : 0-new  1-cont  2-samecut
   ICHARG =      2    charge: 1-file 2-atom 10-const
   ISPIN  =      1    spin polarized calculation?
   LNONCOLLINEAR =      F non collinear calculations
   LSORBIT =      F    spin-orbit coupling
   INIWAV =      1    electr: 0-lowe 1-rand  2-diag
   LASPH  =      T    aspherical Exc in radial PAW
 Electronic Relaxation 1
   ENCUT  =  360.0 eV  26.46 Ry    5.14 a.u.   7.43  7.04 17.24*2*pi/ulx,y,z
   ENINI  =  360.0     initial cutoff
   ENAUG  =  446.8 eV  augmentation charge cutoff
   NELM   =    100;   NELMIN=  2; NELMDL= -5     # of ELM steps 
   EDIFF  = 0.1E-05   stopping-criterion for ELM
   LREAL  =      F    real-space projection
   NLSPLINE    = F    spline interpolate recip. space projectors
   LCOMPAT=      F    compatible to vasp.4.4
   GGA_COMPAT  = T    GGA compatible to vasp.4.4-vasp.4.6
   LMAXPAW     = -100 max onsite density
   LMAXMIX     =    4 max onsite mixed and CHGCAR
   VOSKOWN=      0    Vosko Wilk Nusair interpolation
   ROPT   =    0.00000   0.00000
 Ionic relaxation
   EDIFFG = 0.1E-04   stopping-criterion for IOM
   NSW    =      0    number of steps for IOM
   NBLOCK =      1;   KBLOCK =      1    inner block; outer block 
   IBRION =     -1    ionic relax: 0-MD 1-quasi-New 2-CG
   NFREE  =      0    steps in history (QN), initial steepest desc. (CG)
   ISIF   =      2    stress and relaxation
   IWAVPR =     10    prediction:  0-non 1-charg 2-wave 3-comb
   ISYM   =      0    0-nonsym 1-usesym 2-fastsym
   LCORR  =      T    Harris-Foulkes like correction to forces

   POTIM  = 0.5000    time-step for ionic-motion
   TEIN   =    0.0    initial temperature
   TEBEG  =    0.0;   TEEND  =   0.0 temperature during run
   SMASS  =  -3.00    Nose mass-parameter (am)
   estimated Nose-frequenzy (Omega)   =  0.10E-29 period in steps = 0.13E+47 mass=  -0.527E-27a.u.
   SCALEE = 1.0000    scale energy and forces
   NPACO  =    256;   APACO  = 10.0  distance and # of slots for P.C.
   PSTRESS=    0.0 pullay stress

  Mass of Ions in am
   POMASS =  72.61 78.96
  Ionic Valenz
   ZVAL   =   4.00  6.00
  Atomic Wigner-Seitz radii
   RWIGS  =  -1.00 -1.00
  virtual crystal weights 
   VCA    =   1.00  1.00
   NELECT =      40.0000    total number of electrons
   NUPDOWN=      -1.0000    fix difference up-down

 DOS related values:
   EMIN   =  10.00;   EMAX   =-10.00  energy-range for DOS
   EFERMI =   0.00;   METHOD = LEGACY      
   ISMEAR =     0;   SIGMA  =   0.05  broadening in eV -4-tet -1-fermi 0-gaus

 Electronic relaxation 2 (details)
   IALGO  =     38    algorithm
   LDIAG  =      T    sub-space diagonalisation (order eigenvalues)
   LSUBROT=      F    optimize rotation matrix (better conditioning)
   TURBO    =      0    0=normal 1=particle mesh
   IRESTART =      0    0=no restart 2=restart with 2 vectors
   NREBOOT  =      0    no. of reboots
   NMIN     =      0    reboot dimension
   EREF     =   0.00    reference energy to select bands
   IMIX   =      4    mixing-type and parameters
     AMIX     =   0.40;   BMIX     =  1.00
     AMIX_MAG =   1.60;   BMIX_MAG =  1.00
     AMIN     =   0.10
     WC   =   100.;   INIMIX=   1;  MIXPRE=   1;  MAXMIX= -45

 Intra band minimization:
   WEIMIN = 0.0000     energy-eigenvalue tresh-hold
   EBREAK =  0.78E-08  absolut break condition
   DEPER  =   0.30     relativ break condition  

   TIME   =   0.40     timestep for ELM

  volume/ion in A,a.u.               =      30.42       205.27
  Fermi-wavevector in a.u.,A,eV,Ry     =   0.896782  1.694672 10.942040  0.804217
  Thomas-Fermi vector in A             =   2.019283
 
 Write flags
   LWAVE        =      F    write WAVECAR
   LDOWNSAMPLE  =      F    k-point downsampling of WAVECAR
   LCHARG       =      F    write CHGCAR
   LVTOT        =      F    write LOCPOT, total local potential
   LVHAR        =      F    write LOCPOT, Hartree potential only
   LELF         =      F    write electronic localiz. function (ELF)
   LORBIT       =      0    0 simple, 1 ext, 2 COOP (PROOUT), +10 PAW based schemes


 Dipole corrections
   LMONO  =      F    monopole corrections only (constant potential shift)
   LDIPOL =      F    correct potential (dipole corrections)
   IDIPOL =      0    1-x, 2-y, 3-z, 4-all directions 
   EPSILON=  1.0000000 bulk dielectric constant

 Exchange correlation treatment:
   GGA     =    PE    GGA type
   LEXCH   =     8    internal setting for exchange type
   LIBXC   =     F    Libxc                    
   VOSKOWN =     0    Vosko Wilk Nusair interpolation
   LHFCALC =     F    Hartree Fock is set to
   LHFONE  =     F    Hartree Fock one center treatment
   AEXX    =    0.0000 exact exchange contribution

 Linear response parameters
   LEPSILON=     F    determine dielectric tensor
   LRPA    =     F    only Hartree local field effects (RPA)
   LNABLA  =     F    use nabla operator in PAW spheres
   LVEL    =     F    velocity operator in full k-point grid
   CSHIFT  =0.1000    complex shift for real part using Kramers Kronig
   OMEGAMAX=  -1.0    maximum frequency
   DEG_THRESHOLD= 0.2000000E-02 threshold for treating states as degnerate
   RTIME   =   -0.100 relaxation time in fs
  (WPLASMAI=    0.000 imaginary part of plasma frequency in eV, 0.658/RTIME)
   DFIELD  = 0.0000000 0.0000000 0.0000000 field for delta impulse in time
 
  Optional k-point grid parameters
   LKPOINTS_OPT  =     F    use optional k-point grid
   KPOINTS_OPT_MODE=     1    mode for optional k-point grid
 
 Orbital magnetization related:
   ORBITALMAG=     F  switch on orbital magnetization
   LCHIMAG   =     F  perturbation theory with respect to B field
   DQ        =  0.001000  dq finite difference perturbation B field
   LLRAUG    =     F  two centre corrections for induced B field
   LBONE     =     F  B-component reconstruction in AE one-centre
   LVGVCALC  =     T  calculate vGv susceptibility
   LVGVAPPL  =     F  apply vGv susceptibility instead of pGv for G=0

 Random number generation:
   RANDOM_GENERATOR = DEFAULT
   PCG_SEED         = not used


--------------------------------------------------------------------------------------------------------


 Static calculation
 charge density and potential will be updated during run
 non-spin polarized calculation
 Variant of blocked Davidson
 Davidson routine will perform the subspace rotation
 perform sub-space diagonalisation
    after iterative eigenvector-optimisation
 modified Broyden-mixing scheme, WC =      100.0
 initial mixing is a Kerker type mixing with AMIX =  0.4000 and BMIX =      1.0000
 Hartree-type preconditioning will be used
 using additional bands            12
 reciprocal scheme for non local part
 use partial core corrections
 calculate Harris-corrections to forces 
   (improved forces if not selfconsistent)
 use gradient corrections 
 use of overlap-Matrix (Vanderbilt PP)
 Gauss-broadening in eV      SIGMA  =   0.05


--------------------------------------------------------------------------------------------------------


  energy-cutoff  :      360.00
  volume of cell :      243.35
      direct lattice vectors                 reciprocal lattice vectors
     4.800000000  0.000000000  0.000000000     0.208333333  0.000000000  0.000000000
     0.000000000  4.550000000  0.000000000     0.000000000  0.219780220  0.000000000
     0.000000000  0.000000000 11.142221000     0.000000000  0.000000000  0.089748713

  length of vectors
     4.800000000  4.550000000 11.142221000     0.208333333  0.219780220  0.089748713


 
 k-points in units of 2pi/SCALE and weight: KPOINTS created by Atomic Simulation Env
   0.00000000  0.00000000  0.00000000       0.014
   0.03472222  0.00000000  0.00000000       0.028
   0.06944444  0.00000000  0.00000000       0.028
   0.10416667  0.00000000  0.00000000       0.014
   0.00000000  0.03663004  0.00000000       0.028
   0.03472222  0.03663004  0.00000000       0.028
  -0.03472222  0.03663004  0.00000000       0.028
   0.06944444  0.03663004  0.00000000       0.028
  -0.06944444  0.03663004  0.00000000       0.028
   0.10416667  0.03663004  0.00000000       0.028
   0.00000000  0.07326007  0.00000000       0.028
   0.03472222  0.07326007  0.00000000       0.028
  -0.03472222  0.07326007  0.00000000       0.028
   0.06944444  0.07326007  0.00000000       0.028
  -0.06944444  0.07326007  0.00000000       0.028
   0.10416667  0.07326007  0.00000000       0.028
   0.00000000  0.10989011  0.00000000       0.014
   0.03472222  0.10989011  0.00000000       0.028
   0.06944444  0.10989011  0.00000000       0.028
   0.10416667  0.10989011  0.00000000       0.014
   0.00000000  0.00000000  0.04487436       0.014
   0.03472222  0.00000000  0.04487436       0.028
   0.06944444  0.00000000  0.04487436       0.028
   0.10416667  0.00000000  0.04487436       0.014
   0.00000000  0.03663004  0.04487436       0.028
   0.03472222  0.03663004  0.04487436       0.028
  -0.03472222  0.03663004  0.04487436       0.028
   0.06944444  0.03663004  0.04487436       0.028
  -0.06944444  0.03663004  0.04487436       0.028
   0.10416667  0.03663004  0.04487436       0.028
   0.00000000  0.07326007  0.04487436       0.028
   0.03472222  0.07326007  0.04487436       0.028
  -0.03472222  0.07326007  0.04487436       0.028
   0.06944444  0.07326007  0.04487436       0.028
  -0.06944444  0.07326007  0.04487436       0.028
   0.10416667  0.07326007  0.04487436       0.028
   0.00000000  0.10989011  0.04487436       0.014
   0.03472222  0.10989011  0.04487436       0.028
   0.06944444  0.10989011  0.04487436       0.028
   0.10416667  0.10989011  0.04487436       0.014
 
 k-points in reciprocal lattice and weights: KPOINTS created by Atomic Simulation Env
   0.00000000  0.00000000  0.00000000       0.014
   0.16666667  0.00000000  0.00000000       0.028
   0.33333333  0.00000000  0.00000000       0.028
   0.50000000  0.00000000  0.00000000       0.014
   0.00000000  0.16666667  0.00000000       0.028
   0.16666667  0.16666667  0.00000000       0.028
  -0.16666667  0.16666667  0.00000000       0.028
   0.33333333  0.16666667  0.00000000       0.028
  -0.33333333  0.16666667  0.00000000       0.028
   0.50000000  0.16666667  0.00000000       0.028
   0.00000000  0.33333333  0.00000000       0.028
   0.16666667  0.33333333  0.00000000       0.028
  -0.16666667  0.33333333  0.00000000       0.028
   0.33333333  0.33333333  0.00000000       0.028
  -0.33333333  0.33333333  0.00000000       0.028
   0.50000000  0.33333333  0.00000000       0.028
   0.00000000  0.50000000  0.00000000       0.014
   0.16666667  0.50000000  0.00000000       0.028
   0.33333333  0.50000000  0.00000000       0.028
   0.50000000  0.50000000  0.00000000       0.014
   0.00000000  0.00000000  0.50000000       0.014
   0.16666667  0.00000000  0.50000000       0.028
   0.33333333  0.00000000  0.50000000       0.028
   0.50000000  0.00000000  0.50000000       0.014
   0.00000000  0.16666667  0.50000000       0.028
   0.16666667  0.16666667  0.50000000       0.028
  -0.16666667  0.16666667  0.50000000       0.028
   0.33333333  0.16666667  0.50000000       0.028
  -0.33333333  0.16666667  0.50000000       0.028
   0.50000000  0.16666667  0.50000000       0.028
   0.00000000  0.33333333  0.50000000       0.028
   0.16666667  0.33333333  0.50000000       0.028
  -0.16666667  0.33333333  0.50000000       0.028
   0.33333333  0.33333333  0.50000000       0.028
  -0.33333333  0.33333333  0.50000000       0.028
   0.50000000  0.33333333  0.50000000       0.028
   0.00000000  0.50000000  0.50000000       0.014
   0.16666667  0.50000000  0.50000000       0.028
   0.33333333  0.50000000  0.50000000       0.028
   0.50000000  0.50000000  0.50000000       0.014
 
 position of ions in fractional coordinates (direct lattice) 
   0.10976400  0.25000000  0.13557727
   0.60976400  0.75000000  0.36442273
   0.89023600  0.75000000  0.86442273
   0.39023600  0.25000000  0.63557727
   0.94101771  0.25000000  0.35007127
   0.44101771  0.75000000  0.14992873
   0.05898229  0.75000000  0.64992873
   0.55898229  0.25000000  0.85007127
 
 position of ions in cartesian coordinates  (Angst):
   0.52686722  1.13750000  1.51063189
   2.92686722  3.41250000  4.06047861
   4.27313278  3.41250000  9.63158911
   1.87313278  1.13750000  7.08174239
   4.51688499  1.13750000  3.90057148
   2.11688499  3.41250000  1.67053902
   0.28311501  3.41250000  7.24164952
   2.68311501  1.13750000  9.47168198
 


--------------------------------------------------------------------------------------------------------


 k-point   1 :   0.0000 0.0000 0.0000  plane waves:    3747
 k-point   2 :   0.1667 0.0000 0.0000  plane waves:    3765
 k-point   3 :   0.3333 0.0000 0.0000  plane waves:    3763
 k-point   4 :   0.5000 0.0000 0.0000  plane waves:    3762
 k-point   5 :   0.0000 0.1667 0.0000  plane waves:    3772
 k-point   6 :   0.1667 0.1667 0.0000  plane waves:    3782
 k-point   7 :  -0.1667 0.1667 0.0000  plane waves:    3782
 k-point   8 :   0.3333 0.1667 0.0000  plane waves:    3759
 k-point   9 :  -0.3333 0.1667 0.0000  plane waves:    3759
 k-point  10 :   0.5000 0.1667 0.0000  plane waves:    3770
 k-point  11 :   0.0000 0.3333 0.0000  plane waves:    3798
 k-point  12 :   0.1667 0.3333 0.0000  plane waves:    3796
 k-point  13 :  -0.1667 0.3333 0.0000  plane waves:    3796
 k-point  14 :   0.3333 0.3333 0.0000  plane waves:    3781
 k-point  15 :  -0.3333 0.3333 0.0000  plane waves:    3781
 k-point  16 :   0.5000 0.3333 0.0000  plane waves:    3778
 k-point  17 :   0.0000 0.5000 0.0000  plane waves:    3810
 k-point  18 :   0.1667 0.5000 0.0000  plane waves:    3790
 k-point  19 :   0.3333 0.5000 0.0000  plane waves:    3770
 k-point  20 :   0.5000 0.5000 0.0000  plane waves:    3772
 k-point  21 :   0.0000 0.0000 0.5000  plane waves:    3790
 k-point  22 :   0.1667 0.0000 0.5000  plane waves:    3754
 k-point  23 :   0.3333 0.0000 0.5000  plane waves:    3764
 k-point  24 :   0.5000 0.0000 0.5000  plane waves:    3748
 k-point  25 :   0.0000 0.1667 0.5000  plane waves:    3792
 k-point  26 :   0.1667 0.1667 0.5000  plane waves:    3772
 k-point  27 :  -0.1667 0.1667 0.5000  plane waves:    3772
 k-point  28 :   0.3333 0.1667 0.5000  plane waves:    3762
 k-point  29 :  -0.3333 0.1667 0.5000  plane waves:    3762
 k-point  30 :   0.5000 0.1667 0.5000  plane waves:    3760
 k-point  31 :   0.0000 0.3333 0.5000  plane waves:    3796
 k-point  32 :   0.1667 0.3333 0.5000  plane waves:    3804
 k-point  33 :  -0.1667 0.3333 0.5000  plane waves:    3804
 k-point  34 :   0.3333 0.3333 0.5000  plane waves:    3776
 k-point  35 :  -0.3333 0.3333 0.5000  plane waves:    3776
 k-point  36 :   0.5000 0.3333 0.5000  plane waves:    3772
 k-point  37 :   0.0000 0.5000 0.5000  plane waves:    3760
 k-point  38 :   0.1667 0.5000 0.5000  plane waves:    3808
 k-point  39 :   0.3333 0.5000 0.5000  plane waves:    3792
 k-point  40 :   0.5000 0.5000 0.5000  plane waves:    3800

 maximum and minimum number of plane-waves per node :       970      920

 maximum number of plane-waves:      3810
 maximum index in each direction: 
   IXMAX=    7   IYMAX=    7   IZMAX=   17
   IXMIN=   -7   IYMIN=   -7   IZMIN=  -17


 parallel 3D FFT for wavefunctions:
    minimum data exchange during FFTs selected (reduces bandwidth)
 parallel 3D FFT for charge:
    minimum data exchange during FFTs selected (reduces bandwidth)


 total amount of memory used by VASP MPI-rank0    40576. kBytes
=======================================================================

   base      :      30000. kBytes
   nonl-proj :       8245. kBytes
   fftplans  :        418. kBytes
   grid      :        607. kBytes
   one-center:         16. kBytes
   wavefun   :       1290. kBytes
 
     INWAV:  cpu time      0.0000: real time      0.0001
 Broyden mixing: mesh for mixing (old mesh)
   NGX = 15   NGY = 15   NGZ = 35
  (NGX  = 48   NGY  = 48   NGZ  =108)
  gives a total of   7875 points

 initial charge density was supplied:
 charge density of overlapping atoms calculated
 number of electron      40.0000000 magnetization 
 keeping initial charge density in first step


--------------------------------------------------------------------------------------------------------


 Maximum index for augmentation-charges           348 (set IRDMAX)


--------------------------------------------------------------------------------------------------------


 First call to EWALD:  gamma=   0.284
 Maximum number of real-space cells 3x 4x 2
 Maximum number of reciprocal cells 2x 2x 5

    FEWALD:  cpu time      0.0010: real time      0.0010


--------------------------------------- Ionic step        1  -------------------------------------------




--------------------------------------- Iteration      1(   1)  ---------------------------------------


    POTLOK:  cpu time      0.0084: real time      0.0087
    SETDIJ:  cpu time      0.1389: real time      0.1395
     EDDAV:  cpu time      0.2727: real time      0.2760
       DOS:  cpu time      0.0015: real time      0.0015
    --------------------------------------------
      LOOP:  cpu time      0.4214: real time      0.4256

 eigenvalue-minimisations  :  2560
 total energy-change (2. order) : 0.1358522E+03  (-0.1238557E+04)
 number of electron      40.0000000 magnetization 
 augmentation part       40.0000000 magnetization 

 Free energy of the ion-electron system (eV)
  ---------------------------------------------------
  alpha Z        PSCENC =        69.63105214
  Ewald energy   TEWEN  =     -1291.68803315
  -Hartree energ DENC   =      -177.28488757
  -exchange      EXHF   =         0.00000000
  -V(xc)+E(xc)   XCENC  =       -35.81662829
  PAW double counting   =      1193.78262552    -1080.73714043
  entropy T*S    EENTRO =        -0.00584053
  eigenvalues    EBANDS =         9.48640064
  atomic energy  EATOM  =      1448.48460880
  Solvation  Ediel_sol  =         0.00000000
  ---------------------------------------------------
  free energy    TOTEN  =       135.85215713 eV

  energy without entropy =      135.85799766  energy(sigma->0) =      135.85507740


--------------------------------------------------------------------------------------------------------




--------------------------------------- Iteration      1(   2)  ---------------------------------------


     EDDAV:  cpu time      0.3551: real time      0.3587
       DOS:  cpu time      0.0005: real time      0.0005
    --------------------------------------------
      LOOP:  cpu time      0.3556: real time      0.3592

 eigenvalue-minimisations  :  3760
 total energy-change (2. order) :-0.1589405E+03  (-0.1538640E+03)
 number of electron      40.0000000 magnetization 
 augmentation part       40.0000000 magnetization 

 Free energy of the ion-electron system (eV)
  ---------------------------------------------------
  alpha Z        PSCENC =        69.63105214
  Ewald energy   TEWEN  =     -1291.68803315
  -Hartree energ DENC   =      -177.28488757
  -exchange      EXHF   =         0.00000000
  -V(xc)+E(xc)   XCENC  =       -35.81662829
  PAW double counting   =      1193.78262552    -1080.73714043
  entropy T*S    EENTRO =        -0.00000000
  eigenvalues    EBANDS =      -149.45992418
  atomic energy  EATOM  =      1448.48460880
  Solvation  Ediel_sol  =         0.00000000
  ---------------------------------------------------
  free energy    TOTEN  =       -23.08832716 eV

  energy without entropy =      -23.08832716  energy(sigma->0) =      -23.08832716


--------------------------------------------------------------------------------------------------------




--------------------------------------- Iteration      1(   3)  ---------------------------------------


     EDDAV:  cpu time      0.3198: real time      0.3234
       DOS:  cpu time      0.0006: real time      0.0006
    --------------------------------------------
      LOOP:  cpu time      0.3204: real time      0.3240

 eigenvalue-minimisations  :  3152
 total energy-change (2. order) :-0.1032273E+02  (-0.1029564E+02)
 number of electron      40.0000000 magnetization 
 augmentation part       40.0000000 magnetization 

 Free energy of the ion-electron system (eV)
  ---------------------------------------------------
  alpha Z        PSCENC =        69.63105214
  Ewald energy   TEWEN  =     -1291.68803315
  -Hartree energ DENC   =      -177.28488757
  -exchange      EXHF   =         0.00000000
  -V(xc)+E(xc)   XCENC  =       -35.81662829
  PAW double counting   =      1193.78262552    -1080.73714043
  entropy T*S    EENTRO =        -0.00000000
  eigenvalues    EBANDS =      -159.78264941
  atomic energy  EATOM  =      1448.48460880
  Solvation  Ediel_sol  =         0.00000000
  ---------------------------------------------------
  free energy    TOTEN  =       -33.41105239 eV

  energy without entropy =      -33.41105239  energy(sigma->0) =      -33.41105239


--------------------------------------------------------------------------------------------------------




--------------------------------------- Iteration      1(   4)  ---------------------------------------


     EDDAV:  cpu time      0.3072: real time      0.3112
       DOS:  cpu time      0.0006: real time      0.0006
    --------------------------------------------
      LOOP:  cpu time      0.3078: real time      0.3118

 eigenvalue-minimisations  :  3136
 total energy-change (2. order) :-0.8595139E-01  (-0.8594396E-01)
 number of electron      40.0000000 magnetization 
 augmentation part       40.0000000 magnetization 

 Free energy of the ion-electron system (eV)
  ---------------------------------------------------
  alpha Z        PSCENC =        69.63105214
  Ewald energy   TEWEN  =     -1291.68803315
  -Hartree energ DENC   =      -177.28488757
  -exchange      EXHF   =         0.00000000
  -V(xc)+E(xc)   XCENC  =       -35.81662829
  PAW double counting   =      1193.78262552    -1080.73714043
  entropy T*S    EENTRO =        -0.00000000
  eigenvalues    EBANDS =      -159.86860080
  atomic energy  EATOM  =      1448.48460880
  Solvation  Ediel_sol  =         0.00000000
  ---------------------------------------------------
  free energy    TOTEN  =       -33.49700378 eV

  energy without entropy =      -33.49700378  energy(sigma->0) =      -33.49700378


--------------------------------------------------------------------------------------------------------




--------------------------------------- Iteration      1(   5)  ---------------------------------------


     EDDAV:  cpu time      0.3223: real time      0.3258
       DOS:  cpu time      0.0006: real time      0.0006
    CHARGE:  cpu time      0.0050: real time      0.0051
    MIXING:  cpu time      0.0007: real time      0.0008
    --------------------------------------------
      LOOP:  cpu time      0.3286: real time      0.3322

 eigenvalue-minimisations  :  3168
 total energy-change (2. order) :-0.6083113E-03  (-0.6083091E-03)
 number of electron      39.9999999 magnetization 
 augmentation part       -7.4337070 magnetization 

 Broyden mixing:
  rms(total) = 0.60505E+00    rms(broyden)= 0.60503E+00
  rms(prec ) = 0.76001E+00
  weight for this iteration     100.00

 Free energy of the ion-electron system (eV)
  ---------------------------------------------------
  alpha Z        PSCENC =        69.63105214
  Ewald energy   TEWEN  =     -1291.68803315
  -Hartree energ DENC   =      -177.28488757
  -exchange      EXHF   =         0.00000000
  -V(xc)+E(xc)   XCENC  =       -35.81662829
  PAW double counting   =      1193.78262552    -1080.73714043
  entropy T*S    EENTRO =        -0.00000000
  eigenvalues    EBANDS =      -159.86920911
  atomic energy  EATOM  =      1448.48460880
  Solvation  Ediel_sol  =         0.00000000
  ---------------------------------------------------
  free energy    TOTEN  =       -33.49761209 eV

  energy without entropy =      -33.49761209  energy(sigma->0) =      -33.49761209


--------------------------------------------------------------------------------------------------------




--------------------------------------- Iteration      1(   6)  ---------------------------------------


    POTLOK:  cpu time      0.0060: real time      0.0063
    SETDIJ:  cpu time      0.1368: real time      0.1376
     EDDAV:  cpu time      0.3151: real time      0.3183
       DOS:  cpu time      0.0006: real time      0.0006
    CHARGE:  cpu time      0.0050: real time      0.0051
    MIXING:  cpu time      0.0006: real time      0.0006
    --------------------------------------------
      LOOP:  cpu time      0.4642: real time      0.4684

 eigenvalue-minimisations  :  2832
 total energy-change (2. order) : 0.7662324E+00  (-0.1821500E+00)
 number of electron      39.9999998 magnetization 
 augmentation part       -7.3418678 magnetization 

 Broyden mixing:
  rms(total) = 0.36486E+00    rms(broyden)= 0.36486E+00
  rms(prec ) = 0.39305E+00
  weight for this iteration     100.00

 eigenvalues of (default mixing * dielectric matrix)
  average eigenvalue GAMMA=   1.6479
  1.6479

 Free energy of the ion-electron system (eV)
  ---------------------------------------------------
  alpha Z        PSCENC =        69.63105214
  Ewald energy   TEWEN  =     -1291.68803315
  -Hartree energ DENC   =      -186.02589860
  -exchange      EXHF   =         0.00000000
  -V(xc)+E(xc)   XCENC  =       -35.08224647
  PAW double counting   =      1408.02053851    -1295.24886583
  entropy T*S    EENTRO =        -0.00000000
  eigenvalues    EBANDS =      -150.82253511
  atomic energy  EATOM  =      1448.48460880
  Solvation  Ediel_sol  =         0.00000000
  ---------------------------------------------------
  free energy    TOTEN  =       -32.73137972 eV

  energy without entropy =      -32.73137972  energy(sigma->0) =      -32.73137972


--------------------------------------------------------------------------------------------------------




--------------------------------------- Iteration      1(   7)  ---------------------------------------


    POTLOK:  cpu time      0.0059: real time      0.0062
    SETDIJ:  cpu time      0.1367: real time      0.1377
     EDDAV:  cpu time      0.2953: real time      0.2984
       DOS:  cpu time      0.0006: real time      0.0006
    CHARGE:  cpu time      0.0048: real time      0.0048
    MIXING:  cpu time      0.0005: real time      0.0005
    --------------------------------------------
      LOOP:  cpu time      0.4438: real time      0.4482

 eigenvalue-minimisations  :  2848
 total energy-change (2. order) : 0.5240088E-02  (-0.3160499E-01)
 number of electron      39.9999998 magnetization 
 augmentation part       -7.3391517 magnetization 

 Broyden mixing:
  rms(total) = 0.17672E+00    rms(broyden)= 0.17672E+00
  rms(prec ) = 0.18973E+00
  weight for this iteration     100.00

 eigenvalues of (default mixing * dielectric matrix)
  average eigenvalue GAMMA=   1.7556
  1.1436  2.3676

 Free energy of the ion-electron system (eV)
  ---------------------------------------------------
  alpha Z        PSCENC =        69.63105214
  Ewald energy   TEWEN  =     -1291.68803315
  -Hartree energ DENC   =      -187.98310527
  -exchange      EXHF   =         0.00000000
  -V(xc)+E(xc)   XCENC  =       -34.74958113
  PAW double counting   =      1601.35462137    -1488.68058457
  entropy T*S    EENTRO =        -0.00000000
  eigenvalues    EBANDS =      -149.09511782
  atomic energy  EATOM  =      1448.48460880
  Solvation  Ediel_sol  =         0.00000000
  ---------------------------------------------------
  free energy    TOTEN  =       -32.72613963 eV

  energy without entropy =      -32.72613963  energy(sigma->0) =      -32.72613963


--------------------------------------------------------------------------------------------------------




--------------------------------------- Iteration      1(   8)  ---------------------------------------


    POTLOK:  cpu time      0.0059: real time      0.0061
    SETDIJ:  cpu time      0.1367: real time      0.1374
     EDDAV:  cpu time      0.2972: real time      0.3004
       DOS:  cpu time      0.0007: real time      0.0007
    CHARGE:  cpu time      0.0048: real time      0.0048
    MIXING:  cpu time      0.0006: real time      0.0006
    --------------------------------------------
      LOOP:  cpu time      0.4459: real time      0.4501

 eigenvalue-minimisations  :  2960
 total energy-change (2. order) : 0.1016529E-03  (-0.3367907E-02)
 number of electron      39.9999998 magnetization 
 augmentation part       -7.3530728 magnetization 

 Broyden mixing:
  rms(total) = 0.19534E-01    rms(broyden)= 0.19534E-01
  rms(prec ) = 0.28558E-01
  weight for this iteration     100.00

 eigenvalues of (default mixing * dielectric matrix)
  average eigenvalue GAMMA=   1.5546
  2.3966  1.1335  1.1335

 Free energy of the ion-electron system (eV)
  ---------------------------------------------------
  alpha Z        PSCENC =        69.63105214
  Ewald energy   TEWEN  =     -1291.68803315
  -Hartree energ DENC   =      -188.41906618
  -exchange      EXHF   =         0.00000000
  -V(xc)+E(xc)   XCENC  =       -34.54067330
  PAW double counting   =      1767.73386674    -1655.10301839
  entropy T*S    EENTRO =        -0.00000000
  eigenvalues    EBANDS =      -148.82477463
  atomic energy  EATOM  =      1448.48460880
  Solvation  Ediel_sol  =         0.00000000
  ---------------------------------------------------
  free energy    TOTEN  =       -32.72603798 eV

  energy without entropy =      -32.72603798  energy(sigma->0) =      -32.72603798


--------------------------------------------------------------------------------------------------------




--------------------------------------- Iteration      1(   9)  ---------------------------------------


    POTLOK:  cpu time      0.0058: real time      0.0060
    SETDIJ:  cpu time      0.1368: real time      0.1375
     EDDAV:  cpu time      0.2975: real time      0.3000
       DOS:  cpu time      0.0004: real time      0.0004
    CHARGE:  cpu time      0.0040: real time      0.0040
    MIXING:  cpu time      0.0003: real time      0.0003
    --------------------------------------------
      LOOP:  cpu time      0.4448: real time      0.4483

 eigenvalue-minimisations  :  3088
 total energy-change (2. order) : 0.4526858E-03  (-0.7181062E-03)
 number of electron      39.9999998 magnetization 
 augmentation part       -7.3485973 magnetization 

 Broyden mixing:
  rms(total) = 0.86508E-02    rms(broyden)= 0.86508E-02
  rms(prec ) = 0.10523E-01
  weight for this iteration     100.00

 eigenvalues of (default mixing * dielectric matrix)
  average eigenvalue GAMMA=   1.6951
  2.2885  2.2885  1.1017  1.1017

 Free energy of the ion-electron system (eV)
  ---------------------------------------------------
  alpha Z        PSCENC =        69.63105214
  Ewald energy   TEWEN  =     -1291.68803315
  -Hartree energ DENC   =      -189.01171078
  -exchange      EXHF   =         0.00000000
  -V(xc)+E(xc)   XCENC  =       -34.49619916
  PAW double counting   =      1773.02438858    -1660.40117252
  entropy T*S    EENTRO =        -0.00000000
  eigenvalues    EBANDS =      -148.26851920
  atomic energy  EATOM  =      1448.48460880
  Solvation  Ediel_sol  =         0.00000000
  ---------------------------------------------------
  free energy    TOTEN  =       -32.72558530 eV

  energy without entropy =      -32.72558530  energy(sigma->0) =      -32.72558530


--------------------------------------------------------------------------------------------------------




--------------------------------------- Iteration      1(  10)  ---------------------------------------


    POTLOK:  cpu time      0.0040: real time      0.0041
    SETDIJ:  cpu time      0.1368: real time      0.1371
     EDDAV:  cpu time      0.1910: real time      0.1920
       DOS:  cpu time      0.0003: real time      0.0003
    CHARGE:  cpu time      0.0037: real time      0.0037
    MIXING:  cpu time      0.0003: real time      0.0003
    --------------------------------------------
      LOOP:  cpu time      0.3362: real time      0.3377

 eigenvalue-minimisations  :  2800
 total energy-change (2. order) :-0.3269680E-03  (-0.8704741E-04)
 number of electron      39.9999998 magnetization 
 augmentation part       -7.3481895 magnetization 

 Broyden mixing:
  rms(total) = 0.31435E-02    rms(broyden)= 0.31435E-02
  rms(prec ) = 0.37180E-02
  weight for this iteration     100.00

 eigenvalues of (default mixing * dielectric matrix)
  average eigenvalue GAMMA=   1.6959
  2.7784  2.5806  1.1046  1.1046  0.9113

 Free energy of the ion-electron system (eV)
  ---------------------------------------------------
  alpha Z        PSCENC =        69.63105214
  Ewald energy   TEWEN  =     -1291.68803315
  -Hartree energ DENC   =      -189.13349576
  -exchange      EXHF   =         0.00000000
  -V(xc)+E(xc)   XCENC  =       -34.48582341
  PAW double counting   =      1768.00268437    -1655.37512277
  entropy T*S    EENTRO =        -0.00000000
  eigenvalues    EBANDS =      -148.16178249
  atomic energy  EATOM  =      1448.48460880
  Solvation  Ediel_sol  =         0.00000000
  ---------------------------------------------------
  free energy    TOTEN  =       -32.72591226 eV

  energy without entropy =      -32.72591226  energy(sigma->0) =      -32.72591226


--------------------------------------------------------------------------------------------------------




--------------------------------------- Iteration      1(  11)  ---------------------------------------


    POTLOK:  cpu time      0.0040: real time      0.0042
    SETDIJ:  cpu time      0.1172: real time      0.1176
     EDDAV:  cpu time      0.2069: real time      0.2080
       DOS:  cpu time      0.0004: real time      0.0004
    CHARGE:  cpu time      0.0037: real time      0.0037
    MIXING:  cpu time      0.0003: real time      0.0004
    --------------------------------------------
      LOOP:  cpu time      0.3325: real time      0.3342

 eigenvalue-minimisations  :  3152
 total energy-change (2. order) :-0.5309847E-04  (-0.6779142E-05)
 number of electron      39.9999998 magnetization 
 augmentation part       -7.3483902 magnetization 

 Broyden mixing:
  rms(total) = 0.16929E-02    rms(broyden)= 0.16929E-02
  rms(prec ) = 0.20472E-02
  weight for this iteration     100.00

 eigenvalues of (default mixing * dielectric matrix)
  average eigenvalue GAMMA=   1.7136
  2.7062  2.7062  1.6096  1.0808  1.0808  1.0980

 Free energy of the ion-electron system (eV)
  ---------------------------------------------------
  alpha Z        PSCENC =        69.63105214
  Ewald energy   TEWEN  =     -1291.68803315
  -Hartree energ DENC   =      -189.17112144
  -exchange      EXHF   =         0.00000000
  -V(xc)+E(xc)   XCENC  =       -34.48091142
  PAW double counting   =      1767.21543880    -1654.58680497
  entropy T*S    EENTRO =        -0.00000000
  eigenvalues    EBANDS =      -148.13019411
  atomic energy  EATOM  =      1448.48460880
  Solvation  Ediel_sol  =         0.00000000
  ---------------------------------------------------
  free energy    TOTEN  =       -32.72596536 eV

  energy without entropy =      -32.72596536  energy(sigma->0) =      -32.72596536


--------------------------------------------------------------------------------------------------------




--------------------------------------- Iteration      1(  12)  ---------------------------------------


    POTLOK:  cpu time      0.0037: real time      0.0039
    SETDIJ:  cpu time      0.1091: real time      0.1096
     EDDAV:  cpu time      0.1843: real time      0.1853
       DOS:  cpu time      0.0007: real time      0.0007
    CHARGE:  cpu time      0.0037: real time      0.0037
    MIXING:  cpu time      0.0004: real time      0.0004
    --------------------------------------------
      LOOP:  cpu time      0.3019: real time      0.3036

 eigenvalue-minimisations  :  2880
 total energy-change (2. order) :-0.3055220E-05  (-0.1796918E-05)
 number of electron      39.9999998 magnetization 
 augmentation part       -7.3484039 magnetization 

 Broyden mixing:
  rms(total) = 0.36034E-03    rms(broyden)= 0.36034E-03
  rms(prec ) = 0.41580E-03
  weight for this iteration     100.00

 eigenvalues of (default mixing * dielectric matrix)
  average eigenvalue GAMMA=   1.6555
  2.9606  2.4039  1.9355  1.0739  1.0739  0.9869  1.1537

 Free energy of the ion-electron system (eV)
  ---------------------------------------------------
  alpha Z        PSCENC =        69.63105214
  Ewald energy   TEWEN  =     -1291.68803315
  -Hartree energ DENC   =      -189.19024321
  -exchange      EXHF   =         0.00000000
  -V(xc)+E(xc)   XCENC  =       -34.47842433
  PAW double counting   =      1766.65867133    -1654.02968592
  entropy T*S    EENTRO =        -0.00000000
  eigenvalues    EBANDS =      -148.11391407
  atomic energy  EATOM  =      1448.48460880
  Solvation  Ediel_sol  =         0.00000000
  ---------------------------------------------------
  free energy    TOTEN  =       -32.72596842 eV

  energy without entropy =      -32.72596842  energy(sigma->0) =      -32.72596842


--------------------------------------------------------------------------------------------------------




--------------------------------------- Iteration      1(  13)  ---------------------------------------


    POTLOK:  cpu time      0.0042: real time      0.0043
    SETDIJ:  cpu time      0.1118: real time      0.1121
     EDDAV:  cpu time      0.1670: real time      0.1678
       DOS:  cpu time      0.0003: real time      0.0003
    CHARGE:  cpu time      0.0038: real time      0.0038
    MIXING:  cpu time      0.0004: real time      0.0004
    --------------------------------------------
      LOOP:  cpu time      0.2875: real time      0.2888

 eigenvalue-minimisations  :  2480
 total energy-change (2. order) :-0.1043249E-05  (-0.2180075E-06)
 number of electron      39.9999998 magnetization 
 augmentation part       -7.3483873 magnetization 

 Broyden mixing:
  rms(total) = 0.15043E-03    rms(broyden)= 0.15043E-03
  rms(prec ) = 0.17662E-03
  weight for this iteration     100.00

 eigenvalues of (default mixing * dielectric matrix)
  average eigenvalue GAMMA=   1.6594
  3.0224  2.5987  1.8474  1.5211  1.1393  1.0279  1.0591  1.0591

 Free energy of the ion-electron system (eV)
  ---------------------------------------------------
  alpha Z        PSCENC =        69.63105214
  Ewald energy   TEWEN  =     -1291.68803315
  -Hartree energ DENC   =      -189.19324307
  -exchange      EXHF   =         0.00000000
  -V(xc)+E(xc)   XCENC  =       -34.47782326
  PAW double counting   =      1766.98578236    -1654.35682335
  entropy T*S    EENTRO =        -0.00000000
  eigenvalues    EBANDS =      -148.11148992
  atomic energy  EATOM  =      1448.48460880
  Solvation  Ediel_sol  =         0.00000000
  ---------------------------------------------------
  free energy    TOTEN  =       -32.72596946 eV

  energy without entropy =      -32.72596946  energy(sigma->0) =      -32.72596946


--------------------------------------------------------------------------------------------------------




--------------------------------------- Iteration      1(  14)  ---------------------------------------


    POTLOK:  cpu time      0.0038: real time      0.0039
    SETDIJ:  cpu time      0.1091: real time      0.1094
     EDDAV:  cpu time      0.1100: real time      0.1105
       DOS:  cpu time      0.0003: real time      0.0003
    --------------------------------------------
      LOOP:  cpu time      0.2232: real time      0.2242

 eigenvalue-minimisations  :  1280
 total energy-change (2. order) :-0.1302001E-06  (-0.2378387E-07)
 number of electron      39.9999998 magnetization 
 augmentation part       -7.3483873 magnetization 

 Free energy of the ion-electron system (eV)
  ---------------------------------------------------
  alpha Z        PSCENC =        69.63105214
  Ewald energy   TEWEN  =     -1291.68803315
  -Hartree energ DENC   =      -189.19518982
  -exchange      EXHF   =         0.00000000
  -V(xc)+E(xc)   XCENC  =       -34.47773162
  PAW double counting   =      1766.90250295    -1654.27351076
  entropy T*S    EENTRO =        -0.00000000
  eigenvalues    EBANDS =      -148.10966814
  atomic energy  EATOM  =      1448.48460880
  Solvation  Ediel_sol  =         0.00000000
  ---------------------------------------------------
  free energy    TOTEN  =       -32.72596959 eV

  energy without entropy =      -32.72596959  energy(sigma->0) =      -32.72596959


--------------------------------------------------------------------------------------------------------




 average (electrostatic) potential at core
  the test charge radii are     1.1631  1.0808
  (the norm of the test charge is              1.0000)
       1 -35.3695       2 -35.3695       3 -35.3695       4 -35.3695       5 -56.4175
       6 -56.4175       7 -56.4175       8 -56.4175
 
 
 
 E-fermi :   1.4674     XC(G=0):  -8.2685     alpha+bet : -6.9368

 Fermi energy:         1.4673946302

 k-point     1 :       0.0000    0.0000    0.0000
  band No.  band energies     occupation 
      1     -11.7432      2.00000
      2     -11.5607      2.00000
      3     -10.6625      2.00000
      4     -10.4567      2.00000
      5      -6.4576      2.00000
      6      -6.0345      2.00000
      7      -4.5193      2.00000
      8      -4.4586      2.00000
      9      -2.4394      2.00000
     10      -1.9035      2.00000
     11      -1.6098      2.00000
     12      -1.2304      2.00000
     13      -1.0612      2.00000
     14      -0.7091      2.00000
     15      -0.5360      2.00000
     16      -0.0827      2.00000
     17       0.6771      2.00000
     18       0.8435      2.00000
     19       0.9860      2.00000
     20       1.2186      2.00000
     21       2.7355      0.00000
     22       2.9693      0.00000
     23       3.4571      0.00000
     24       3.5811      0.00000
     25       3.6237      0.00000
     26       4.0224      0.00000
     27       4.4809      0.00000
     28       4.8801      0.00000
     29       5.7666      0.00000
     30       5.8004      0.00000
     31       6.4945      0.00000
     32       6.9834      0.00000

 k-point     2 :       0.1667    0.0000    0.0000
  band No.  band energies     occupation 
      1     -11.6634      2.00000
      2     -11.4877      2.00000
      3     -10.7145      2.00000
      4     -10.5282      2.00000
      5      -6.4603      2.00000
      6      -5.9665      2.00000
      7      -4.8296      2.00000
      8      -4.6205      2.00000
      9      -2.2689      2.00000
     10      -1.7864      2.00000
     11      -1.5058      2.00000
     12      -1.0293      2.00000
     13      -0.9573      2.00000
     14      -0.6207      2.00000
     15      -0.5520      2.00000
     16      -0.1700      2.00000
     17       0.6298      2.00000
     18       0.6655      2.00000
     19       0.8094      2.00000
     20       1.1887      2.00000
     21       2.6203      0.00000
     22       2.7818      0.00000
     23       3.2096      0.00000
     24       3.5495      0.00000
     25       3.7142      0.00000
     26       3.8027      0.00000
     27       4.3257      0.00000
     28       5.1693      0.00000
     29       5.2744      0.00000
     30       5.9957      0.00000
     31       6.0645      0.00000
     32       6.6844      0.00000

 k-point     3 :       0.3333    0.0000    0.0000
  band No.  band energies     occupation 
      1     -11.4441      2.00000
      2     -11.2868      2.00000
      3     -10.8802      2.00000
      4     -10.7303      2.00000
      5      -6.3562      2.00000
      6      -5.7734      2.00000
      7      -5.4483      2.00000
      8      -5.0155      2.00000
      9      -1.8186      2.00000
     10      -1.4591      2.00000
     11      -1.2220      2.00000
     12      -0.9065      2.00000
     13      -0.6713      2.00000
     14      -0.4503      2.00000
     15      -0.4177      2.00000
     16      -0.4099      2.00000
     17       0.1129      2.00000
     18       0.4093      2.00000
     19       0.6272      2.00000
     20       0.9269      2.00000
     21       2.1743      0.00000
     22       2.6424      0.00000
     23       2.8787      0.00000
     24       3.5353      0.00000
     25       3.5527      0.00000
     26       4.0039      0.00000
     27       4.2106      0.00000
     28       4.3946      0.00000
     29       5.2264      0.00000
     30       5.6108      0.00000
     31       5.8735      0.00000
     32       6.6316      0.00000

 k-point     4 :       0.5000    0.0000    0.0000
  band No.  band energies     occupation 
      1     -11.1496      2.00000
      2     -11.1496      2.00000
      3     -11.0099      2.00000
      4     -11.0099      2.00000
      5      -6.0143      2.00000
      6      -6.0143      2.00000
      7      -5.4444      2.00000
      8      -5.4444      2.00000
      9      -1.2120      2.00000
     10      -1.2120      2.00000
     11      -1.0138      2.00000
     12      -1.0138      2.00000
     13      -0.8422      2.00000
     14      -0.8422      2.00000
     15      -0.2032      2.00000
     16      -0.2032      2.00000
     17       0.1944      2.00000
     18       0.1944      2.00000
     19       0.4472      2.00000
     20       0.4472      2.00000
     21       2.2681      0.00000
     22       2.2681      0.00000
     23       3.1280      0.00000
     24       3.1280      0.00000
     25       3.7358      0.00000
     26       3.7358      0.00000
     27       4.5196      0.00000
     28       4.5196      0.00000
     29       4.7205      0.00000
     30       4.7205      0.00000
     31       6.5298      0.00000
     32       6.5298      0.00000

 k-point     5 :       0.0000    0.1667    0.0000
  band No.  band energies     occupation 
      1     -11.6347      2.00000
      2     -11.4635      2.00000
      3     -10.6558      2.00000
      4     -10.4884      2.00000
      5      -6.5449      2.00000
      6      -6.1450      2.00000
      7      -4.8903      2.00000
      8      -4.8041      2.00000
      9      -2.3126      2.00000
     10      -1.8676      2.00000
     11      -1.6229      2.00000
     12      -1.1502      2.00000
     13      -0.9037      2.00000
     14      -0.6307      2.00000
     15      -0.2768      2.00000
     16      -0.2247      2.00000
     17       0.6879      2.00000
     18       0.7892      2.00000
     19       0.9080      2.00000
     20       1.1422      2.00000
     21       3.2013      0.00000
     22       3.2643      0.00000
     23       3.4137      0.00000
     24       3.6888      0.00000
     25       3.7943      0.00000
     26       3.8430      0.00000
     27       4.0259      0.00000
     28       4.9113      0.00000
     29       5.1792      0.00000
     30       5.7481      0.00000
     31       6.0263      0.00000
     32       6.8382      0.00000

 k-point     6 :       0.1667    0.1667    0.0000
  band No.  band energies     occupation 
      1     -11.5600      2.00000
      2     -11.3960      2.00000
      3     -10.7014      2.00000
      4     -10.5476      2.00000
      5      -6.5206      2.00000
      6      -6.0664      2.00000
      7      -5.0494      2.00000
      8      -4.9620      2.00000
      9      -2.1759      2.00000
     10      -2.0396      2.00000
     11      -1.7318      2.00000
     12      -1.1204      2.00000
     13      -0.5703      2.00000
     14      -0.4826      2.00000
     15      -0.4101      2.00000
     16      -0.3157      2.00000
     17       0.6173      2.00000
     18       0.6653      2.00000
     19       0.7670      2.00000
     20       1.0886      2.00000
     21       3.0167      0.00000
     22       3.0356      0.00000
     23       3.2436      0.00000
     24       3.5517      0.00000
     25       3.8667      0.00000
     26       3.9618      0.00000
     27       4.3834      0.00000
     28       4.9245      0.00000
     29       5.3026      0.00000
     30       5.8064      0.00000
     31       5.8225      0.00000
     32       6.5955      0.00000

 k-point     7 :      -0.1667    0.1667    0.0000
  band No.  band energies     occupation 
      1     -11.5600      2.00000
      2     -11.3960      2.00000
      3     -10.7014      2.00000
      4     -10.5476      2.00000
      5      -6.5206      2.00000
      6      -6.0664      2.00000
      7      -5.0494      2.00000
      8      -4.9620      2.00000
      9      -2.1759      2.00000
     10      -2.0396      2.00000
     11      -1.7318      2.00000
     12      -1.1204      2.00000
     13      -0.5703      2.00000
     14      -0.4826      2.00000
     15      -0.4101      2.00000
     16      -0.3157      2.00000
     17       0.6173      2.00000
     18       0.6653      2.00000
     19       0.7670      2.00000
     20       1.0886      2.00000
     21       3.0167      0.00000
     22       3.0356      0.00000
     23       3.2436      0.00000
     24       3.5517      0.00000
     25       3.8667      0.00000
     26       3.9618      0.00000
     27       4.3834      0.00000
     28       4.9245      0.00000
     29       5.3026      0.00000
     30       5.8064      0.00000
     31       5.8225      0.00000
     32       6.5955      0.00000

 k-point     8 :       0.3333    0.1667    0.0000
  band No.  band energies     occupation 
      1     -11.3568      2.00000
      2     -11.2119      2.00000
      3     -10.8475      2.00000
      4     -10.7186      2.00000
      5      -6.3803      2.00000
      6      -5.8596      2.00000
      7      -5.5408      2.00000
      8      -5.2288      2.00000
      9      -2.1080      2.00000
     10      -1.8066      2.00000
     11      -1.7252      2.00000
     12      -1.3168      2.00000
     13      -0.9267      2.00000
     14      -0.5124      2.00000
     15      -0.2707      2.00000
     16      -0.0290      2.00000
     17       0.4613      2.00000
     18       0.5025      2.00000
     19       0.6469      2.00000
     20       1.0002      2.00000
     21       2.6282      0.00000
     22       2.8676      0.00000
     23       2.9140      0.00000
     24       3.1446      0.00000
     25       4.1758      0.00000
     26       4.3532      0.00000
     27       4.5126      0.00000
     28       4.9171      0.00000
     29       5.5590      0.00000
     30       5.5863      0.00000
     31       5.7930      0.00000
     32       6.3901      0.00000

 k-point     9 :      -0.3333    0.1667    0.0000
  band No.  band energies     occupation 
      1     -11.3568      2.00000
      2     -11.2119      2.00000
      3     -10.8475      2.00000
      4     -10.7186      2.00000
      5      -6.3803      2.00000
      6      -5.8596      2.00000
      7      -5.5408      2.00000
      8      -5.2288      2.00000
      9      -2.1080      2.00000
     10      -1.8066      2.00000
     11      -1.7252      2.00000
     12      -1.3168      2.00000
     13      -0.9267      2.00000
     14      -0.5124      2.00000
     15      -0.2707      2.00000
     16      -0.0290      2.00000
     17       0.4613      2.00000
     18       0.5025      2.00000
     19       0.6469      2.00000
     20       1.0002      2.00000
     21       2.6282      0.00000
     22       2.8676      0.00000
     23       2.9140      0.00000
     24       3.1446      0.00000
     25       4.1758      0.00000
     26       4.3532      0.00000
     27       4.5126      0.00000
     28       4.9171      0.00000
     29       5.5590      0.00000
     30       5.5863      0.00000
     31       5.7930      0.00000
     32       6.3901      0.00000

 k-point    10 :       0.5000    0.1667    0.0000
  band No.  band energies     occupation 
      1     -11.0882      2.00000
      2     -11.0882      2.00000
      3     -10.9629      2.00000
      4     -10.9629      2.00000
      5      -6.0433      2.00000
      6      -6.0433      2.00000
      7      -5.5609      2.00000
      8      -5.5609      2.00000
      9      -1.8615      2.00000
     10      -1.8615      2.00000
     11      -1.4183      2.00000
     12      -1.4183      2.00000
     13      -1.1138      2.00000
     14      -1.1138      2.00000
     15      -0.0011      2.00000
     16      -0.0011      2.00000
     17       0.4945      2.00000
     18       0.4945      2.00000
     19       0.8070      2.00000
     20       0.8070      2.00000
     21       2.5477      0.00000
     22       2.5477      0.00000
     23       2.8831      0.00000
     24       2.8831      0.00000
     25       4.5382      0.00000
     26       4.5382      0.00000
     27       4.8141      0.00000
     28       4.8141      0.00000
     29       5.1568      0.00000
     30       5.1568      0.00000
     31       6.2802      0.00000
     32       6.2802      0.00000

 k-point    11 :       0.0000    0.3333    0.0000
  band No.  band energies     occupation 
      1     -11.3390      2.00000
      2     -11.2065      2.00000
      3     -10.7010      2.00000
      4     -10.6375      2.00000
      5      -6.6280      2.00000
      6      -6.2500      2.00000
      7      -5.7184      2.00000
      8      -5.4416      2.00000
      9      -1.9764      2.00000
     10      -1.6962      2.00000
     11      -1.4559      2.00000
     12      -0.9898      2.00000
     13      -0.5257      2.00000
     14      -0.5102      2.00000
     15      -0.3106      2.00000
     16       0.0295      2.00000
     17       0.4559      2.00000
     18       0.4990      2.00000
     19       0.6879      2.00000
     20       0.7741      2.00000
     21       2.7246      0.00000
     22       3.2891      0.00000
     23       3.6035      0.00000
     24       3.9533      0.00000
     25       3.9759      0.00000
     26       4.1220      0.00000
     27       4.1761      0.00000
     28       4.4555      0.00000
     29       5.3441      0.00000
     30       5.5183      0.00000
     31       5.6904      0.00000
     32       6.4473      0.00000

 k-point    12 :       0.1667    0.3333    0.0000
  band No.  band energies     occupation 
      1     -11.2820      2.00000
      2     -11.1573      2.00000
      3     -10.7235      2.00000
      4     -10.6602      2.00000
      5      -6.5682      2.00000
      6      -6.1899      2.00000
      7      -5.7237      2.00000
      8      -5.5331      2.00000
      9      -2.0533      2.00000
     10      -1.9147      2.00000
     11      -1.7318      2.00000
     12      -1.1424      2.00000
     13      -0.7046      2.00000
     14      -0.4967      2.00000
     15      -0.3885      2.00000
     16      -0.2430      2.00000
     17       0.2610      2.00000
     18       0.5779      2.00000
     19       0.7973      2.00000
     20       0.8786      2.00000
     21       2.8848      0.00000
     22       3.2324      0.00000
     23       3.5302      0.00000
     24       3.9988      0.00000
     25       4.1888      0.00000
     26       4.4467      0.00000
     27       4.6062      0.00000
     28       5.0523      0.00000
     29       5.3799      0.00000
     30       5.6611      0.00000
     31       5.8301      0.00000
     32       6.2093      0.00000

 k-point    13 :      -0.1667    0.3333    0.0000
  band No.  band energies     occupation 
      1     -11.2820      2.00000
      2     -11.1573      2.00000
      3     -10.7235      2.00000
      4     -10.6602      2.00000
      5      -6.5682      2.00000
      6      -6.1899      2.00000
      7      -5.7237      2.00000
      8      -5.5331      2.00000
      9      -2.0533      2.00000
     10      -1.9147      2.00000
     11      -1.7318      2.00000
     12      -1.1424      2.00000
     13      -0.7046      2.00000
     14      -0.4967      2.00000
     15      -0.3885      2.00000
     16      -0.2430      2.00000
     17       0.2610      2.00000
     18       0.5779      2.00000
     19       0.7973      2.00000
     20       0.8786      2.00000
     21       2.8848      0.00000
     22       3.2324      0.00000
     23       3.5302      0.00000
     24       3.9988      0.00000
     25       4.1888      0.00000
     26       4.4467      0.00000
     27       4.6062      0.00000
     28       5.0523      0.00000
     29       5.3799      0.00000
     30       5.6611      0.00000
     31       5.8301      0.00000
     32       6.2093      0.00000

 k-point    14 :       0.3333    0.3333    0.0000
  band No.  band energies     occupation 
      1     -11.1323      2.00000
      2     -11.0290      2.00000
      3     -10.8022      2.00000
      4     -10.7373      2.00000
      5      -6.3941      2.00000
      6      -6.0360      2.00000
      7      -5.8209      2.00000
      8      -5.7274      2.00000
      9      -2.4018      2.00000
     10      -1.9544      2.00000
     11      -1.8788      2.00000
     12      -1.6290      2.00000
     13      -1.1590      2.00000
     14      -0.8330      2.00000
     15      -0.7820      2.00000
     16      -0.2670      2.00000
     17       0.0893      2.00000
     18       0.6767      2.00000
     19       0.8671      2.00000
     20       0.9291      2.00000
     21       2.7962      0.00000
     22       3.6031      0.00000
     23       3.8603      0.00000
     24       4.3951      0.00000
     25       4.8395      0.00000
     26       4.8742      0.00000
     27       5.0514      0.00000
     28       5.5106      0.00000
     29       5.5874      0.00000
     30       5.7442      0.00000
     31       5.9990      0.00000
     32       6.1934      0.00000

 k-point    15 :      -0.3333    0.3333    0.0000
  band No.  band energies     occupation 
      1     -11.1323      2.00000
      2     -11.0290      2.00000
      3     -10.8022      2.00000
      4     -10.7373      2.00000
      5      -6.3941      2.00000
      6      -6.0360      2.00000
      7      -5.8209      2.00000
      8      -5.7274      2.00000
      9      -2.4018      2.00000
     10      -1.9544      2.00000
     11      -1.8788      2.00000
     12      -1.6290      2.00000
     13      -1.1590      2.00000
     14      -0.8330      2.00000
     15      -0.7820      2.00000
     16      -0.2670      2.00000
     17       0.0893      2.00000
     18       0.6767      2.00000
     19       0.8671      2.00000
     20       0.9291      2.00000
     21       2.7962      0.00000
     22       3.6031      0.00000
     23       3.8603      0.00000
     24       4.3951      0.00000
     25       4.8395      0.00000
     26       4.8742      0.00000
     27       5.0514      0.00000
     28       5.5106      0.00000
     29       5.5874      0.00000
     30       5.7442      0.00000
     31       5.9990      0.00000
     32       6.1934      0.00000

 k-point    16 :       0.5000    0.3333    0.0000
  band No.  band energies     occupation 
      1     -10.9491      2.00000
      2     -10.9491      2.00000
      3     -10.8708      2.00000
      4     -10.8708      2.00000
      5      -6.1223      2.00000
      6      -6.1223      2.00000
      7      -5.8602      2.00000
      8      -5.8602      2.00000
      9      -2.3249      2.00000
     10      -2.3249      2.00000
     11      -1.7789      2.00000
     12      -1.7789      2.00000
     13      -1.3046      2.00000
     14      -1.3046      2.00000
     15      -0.5466      2.00000
     16      -0.5466      2.00000
     17       0.2936      2.00000
     18       0.2936      2.00000
     19       0.9177      2.00000
     20       0.9177      2.00000
     21       3.4120      0.00000
     22       3.4120      0.00000
     23       4.1334      0.00000
     24       4.1334      0.00000
     25       5.0837      0.00000
     26       5.0837      0.00000
     27       5.6133      0.00000
     28       5.6133      0.00000
     29       5.7830      0.00000
     30       5.7830      0.00000
     31       6.0685      0.00000
     32       6.0685      0.00000

 k-point    17 :       0.0000    0.5000    0.0000
  band No.  band energies     occupation 
      1     -10.9543      2.00000
      2     -10.9543      2.00000
      3     -10.9006      2.00000
      4     -10.9006      2.00000
      5      -6.3799      2.00000
      6      -6.3799      2.00000
      7      -6.0190      2.00000
      8      -6.0190      2.00000
      9      -1.6436      2.00000
     10      -1.6436      2.00000
[...]
     32       5.8380      0.00000

 k-point    32 :       0.1667    0.3333    0.5000
  band No.  band energies     occupation 
      1     -11.2249      2.00000
      2     -11.2249      2.00000
      3     -10.6867      2.00000
      4     -10.6867      2.00000
      5      -6.3921      2.00000
      6      -6.3921      2.00000
      7      -5.6286      2.00000
      8      -5.6286      2.00000
      9      -1.9485      2.00000
     10      -1.9485      2.00000
     11      -1.4055      2.00000
     12      -1.4055      2.00000
     13      -0.6457      2.00000
     14      -0.6457      2.00000
     15      -0.3014      2.00000
     16      -0.3014      2.00000
     17       0.2802      2.00000
     18       0.2802      2.00000
     19       0.8601      2.00000
     20       0.8601      2.00000
     21       3.3001      0.00000
     22       3.3001      0.00000
     23       3.8303      0.00000
     24       3.8303      0.00000
     25       4.0272      0.00000
     26       4.0272      0.00000
     27       5.0331      0.00000
     28       5.0331      0.00000
     29       5.5160      0.00000
     30       5.5160      0.00000
     31       5.8254      0.00000
     32       5.8254      0.00000

 k-point    33 :      -0.1667    0.3333    0.5000
  band No.  band energies     occupation 
      1     -11.2249      2.00000
      2     -11.2249      2.00000
      3     -10.6867      2.00000
      4     -10.6867      2.00000
      5      -6.3921      2.00000
      6      -6.3921      2.00000
      7      -5.6286      2.00000
      8      -5.6286      2.00000
      9      -1.9485      2.00000
     10      -1.9485      2.00000
     11      -1.4055      2.00000
     12      -1.4055      2.00000
     13      -0.6457      2.00000
     14      -0.6457      2.00000
     15      -0.3014      2.00000
     16      -0.3014      2.00000
     17       0.2802      2.00000
     18       0.2802      2.00000
     19       0.8601      2.00000
     20       0.8601      2.00000
     21       3.3001      0.00000
     22       3.3001      0.00000
     23       3.8303      0.00000
     24       3.8303      0.00000
     25       4.0272      0.00000
     26       4.0272      0.00000
     27       5.0331      0.00000
     28       5.0331      0.00000
     29       5.5160      0.00000
     30       5.5160      0.00000
     31       5.8254      0.00000
     32       5.8254      0.00000

 k-point    34 :       0.3333    0.3333    0.5000
  band No.  band energies     occupation 
      1     -11.0865      2.00000
      2     -11.0865      2.00000
      3     -10.7641      2.00000
      4     -10.7641      2.00000
      5      -6.2367      2.00000
      6      -6.2367      2.00000
      7      -5.7592      2.00000
      8      -5.7592      2.00000
      9      -2.2126      2.00000
     10      -2.2126      2.00000
     11      -1.5674      2.00000
     12      -1.5674      2.00000
     13      -1.2045      2.00000
     14      -1.2045      2.00000
     15      -0.6100      2.00000
     16      -0.6100      2.00000
     17       0.4576      2.00000
     18       0.4576      2.00000
     19       0.9418      2.00000
     20       0.9418      2.00000
     21       3.4844      0.00000
     22       3.4844      0.00000
     23       4.0869      0.00000
     24       4.0869      0.00000
     25       4.6477      0.00000
     26       4.6477      0.00000
     27       5.0856      0.00000
     28       5.0856      0.00000
     29       5.6201      0.00000
     30       5.6201      0.00000
     31       6.0386      0.00000
     32       6.0386      0.00000

 k-point    35 :      -0.3333    0.3333    0.5000
  band No.  band energies     occupation 
      1     -11.0865      2.00000
      2     -11.0865      2.00000
      3     -10.7641      2.00000
      4     -10.7641      2.00000
      5      -6.2367      2.00000
      6      -6.2367      2.00000
      7      -5.7592      2.00000
      8      -5.7592      2.00000
      9      -2.2126      2.00000
     10      -2.2126      2.00000
     11      -1.5674      2.00000
     12      -1.5674      2.00000
     13      -1.2045      2.00000
     14      -1.2045      2.00000
     15      -0.6100      2.00000
     16      -0.6100      2.00000
     17       0.4576      2.00000
     18       0.4576      2.00000
     19       0.9418      2.00000
     20       0.9418      2.00000
     21       3.4844      0.00000
     22       3.4844      0.00000
     23       4.0869      0.00000
     24       4.0869      0.00000
     25       4.6477      0.00000
     26       4.6477      0.00000
     27       5.0856      0.00000
     28       5.0856      0.00000
     29       5.6201      0.00000
     30       5.6201      0.00000
     31       6.0386      0.00000
     32       6.0386      0.00000

 k-point    36 :       0.5000    0.3333    0.5000
  band No.  band energies     occupation 
      1     -10.9468      2.00000
      2     -10.9468      2.00000
      3     -10.8733      2.00000
      4     -10.8733      2.00000
      5      -6.0968      2.00000
      6      -6.0968      2.00000
      7      -5.8906      2.00000
      8      -5.8906      2.00000
      9      -2.0945      2.00000
     10      -2.0945      2.00000
     11      -2.0401      2.00000
     12      -2.0401      2.00000
     13      -1.0751      2.00000
     14      -1.0751      2.00000
     15      -0.9625      2.00000
     16      -0.9625      2.00000
     17       0.6559      2.00000
     18       0.6559      2.00000
     19       0.8122      2.00000
     20       0.8122      2.00000
     21       3.9173      0.00000
     22       3.9173      0.00000
     23       3.9412      0.00000
     24       3.9412      0.00000
     25       4.8258      0.00000
     26       4.8258      0.00000
     27       4.9966      0.00000
     28       4.9966      0.00000
     29       5.9040      0.00000
     30       5.9040      0.00000
     31       6.0270      0.00000
     32       6.0270      0.00000

 k-point    37 :       0.0000    0.5000    0.5000
  band No.  band energies     occupation 
      1     -10.9279      2.00000
      2     -10.9279      2.00000
      3     -10.9279      2.00000
      4     -10.9279      2.00000
      5      -6.2082      2.00000
      6      -6.2082      2.00000
      7      -6.2082      2.00000
      8      -6.2082      2.00000
      9      -1.3283      2.00000
     10      -1.3283      2.00000
     11      -1.3283      2.00000
     12      -1.3283      2.00000
     13      -0.2715      2.00000
     14      -0.2715      2.00000
     15      -0.2715      2.00000
     16      -0.2715      2.00000
     17       0.3111      2.00000
     18       0.3111      2.00000
     19       0.3111      2.00000
     20       0.3111      2.00000
     21       3.3507      0.00000
     22       3.3507      0.00000
     23       3.3507      0.00000
     24       3.3507      0.00000
     25       4.2182      0.00000
     26       4.2182      0.00000
     27       4.2182      0.00000
     28       4.2182      0.00000
     29       5.6710      0.00000
     30       5.6710      0.00000
     31       5.6710      0.00000
     32       5.6710      0.00000

 k-point    38 :       0.1667    0.5000    0.5000
  band No.  band energies     occupation 
      1     -10.9083      2.00000
      2     -10.9083      2.00000
      3     -10.9083      2.00000
      4     -10.9083      2.00000
      5      -6.1825      2.00000
      6      -6.1825      2.00000
      7      -6.1825      2.00000
      8      -6.1825      2.00000
      9      -1.5591      2.00000
     10      -1.5591      2.00000
     11      -1.5591      2.00000
     12      -1.5591      2.00000
     13      -0.6430      2.00000
     14      -0.6430      2.00000
     15      -0.6430      2.00000
     16      -0.6430      2.00000
     17       0.5418      2.00000
     18       0.5418      2.00000
     19       0.5418      2.00000
     20       0.5418      2.00000
     21       3.5131      0.00000
     22       3.5131      0.00000
     23       3.5131      0.00000
     24       3.5131      0.00000
     25       4.7480      0.00000
     26       4.7480      0.00000
     27       4.7480      0.00000
     28       4.7480      0.00000
     29       5.6124      0.00000
     30       5.6124      0.00000
     31       5.6124      0.00000
     32       5.6124      0.00000

 k-point    39 :       0.3333    0.5000    0.5000
  band No.  band energies     occupation 
      1     -10.8684      2.00000
      2     -10.8684      2.00000
      3     -10.8684      2.00000
      4     -10.8684      2.00000
      5      -6.1324      2.00000
      6      -6.1324      2.00000
      7      -6.1324      2.00000
      8      -6.1324      2.00000
      9      -1.8753      2.00000
     10      -1.8753      2.00000
     11      -1.8753      2.00000
     12      -1.8753      2.00000
     13      -1.1992      2.00000
     14      -1.1992      2.00000
     15      -1.1992      2.00000
     16      -1.1992      2.00000
     17       0.7141      2.00000
     18       0.7141      2.00000
     19       0.7141      2.00000
     20       0.7141      2.00000
     21       4.1011      0.00000
     22       4.1011      0.00000
     23       4.1011      0.00000
     24       4.1011      0.00000
     25       5.0272      0.00000
     26       5.0272      0.00000
     27       5.0272      0.00000
     28       5.0272      0.00000
     29       6.0833      0.00000
     30       6.0833      0.00000
     31       6.0833      0.00000
     32       6.0833      0.00000

 k-point    40 :       0.5000    0.5000    0.5000
  band No.  band energies     occupation 
      1     -10.8479      2.00000
      2     -10.8479      2.00000
      3     -10.8479      2.00000
      4     -10.8479      2.00000
      5      -6.1082      2.00000
      6      -6.1082      2.00000
      7      -6.1082      2.00000
      8      -6.1082      2.00000
      9      -1.9516      2.00000
     10      -1.9516      2.00000
     11      -1.9516      2.00000
     12      -1.9516      2.00000
     13      -1.4964      2.00000
     14      -1.4964      2.00000
     15      -1.4964      2.00000
     16      -1.4964      2.00000
     17       0.7763      2.00000
     18       0.7763      2.00000
     19       0.7763      2.00000
     20       0.7763      2.00000
     21       4.3077      0.00000
     22       4.3077      0.00000
     23       4.3077      0.00000
     24       4.3077      0.00000
     25       5.1242      0.00000
     26       5.1242      0.00000
     27       5.1242      0.00000
     28       5.1242      0.00000
     29       6.4961      0.00000
     30       6.4961      0.00000
     31       6.4961      0.00000
     32       6.4961      0.00000


--------------------------------------------------------------------------------------------------------


 soft charge-density along one line, spin component            1
         0         1         2         3         4         5         6         7         8         9
 total charge-density along one line
 
 pseudopotential strength for first ion, spin component:            1
 15.065  18.812   0.000   0.053   0.026   0.000   0.096   0.047
 18.812  23.506   0.000   0.067   0.033   0.000   0.121   0.060
  0.000   0.000   3.314  -0.000  -0.000   5.649  -0.000  -0.000
  0.053   0.067  -0.000   3.307   0.001  -0.000   5.636   0.001
  0.026   0.033  -0.000   0.001   3.316  -0.000   0.001   5.652
  0.000   0.000   5.649  -0.000  -0.000   9.687  -0.000  -0.000
  0.096   0.121  -0.000   5.636   0.001  -0.000   9.666   0.001
  0.047   0.060  -0.000   0.001   5.652  -0.000   0.001   9.693
 -0.000  -0.000   0.002   0.000   0.000   0.005   0.000   0.000
 -0.000  -0.000   0.013   0.000   0.000   0.025   0.000   0.000
 -0.010  -0.013   0.000   0.014  -0.001   0.000   0.026  -0.002
  0.001   0.001   0.000   0.009   0.013   0.000   0.016   0.024
  0.003   0.003   0.000  -0.000   0.008   0.000  -0.000   0.015
 total augmentation occupancy for first ion, spin component:            1
  2.427  -0.486   0.000   0.437   0.116  -0.000  -0.076  -0.004  -0.000  -0.000   0.021  -0.032  -0.013
 -0.486   0.530  -0.000  -0.562  -0.219  -0.000   0.084   0.025   0.000   0.000  -0.017   0.030   0.017
  0.000  -0.000   1.000  -0.000   0.000  -0.155   0.000  -0.000   0.093   0.033   0.000   0.000   0.000
  0.437  -0.562  -0.000   1.376  -0.112   0.000  -0.205   0.032  -0.000  -0.000   0.121  -0.062   0.004
  0.116  -0.219   0.000  -0.112   0.885  -0.000   0.032  -0.126  -0.000   0.000  -0.077   0.052  -0.030
 -0.000  -0.000  -0.155   0.000  -0.000   0.027  -0.000   0.000  -0.015  -0.005   0.000  -0.000  -0.000
 -0.076   0.084   0.000  -0.205   0.032  -0.000   0.036  -0.008  -0.000   0.000  -0.021   0.010  -0.001
 -0.004   0.025  -0.000   0.032  -0.126   0.000  -0.008   0.020  -0.000  -0.000   0.012  -0.008   0.004
 -0.000   0.000   0.093  -0.000  -0.000  -0.015  -0.000  -0.000   0.016  -0.000   0.000   0.000   0.000
 -0.000   0.000   0.033  -0.000   0.000  -0.005   0.000  -0.000  -0.000   0.008   0.000  -0.000  -0.000
  0.021  -0.017   0.000   0.121  -0.077   0.000  -0.021   0.012   0.000   0.000   0.025  -0.008   0.005
 -0.032   0.030   0.000  -0.062   0.052  -0.000   0.010  -0.008   0.000  -0.000  -0.008   0.012  -0.003
 -0.013   0.017   0.000   0.004  -0.030  -0.000  -0.001   0.004   0.000  -0.000   0.005  -0.003   0.007


------------------------ aborting loop because EDIFF is reached ----------------------------------------


    CHARGE:  cpu time      0.0036: real time      0.0036
    FORLOC:  cpu time      0.0002: real time      0.0002
    FORNL :  cpu time      0.0250: real time      0.0251
    STRESS:  cpu time      0.2269: real time      0.2281
    FORCOR:  cpu time      0.0038: real time      0.0038
    FORHAR:  cpu time      0.0010: real time      0.0010
    MIXING:  cpu time      0.0004: real time      0.0004
    OFIELD:  cpu time      0.0000: real time      0.0000

  FORCE on cell =-STRESS in cart. coord.  units (eV):
  Direction    XX          YY          ZZ          XY          YZ          ZX
  --------------------------------------------------------------------------------------
  Alpha Z    69.63105    69.63105    69.63105
  Ewald    -478.23966  -376.00978  -437.44029    -0.00000     0.00000    -0.00000
  Hartree    54.30132    91.28874    43.60473    -0.00000     0.00000     0.00000
  E(xc)    -139.06049  -138.45945  -139.68064     0.00000    -0.00000     0.00000
  Local    -126.46757  -258.67452  -159.98760     0.00000    -0.00000     0.00000
  n-local   234.25264   234.72583   242.00732     0.00000     0.00000    -0.00000
  augment   -11.90271   -11.24781   -12.42015    -0.00000    -0.00000     0.00000
  Kinetic   393.34706   378.06799   393.07379    -0.00000     0.00000    -0.00000
  Fock        0.00000     0.00000     0.00000     0.00000     0.00000     0.00000
  -------------------------------------------------------------------------------------
  Total      -4.13837   -10.67795    -1.21179     0.00000     0.00000    -0.00000
  in kB     -27.24679   -70.30304    -7.97833     0.00000     0.00000    -0.00000
  external pressure =      -35.18 kB  Pullay stress =        0.00 kB


 VOLUME and BASIS-vectors are now :
 -----------------------------------------------------------------------------
  energy-cutoff  :      360.00
  volume of cell :      243.35
      direct lattice vectors                 reciprocal lattice vectors
     4.800000000  0.000000000  0.000000000     0.208333333  0.000000000  0.000000000
     0.000000000  4.550000000  0.000000000     0.000000000  0.219780220  0.000000000
     0.000000000  0.000000000 11.142221000     0.000000000  0.000000000  0.089748713

  length of vectors
     4.800000000  4.550000000 11.142221000     0.208333333  0.219780220  0.089748713


 FORCES acting on ions
    electron-ion (+dipol)            ewald-force                    non-local-force                 convergence-correction
 -----------------------------------------------------------------------------------------------
   0.789E+01 0.291E-07 0.306E+02   -.101E+02 0.936E-15 -.339E+02   0.230E+01 -.328E-07 0.338E+01   0.186E-04 -.157E-07 0.109E-03
   0.789E+01 0.664E-08 -.306E+02   -.101E+02 -.171E-14 0.339E+02   0.230E+01 -.268E-07 -.338E+01   0.187E-04 -.919E-08 -.109E-03
   -.789E+01 -.247E-07 -.306E+02   0.101E+02 -.707E-15 0.339E+02   -.230E+01 0.324E-07 -.338E+01   -.186E-04 0.200E-07 -.109E-03
   -.789E+01 -.190E-07 0.306E+02   0.101E+02 0.135E-14 -.339E+02   -.230E+01 0.293E-07 0.338E+01   -.187E-04 0.827E-08 0.109E-03
   -.679E+01 0.537E-06 -.324E+02   0.794E+01 0.550E-15 0.345E+02   -.124E+01 -.277E-06 -.210E+01   0.479E-04 -.889E-07 0.126E-04
   -.679E+01 0.472E-06 0.324E+02   0.794E+01 0.457E-15 -.345E+02   -.124E+01 -.237E-06 0.210E+01   0.478E-04 -.701E-07 -.126E-04
   0.679E+01 -.452E-06 0.324E+02   -.794E+01 0.572E-15 -.345E+02   0.124E+01 0.230E-06 0.210E+01   -.478E-04 0.700E-07 -.125E-04
   0.679E+01 -.474E-06 -.324E+02   -.794E+01 0.504E-15 0.345E+02   0.124E+01 0.245E-06 -.210E+01   -.478E-04 0.416E-07 0.125E-04
 -----------------------------------------------------------------------------------------------
   -.285E-06 0.752E-07 0.132E-06   0.178E-14 0.196E-14 0.213E-13   0.142E-06 -.373E-07 -.616E-07   0.644E-07 -.440E-07 -.220E-07
 
 
 POSITION                                       TOTAL-FORCE (eV/Angst)
 -----------------------------------------------------------------------------------
      0.52687      1.13750      1.51063         0.098623     -0.000000      0.046790
      2.92687      3.41250      4.06048         0.098623     -0.000000     -0.046792
      4.27313      3.41250      9.63159        -0.098623      0.000000     -0.046790
      1.87313      1.13750      7.08174        -0.098623      0.000000      0.046792
      4.51688      1.13750      3.90057        -0.085582      0.000000     -0.023781
      2.11688      3.41250      1.67054        -0.085582      0.000000      0.023781
      0.28312      3.41250      7.24165         0.085582     -0.000000      0.023781
      2.68312      1.13750      9.47168         0.085582     -0.000000     -0.023781
 -----------------------------------------------------------------------------------
    total drift:                               -0.000000     -0.000000      0.000000


--------------------------------------------------------------------------------------------------------



  FREE ENERGIE OF THE ION-ELECTRON SYSTEM (eV)
  ---------------------------------------------------
  free  energy   TOTEN  =       -32.72596959 eV

  energy  without entropy=      -32.72596959  energy(sigma->0) =      -32.72596959
 


--------------------------------------------------------------------------------------------------------


    POTLOK:  cpu time      0.1134: real time      0.1138


--------------------------------------------------------------------------------------------------------


     LOOP+:  cpu time      5.4995: real time      5.5452
    4ORBIT:  cpu time      0.0000: real time      0.0000

 total amount of memory used by VASP MPI-rank0    40576. kBytes
=======================================================================

   base      :      30000. kBytes
   nonl-proj :       8245. kBytes
   fftplans  :        418. kBytes
   grid      :        607. kBytes
   one-center:         16. kBytes
   wavefun   :       1290. kBytes
 
  
  
 General timing and accounting informations for this job:
 ========================================================
  
                  Total CPU time used (sec):        6.456
                            User time (sec):        6.061
                          System time (sec):        0.395
                         Elapsed time (sec):        7.770
  
                   Maximum memory used (kb):      195964.
                   Average memory used (kb):          N/A
  
                          Minor page faults:        22255
                          Major page faults:           29
                 Voluntary context switches:         4579
