 running  128 mpi-ranks, with    1 threads/rank, on    2 nodes
 distrk:  each k-point on   64 cores,    2 groups
 distr:  one band on    4 cores,   16 groups
 vasp.6.4.2 20Jul23 (build Oct 12 2023 10:31:02) complex                         
 POSCAR found type information on POSCAR GeSe
 POSCAR found :  2 types and       8 ions
 Reading from existing POTCAR
 scaLAPACK will be used
 Reading from existing POTCAR
 LDA part: xc-table for Pade appr. of Perdew
 POSCAR, INCAR and KPOINTS ok, starting setup
 FFT: planning ... GRIDC
 FFT: planning ... GRID_SOFT
 FFT: planning ... GRID
 WAVECAR not read
 entering main loop
       N       E                     dE             d eps       ncg     rms          rms(c)
DAV:   1     0.135852157134E+03    0.13585E+03   -0.12386E+04  2560   0.753E+02
DAV:   2    -0.230883271562E+02   -0.15894E+03   -0.15386E+03  3760   0.135E+02
DAV:   3    -0.334110523910E+02   -0.10323E+02   -0.10296E+02  3152   0.402E+01
DAV:   4    -0.334970037766E+02   -0.85951E-01   -0.85944E-01  3136   0.424E+00
DAV:   5    -0.334976120879E+02   -0.60831E-03   -0.60831E-03  3168   0.350E-01    0.605E+00
DAV:   6    -0.327313797220E+02    0.76623E+00   -0.18215E+00  2832   0.426E+00    0.365E+00
DAV:   7    -0.327261396337E+02    0.52401E-02   -0.31605E-01  2848   0.197E+00    0.177E+00
DAV:   8    -0.327260379808E+02    0.10165E-03   -0.33679E-02  2960   0.735E-01    0.195E-01
DAV:   9    -0.327255852950E+02    0.45269E-03   -0.71811E-03  3088   0.331E-01    0.865E-02
DAV:  10    -0.327259122630E+02   -0.32697E-03   -0.87047E-04  2800   0.125E-01    0.314E-02
DAV:  11    -0.327259653615E+02   -0.53098E-04   -0.67791E-05  3152   0.372E-02    0.169E-02
DAV:  12    -0.327259684167E+02   -0.30552E-05   -0.17969E-05  2880   0.169E-02    0.360E-03
DAV:  13    -0.327259694600E+02   -0.10432E-05   -0.21801E-06  2480   0.548E-03    0.150E-03
DAV:  14    -0.327259695902E+02   -0.13020E-06   -0.23784E-07  1280   0.210E-03
   1 F= -.32725970E+02 E0= -.32725970E+02  d E =-.694014E-14
