 vasp.6.4.2 20Jul23 (build Oct 12 2023 10:31:02) complex                         
 executed on              LinuxNV date 2025.05.17  05:56:40
 running  160 mpi-ranks, with    1 threads/rank, on   10 nodes
 distrk:  each k-point on   80 cores,    2 groups
 distr:  one band on NCORE=   5 cores,   16 groups


--------------------------------------------------------------------------------------------------------


 INCAR:
   ENCUT = 360.000000
   SIGMA = 0.050000
   EDIFF = 1.00e-06
   ALGO = Normal
   GGA = PE
   PREC = Normal
   SYSTEM = ./
   ICHARG = 2
   ISMEAR = 0
   ISPIN = 1
   ISTART = 0
   ISYM = 0
   KPAR = 2
   LMAXMIX = 4
   NELM = 100
   NPAR = 16
   LASPH = .TRUE.
   LCHARG = .FALSE.
   LWAVE = .FALSE.

 POTCAR:    PAW_PBE Ge 05Jan2001                  
 POTCAR:    PAW_PBE Se 06Sep2000                  
 POTCAR:    PAW_PBE Ge 05Jan2001                  
   VRHFIN =Ge: s2p2                                                                                 
   LEXCH  = PE                                                                                      
   EATOM  =   104.9960 eV,    7.7170 Ry                                                             
                                                                                                    
   TITEL  = PAW_PBE Ge 05Jan2001                                                                    
   LULTRA =        F    use ultrasoft PP ?                                                          
   IUNSCR =        1    unscreen: 0-lin 1-nonlin 2-no                                               
   RPACOR =    2.170    partial core radius                                                         
   POMASS =   72.610; ZVAL   =    4.000    mass and valenz                                          
   RCORE  =    2.300    outmost cutoff radius                                                       
   RWIGS  =    2.300; RWIGS  =    1.217    wigner-seitz radius (au A)                               
   ENMAX  =  173.807; ENMIN  =  130.355 eV                                                          
   ICORE  =        3    local potential                                                             
   LCOR   =        T    correct aug charges                                                         
   LPAW   =        T    paw PP                                                                      
   EAUG   =  385.843                                                                                
   DEXC   =    0.000                                                                                
   RMAX   =    2.342    core radius for proj-oper                                                   
   RAUG   =    1.300    factor for augmentation sphere                                              
   RDEP   =    2.318    radius for radial grids                                                     
   RDEPT  =    2.103    core radius for aug-charge                                                  
                                                                                                    
   Atomic configuration                                                                             
   10 entries                                                                                       
     n  l   j            E        occ.                                                              
     1  0  0.50    -10959.8463   2.0000                                                             
     2  0  0.50     -1371.6056   2.0000                                                             
     2  1  1.50     -1198.4791   6.0000                                                             
     3  0  0.50      -168.4733   2.0000                                                             
     3  1  1.50      -115.6019   6.0000                                                             
     3  2  2.50       -29.3106  10.0000                                                             
     4  0  0.50       -11.7309   2.0000                                                             
     4  1  0.50        -3.8952   2.0000                                                             
     4  2  1.50        -4.0817   0.0000                                                             
     4  3  2.50        -4.0817   0.0000                                                             
   Description                                                                                      
     l       E           TYP  RCUT    TYP  RCUT                                                     
     0    -11.7309493     23  2.300                                                                 
     0     -7.4578696     23  2.300                                                                 
     1     -3.8952261     23  2.300                                                                 
     1      6.1178114     23  2.300                                                                 
     2     -4.0817478     23  2.300                                                                 
     3     -1.3605826      7  2.300                                                                 
  local pseudopotential read in
  partial core-charges read in
  partial kinetic energy density read in
  atomic valenz-charges read in
  non local Contribution for L=            0  read in
    real space projection operators read in
  non local Contribution for L=            0  read in
    real space projection operators read in
  non local Contribution for L=            1  read in
    real space projection operators read in
  non local Contribution for L=            1  read in
    real space projection operators read in
  non local Contribution for L=            2  read in
    real space projection operators read in
    PAW grid and wavefunctions read in
 
   number of l-projection  operators is LMAX  =            5
   number of lm-projection operators is LMMAX =           13
 
 POTCAR:    PAW_PBE Se 06Sep2000                  
   VRHFIN =Se: s2p4                                                                                 
   LEXCH  = PE                                                                                      
   EATOM  =   257.1286 eV,   18.8984 Ry                                                             
                                                                                                    
   TITEL  = PAW_PBE Se 06Sep2000                                                                    
   LULTRA =        F    use ultrasoft PP ?                                                          
   IUNSCR =        1    unscreen: 0-lin 1-nonlin 2-no                                               
   RPACOR =    1.900    partial core radius                                                         
   POMASS =   78.960; ZVAL   =    6.000    mass and valenz                                          
   RCORE  =    2.100    outmost cutoff radius                                                       
   RWIGS  =    2.200; RWIGS  =    1.164    wigner-seitz radius (au A)                               
   ENMAX  =  211.555; ENMIN  =  158.666 eV                                                          
   ICORE  =        3    local potential                                                             
   LCOR   =        T    correct aug charges                                                         
   LPAW   =        T    paw PP                                                                      
   EAUG   =  446.842                                                                                
   DEXC   =    0.000                                                                                
   RMAX   =    2.147    core radius for proj-oper                                                   
   RAUG   =    1.300    factor for augmentation sphere                                              
   RDEP   =    2.177    radius for radial grids                                                     
   RDEPT  =    1.928    core radius for aug-charge                                                  
                                                                                                    
   Atomic configuration                                                                             
   10 entries                                                                                       
     n  l   j            E        occ.                                                              
     1  0  0.50    -12503.4787   2.0000                                                             
     2  0  0.50     -1606.9547   2.0000                                                             
     2  1  1.50     -1413.3140   6.0000                                                             
     3  0  0.50      -213.4885   2.0000                                                             
     3  1  1.50      -152.9538   6.0000                                                             
     3  2  2.50       -53.1221  10.0000                                                             
     4  0  0.50       -17.2865   2.0000                                                             
     4  1  0.50        -6.5110   4.0000                                                             
     4  2  2.50        -6.8029   0.0000                                                             
     4  3  2.50        -6.8029   0.0000                                                             
   Description                                                                                      
     l       E           TYP  RCUT    TYP  RCUT                                                     
     0    -17.2865377     23  2.100                                                                 
     0    -15.3094411     23  2.100                                                                 
     1     -6.5110275     23  2.100                                                                 
     1     -0.0695192     23  2.100                                                                 
     2     -6.8029130     23  2.100                                                                 
     3     -1.3605826      7  2.100                                                                 
  local pseudopotential read in
  partial core-charges read in
  partial kinetic energy density read in
  atomic valenz-charges read in
  non local Contribution for L=            0  read in
    real space projection operators read in
  non local Contribution for L=            0  read in
    real space projection operators read in
  non local Contribution for L=            1  read in
    real space projection operators read in
  non local Contribution for L=            1  read in
    real space projection operators read in
  non local Contribution for L=            2  read in
    real space projection operators read in
    PAW grid and wavefunctions read in
 
   number of l-projection  operators is LMAX  =            5
   number of lm-projection operators is LMMAX =           13
 
  PAW_PBE Ge 05Jan2001                  :
 energy of atom  1       EATOM= -104.9960
 kinetic energy error for atom=    0.0005 (will be added to EATOM!!)
  PAW_PBE Se 06Sep2000                  :
 energy of atom  2       EATOM= -257.1286
 kinetic energy error for atom=    0.0030 (will be added to EATOM!!)
 
 
 POSCAR: Ge Se
  positions in cartesian coordinates
  No initial velocities read in
 exchange correlation table for  LEXCH =        8
   RHO(1)=    0.500       N(1)  =     2000
   RHO(2)=  100.500       N(2)  =     4000
 


--------------------------------------------------------------------------------------------------------


 ion  position               nearest neighbor table
   1  0.496  0.438  0.116-   5 2.58   6 2.59   6 2.59
   2  0.996  0.938  0.384-   6 2.58   5 2.59   5 2.59
   3  0.750  0.881  0.884-   7 2.58   8 2.59   8 2.59
   4  0.250  0.381  0.616-   8 2.58   7 2.59   7 2.59
   5  0.496  0.314  0.355-   1 2.58   2 2.59   2 2.59
   6  0.996  0.814  0.145-   2 2.58   1 2.59   1 2.59
   7  0.750  0.005  0.645-   3 2.58   4 2.59   4 2.59
   8  0.250  0.505  0.855-   4 2.58   3 2.59   3 2.59
 

IMPORTANT INFORMATION: All symmetrisations will be switched off!
NOSYMM: (Re-)initialisation of all symmetry stuff for point group C_1.


----------------------------------------------------------------------------------------

                                     Primitive cell                                     

  volume of cell :     184.8593

  direct lattice vectors                    reciprocal lattice vectors
     3.858100176  0.000000000  0.000000000     0.259194929  0.000000000  0.000000000
     0.000000000  4.526575088  0.000000000     0.000000000  0.220917577  0.000000000
     0.000000000  0.000000000 10.585176468     0.000000000  0.000000000  0.094471736

  length of vectors
     3.858100176  4.526575088 10.585176468     0.259194929  0.220917577  0.094471736

  position of ions in fractional coordinates (direct lattice)
     0.496376521  0.438036703  0.116293234
     0.996376569  0.938036728  0.383706663
     0.749999529  0.880803548  0.883706698
     0.249998913  0.380803590  0.616293301
     0.496376592  0.313781790  0.354521754
     0.996376471  0.813781891  0.145478256
     0.749999119  0.005058363  0.645478205
     0.249999423  0.505058446  0.854521738

  ion indices of the primitive-cell ions
   primitive index   ion index
                 1           1
                 2           2
                 3           3
                 4           4
                 5           5
                 6           6
                 7           7
                 8           8

----------------------------------------------------------------------------------------

 
 
 KPOINTS: KPOINTS created by Atomic Simulation Env

Automatic generation of k-mesh.
 Grid dimensions read from file:
 generate k-points for:    6    6    2

 Generating k-lattice:

  Cartesian coordinates                     Fractional coordinates (reciprocal lattice)
     0.043199155  0.000000000  0.000000000     0.166666667  0.000000000  0.000000000
     0.000000000  0.036819596  0.000000000     0.000000000  0.166666667  0.000000000
     0.000000000  0.000000000  0.047235868     0.000000000  0.000000000  0.500000000

  Length of vectors
     0.043199155  0.036819596  0.047235868

  Shift w.r.t. Gamma in fractional coordinates (k-lattice)
     0.000000000  0.000000000  0.000000000

 
 Subroutine IBZKPT returns following result:
 ===========================================
 
 Found     40 irreducible k-points:
 
 Following reciprocal coordinates:
            Coordinates               Weight
  0.000000  0.000000  0.000000      1.000000
  0.166667  0.000000  0.000000      2.000000
  0.333333  0.000000  0.000000      2.000000
  0.500000  0.000000  0.000000      1.000000
  0.000000  0.166667  0.000000      2.000000
  0.166667  0.166667  0.000000      2.000000
  0.166667 -0.166667  0.000000      2.000000
  0.333333  0.166667  0.000000      2.000000
  0.333333 -0.166667  0.000000      2.000000
  0.500000  0.166667  0.000000      2.000000
  0.000000  0.333333  0.000000      2.000000
  0.166667  0.333333  0.000000      2.000000
  0.166667 -0.333333  0.000000      2.000000
  0.333333  0.333333  0.000000      2.000000
  0.333333 -0.333333  0.000000      2.000000
  0.500000  0.333333  0.000000      2.000000
  0.000000  0.500000  0.000000      1.000000
  0.166667  0.500000  0.000000      2.000000
  0.333333  0.500000  0.000000      2.000000
  0.500000  0.500000  0.000000      1.000000
  0.000000  0.000000  0.500000      1.000000
  0.166667  0.000000  0.500000      2.000000
  0.333333  0.000000  0.500000      2.000000
  0.500000  0.000000  0.500000      1.000000
  0.000000  0.166667  0.500000      2.000000
  0.166667  0.166667  0.500000      2.000000
  0.166667 -0.166667  0.500000      2.000000
  0.333333  0.166667  0.500000      2.000000
  0.333333 -0.166667  0.500000      2.000000
  0.500000  0.166667  0.500000      2.000000
  0.000000  0.333333  0.500000      2.000000
  0.166667  0.333333  0.500000      2.000000
  0.166667 -0.333333  0.500000      2.000000
  0.333333  0.333333  0.500000      2.000000
  0.333333 -0.333333  0.500000      2.000000
  0.500000  0.333333  0.500000      2.000000
  0.000000  0.500000  0.500000      1.000000
  0.166667  0.500000  0.500000      2.000000
  0.333333  0.500000  0.500000      2.000000
  0.500000  0.500000  0.500000      1.000000
 
 Following cartesian coordinates:
            Coordinates               Weight
  0.000000  0.000000  0.000000      1.000000
  0.043199  0.000000  0.000000      2.000000
  0.086398  0.000000  0.000000      2.000000
  0.129597  0.000000  0.000000      1.000000
  0.000000  0.036820  0.000000      2.000000
  0.043199  0.036820  0.000000      2.000000
  0.043199 -0.036820  0.000000      2.000000
  0.086398  0.036820  0.000000      2.000000
  0.086398 -0.036820  0.000000      2.000000
  0.129597  0.036820  0.000000      2.000000
  0.000000  0.073639  0.000000      2.000000
  0.043199  0.073639  0.000000      2.000000
  0.043199 -0.073639  0.000000      2.000000
  0.086398  0.073639  0.000000      2.000000
  0.086398 -0.073639  0.000000      2.000000
  0.129597  0.073639  0.000000      2.000000
  0.000000  0.110459  0.000000      1.000000
  0.043199  0.110459  0.000000      2.000000
  0.086398  0.110459  0.000000      2.000000
  0.129597  0.110459  0.000000      1.000000
  0.000000  0.000000  0.047236      1.000000
  0.043199  0.000000  0.047236      2.000000
  0.086398  0.000000  0.047236      2.000000
  0.129597  0.000000  0.047236      1.000000
  0.000000  0.036820  0.047236      2.000000
  0.043199  0.036820  0.047236      2.000000
  0.043199 -0.036820  0.047236      2.000000
  0.086398  0.036820  0.047236      2.000000
  0.086398 -0.036820  0.047236      2.000000
  0.129597  0.036820  0.047236      2.000000
  0.000000  0.073639  0.047236      2.000000
  0.043199  0.073639  0.047236      2.000000
  0.043199 -0.073639  0.047236      2.000000
  0.086398  0.073639  0.047236      2.000000
  0.086398 -0.073639  0.047236      2.000000
  0.129597  0.073639  0.047236      2.000000
  0.000000  0.110459  0.047236      1.000000
  0.043199  0.110459  0.047236      2.000000
  0.086398  0.110459  0.047236      2.000000
  0.129597  0.110459  0.047236      1.000000
 


--------------------------------------------------------------------------------------------------------




 Dimension of arrays:
   k-points           NKPTS =     40   k-points in BZ     NKDIM =     40   number of bands    NBANDS=     32
   number of dos      NEDOS =    301   number of ions     NIONS =      8
   non local maximal  LDIM  =      5   non local SUM 2l+1 LMDIM =     13
   total plane-waves  NPLWV =  21600
   max r-space proj   IRMAX =      1   max aug-charges    IRDMAX=   6549
   dimension x,y,z NGX =    18 NGY =   24 NGZ =   50
   dimension x,y,z NGXF=    36 NGYF=   48 NGZF=  100
   support grid    NGXF=    36 NGYF=   48 NGZF=  100
   ions per type =               4   4
   NGX,Y,Z   is equivalent  to a cutoff of   7.76,  8.81,  7.85 a.u.
   NGXF,Y,Z  is equivalent  to a cutoff of  15.51, 17.63, 15.71 a.u.

 SYSTEM =  ./                                      
 POSCAR =  Ge Se                                   

 Startparameter for this run:
   NWRITE =      2    write-flag & timer
   PREC   = normal    normal or accurate (medium, high low for compatibility)
   ISTART =      0    job   : 0-new  1-cont  2-samecut
   ICHARG =      2    charge: 1-file 2-atom 10-const
   ISPIN  =      1    spin polarized calculation?
   LNONCOLLINEAR =      F non collinear calculations
   LSORBIT =      F    spin-orbit coupling
   INIWAV =      1    electr: 0-lowe 1-rand  2-diag
   LASPH  =      T    aspherical Exc in radial PAW
 Electronic Relaxation 1
   ENCUT  =  360.0 eV  26.46 Ry    5.14 a.u.   5.97  7.00 16.38*2*pi/ulx,y,z
   ENINI  =  360.0     initial cutoff
   ENAUG  =  446.8 eV  augmentation charge cutoff
   NELM   =    100;   NELMIN=  2; NELMDL= -5     # of ELM steps 
   EDIFF  = 0.1E-05   stopping-criterion for ELM
   LREAL  =      F    real-space projection
   NLSPLINE    = F    spline interpolate recip. space projectors
   LCOMPAT=      F    compatible to vasp.4.4
   GGA_COMPAT  = T    GGA compatible to vasp.4.4-vasp.4.6
   LMAXPAW     = -100 max onsite density
   LMAXMIX     =    4 max onsite mixed and CHGCAR
   VOSKOWN=      0    Vosko Wilk Nusair interpolation
   ROPT   =    0.00000   0.00000
 Ionic relaxation
   EDIFFG = 0.1E-04   stopping-criterion for IOM
   NSW    =      0    number of steps for IOM
   NBLOCK =      1;   KBLOCK =      1    inner block; outer block 
   IBRION =     -1    ionic relax: 0-MD 1-quasi-New 2-CG
   NFREE  =      0    steps in history (QN), initial steepest desc. (CG)
   ISIF   =      2    stress and relaxation
   IWAVPR =     10    prediction:  0-non 1-charg 2-wave 3-comb
   ISYM   =      0    0-nonsym 1-usesym 2-fastsym
   LCORR  =      T    Harris-Foulkes like correction to forces

   POTIM  = 0.5000    time-step for ionic-motion
   TEIN   =    0.0    initial temperature
   TEBEG  =    0.0;   TEEND  =   0.0 temperature during run
   SMASS  =  -3.00    Nose mass-parameter (am)
   estimated Nose-frequenzy (Omega)   =  0.10E-29 period in steps = 0.13E+47 mass=  -0.340E-27a.u.
   SCALEE = 1.0000    scale energy and forces
   NPACO  =    256;   APACO  = 10.0  distance and # of slots for P.C.
   PSTRESS=    0.0 pullay stress

  Mass of Ions in am
   POMASS =  72.61 78.96
  Ionic Valenz
   ZVAL   =   4.00  6.00
  Atomic Wigner-Seitz radii
   RWIGS  =  -1.00 -1.00
  virtual crystal weights 
   VCA    =   1.00  1.00
   NELECT =      40.0000    total number of electrons
   NUPDOWN=      -1.0000    fix difference up-down

 DOS related values:
   EMIN   =  10.00;   EMAX   =-10.00  energy-range for DOS
   EFERMI =   0.00;   METHOD = LEGACY      
   ISMEAR =     0;   SIGMA  =   0.05  broadening in eV -4-tet -1-fermi 0-gaus

 Electronic relaxation 2 (details)
   IALGO  =     38    algorithm
   LDIAG  =      T    sub-space diagonalisation (order eigenvalues)
   LSUBROT=      F    optimize rotation matrix (better conditioning)
   TURBO    =      0    0=normal 1=particle mesh
   IRESTART =      0    0=no restart 2=restart with 2 vectors
   NREBOOT  =      0    no. of reboots
   NMIN     =      0    reboot dimension
   EREF     =   0.00    reference energy to select bands
   IMIX   =      4    mixing-type and parameters
     AMIX     =   0.40;   BMIX     =  1.00
     AMIX_MAG =   1.60;   BMIX_MAG =  1.00
     AMIN     =   0.10
     WC   =   100.;   INIMIX=   1;  MIXPRE=   1;  MAXMIX= -45

 Intra band minimization:
   WEIMIN = 0.0000     energy-eigenvalue tresh-hold
   EBREAK =  0.78E-08  absolut break condition
   DEPER  =   0.30     relativ break condition  

   TIME   =   0.40     timestep for ELM

  volume/ion in A,a.u.               =      23.11       155.94
  Fermi-wavevector in a.u.,A,eV,Ry     =   0.982836  1.857291 13.142773  0.965967
  Thomas-Fermi vector in A             =   2.113949
 
 Write flags
   LWAVE        =      F    write WAVECAR
   LDOWNSAMPLE  =      F    k-point downsampling of WAVECAR
   LCHARG       =      F    write CHGCAR
   LVTOT        =      F    write LOCPOT, total local potential
   LVHAR        =      F    write LOCPOT, Hartree potential only
   LELF         =      F    write electronic localiz. function (ELF)
   LORBIT       =      0    0 simple, 1 ext, 2 COOP (PROOUT), +10 PAW based schemes


 Dipole corrections
   LMONO  =      F    monopole corrections only (constant potential shift)
   LDIPOL =      F    correct potential (dipole corrections)
   IDIPOL =      0    1-x, 2-y, 3-z, 4-all directions 
   EPSILON=  1.0000000 bulk dielectric constant

 Exchange correlation treatment:
   GGA     =    PE    GGA type
   LEXCH   =     8    internal setting for exchange type
   LIBXC   =     F    Libxc                    
   VOSKOWN =     0    Vosko Wilk Nusair interpolation
   LHFCALC =     F    Hartree Fock is set to
   LHFONE  =     F    Hartree Fock one center treatment
   AEXX    =    0.0000 exact exchange contribution

 Linear response parameters
   LEPSILON=     F    determine dielectric tensor
   LRPA    =     F    only Hartree local field effects (RPA)
   LNABLA  =     F    use nabla operator in PAW spheres
   LVEL    =     F    velocity operator in full k-point grid
   CSHIFT  =0.1000    complex shift for real part using Kramers Kronig
   OMEGAMAX=  -1.0    maximum frequency
   DEG_THRESHOLD= 0.2000000E-02 threshold for treating states as degnerate
   RTIME   =   -0.100 relaxation time in fs
  (WPLASMAI=    0.000 imaginary part of plasma frequency in eV, 0.658/RTIME)
   DFIELD  = 0.0000000 0.0000000 0.0000000 field for delta impulse in time
 
  Optional k-point grid parameters
   LKPOINTS_OPT  =     F    use optional k-point grid
   KPOINTS_OPT_MODE=     1    mode for optional k-point grid
 
 Orbital magnetization related:
   ORBITALMAG=     F  switch on orbital magnetization
   LCHIMAG   =     F  perturbation theory with respect to B field
   DQ        =  0.001000  dq finite difference perturbation B field
   LLRAUG    =     F  two centre corrections for induced B field
   LBONE     =     F  B-component reconstruction in AE one-centre
   LVGVCALC  =     T  calculate vGv susceptibility
   LVGVAPPL  =     F  apply vGv susceptibility instead of pGv for G=0

 Random number generation:
   RANDOM_GENERATOR = DEFAULT
   PCG_SEED         = not used


--------------------------------------------------------------------------------------------------------


 Static calculation
 charge density and potential will be updated during run
 non-spin polarized calculation
 Variant of blocked Davidson
 Davidson routine will perform the subspace rotation
 perform sub-space diagonalisation
    after iterative eigenvector-optimisation
 modified Broyden-mixing scheme, WC =      100.0
 initial mixing is a Kerker type mixing with AMIX =  0.4000 and BMIX =      1.0000
 Hartree-type preconditioning will be used
 using additional bands            12
 reciprocal scheme for non local part
 use partial core corrections
 calculate Harris-corrections to forces 
   (improved forces if not selfconsistent)
 use gradient corrections 
 use of overlap-Matrix (Vanderbilt PP)
 Gauss-broadening in eV      SIGMA  =   0.05


--------------------------------------------------------------------------------------------------------


  energy-cutoff  :      360.00
  volume of cell :      184.86
      direct lattice vectors                 reciprocal lattice vectors
     3.858100176  0.000000000  0.000000000     0.259194929  0.000000000  0.000000000
     0.000000000  4.526575088  0.000000000     0.000000000  0.220917577  0.000000000
     0.000000000  0.000000000 10.585176468     0.000000000  0.000000000  0.094471736

  length of vectors
     3.858100176  4.526575088 10.585176468     0.259194929  0.220917577  0.094471736


 
 k-points in units of 2pi/SCALE and weight: KPOINTS created by Atomic Simulation Env
   0.00000000  0.00000000  0.00000000       0.014
   0.04319915  0.00000000  0.00000000       0.028
   0.08639831  0.00000000  0.00000000       0.028
   0.12959746  0.00000000  0.00000000       0.014
   0.00000000  0.03681960  0.00000000       0.028
   0.04319915  0.03681960  0.00000000       0.028
   0.04319915 -0.03681960  0.00000000       0.028
   0.08639831  0.03681960  0.00000000       0.028
   0.08639831 -0.03681960  0.00000000       0.028
   0.12959746  0.03681960  0.00000000       0.028
   0.00000000  0.07363919  0.00000000       0.028
   0.04319915  0.07363919  0.00000000       0.028
   0.04319915 -0.07363919  0.00000000       0.028
   0.08639831  0.07363919  0.00000000       0.028
   0.08639831 -0.07363919  0.00000000       0.028
   0.12959746  0.07363919  0.00000000       0.028
   0.00000000  0.11045879  0.00000000       0.014
   0.04319915  0.11045879  0.00000000       0.028
   0.08639831  0.11045879  0.00000000       0.028
   0.12959746  0.11045879  0.00000000       0.014
   0.00000000  0.00000000  0.04723587       0.014
   0.04319915  0.00000000  0.04723587       0.028
   0.08639831  0.00000000  0.04723587       0.028
   0.12959746  0.00000000  0.04723587       0.014
   0.00000000  0.03681960  0.04723587       0.028
   0.04319915  0.03681960  0.04723587       0.028
   0.04319915 -0.03681960  0.04723587       0.028
   0.08639831  0.03681960  0.04723587       0.028
   0.08639831 -0.03681960  0.04723587       0.028
   0.12959746  0.03681960  0.04723587       0.028
   0.00000000  0.07363919  0.04723587       0.028
   0.04319915  0.07363919  0.04723587       0.028
   0.04319915 -0.07363919  0.04723587       0.028
   0.08639831  0.07363919  0.04723587       0.028
   0.08639831 -0.07363919  0.04723587       0.028
   0.12959746  0.07363919  0.04723587       0.028
   0.00000000  0.11045879  0.04723587       0.014
   0.04319915  0.11045879  0.04723587       0.028
   0.08639831  0.11045879  0.04723587       0.028
   0.12959746  0.11045879  0.04723587       0.014
 
 k-points in reciprocal lattice and weights: KPOINTS created by Atomic Simulation Env
   0.00000000  0.00000000  0.00000000       0.014
   0.16666667  0.00000000  0.00000000       0.028
   0.33333333  0.00000000  0.00000000       0.028
   0.50000000  0.00000000  0.00000000       0.014
   0.00000000  0.16666667  0.00000000       0.028
   0.16666667  0.16666667  0.00000000       0.028
   0.16666667 -0.16666667  0.00000000       0.028
   0.33333333  0.16666667  0.00000000       0.028
   0.33333333 -0.16666667  0.00000000       0.028
   0.50000000  0.16666667  0.00000000       0.028
   0.00000000  0.33333333  0.00000000       0.028
   0.16666667  0.33333333  0.00000000       0.028
   0.16666667 -0.33333333  0.00000000       0.028
   0.33333333  0.33333333  0.00000000       0.028
   0.33333333 -0.33333333  0.00000000       0.028
   0.50000000  0.33333333  0.00000000       0.028
   0.00000000  0.50000000  0.00000000       0.014
   0.16666667  0.50000000  0.00000000       0.028
   0.33333333  0.50000000  0.00000000       0.028
   0.50000000  0.50000000  0.00000000       0.014
   0.00000000  0.00000000  0.50000000       0.014
   0.16666667  0.00000000  0.50000000       0.028
   0.33333333  0.00000000  0.50000000       0.028
   0.50000000  0.00000000  0.50000000       0.014
   0.00000000  0.16666667  0.50000000       0.028
   0.16666667  0.16666667  0.50000000       0.028
   0.16666667 -0.16666667  0.50000000       0.028
   0.33333333  0.16666667  0.50000000       0.028
   0.33333333 -0.16666667  0.50000000       0.028
   0.50000000  0.16666667  0.50000000       0.028
   0.00000000  0.33333333  0.50000000       0.028
   0.16666667  0.33333333  0.50000000       0.028
   0.16666667 -0.33333333  0.50000000       0.028
   0.33333333  0.33333333  0.50000000       0.028
   0.33333333 -0.33333333  0.50000000       0.028
   0.50000000  0.33333333  0.50000000       0.028
   0.00000000  0.50000000  0.50000000       0.014
   0.16666667  0.50000000  0.50000000       0.028
   0.33333333  0.50000000  0.50000000       0.028
   0.50000000  0.50000000  0.50000000       0.014
 
 position of ions in fractional coordinates (direct lattice) 
   0.49637652  0.43803670  0.11629323
   0.99637657  0.93803673  0.38370666
   0.74999953  0.88080355  0.88370670
   0.24999891  0.38080359  0.61629330
   0.49637659  0.31378179  0.35452175
   0.99637647  0.81378189  0.14547826
   0.74999912  0.00505836  0.64547820
   0.24999942  0.50505845  0.85452174
 
 position of ions in cartesian coordinates  (Angst):
   1.91507034  1.98280603  1.23098441
   3.84412061  4.24609369  4.06160274
   2.89357331  3.98702340  9.35419135
   0.96452085  1.72373604  6.52357335
   1.91507062  1.42035683  3.75267533
   3.84412024  3.68364483  1.53991301
   2.89357173  0.02289706  6.83250071
   0.96452282  2.28618498  9.04526339
 


--------------------------------------------------------------------------------------------------------


 k-point   1 :   0.0000 0.0000 0.0000  plane waves:    2825
 k-point   2 :   0.1667 0.0000 0.0000  plane waves:    2856
 k-point   3 :   0.3333 0.0000 0.0000  plane waves:    2864
 k-point   4 :   0.5000 0.0000 0.0000  plane waves:    2880
 k-point   5 :   0.0000 0.1667 0.0000  plane waves:    2850
 k-point   6 :   0.1667 0.1667 0.0000  plane waves:    2853
 k-point   7 :   0.1667-0.1667 0.0000  plane waves:    2853
 k-point   8 :   0.3333 0.1667 0.0000  plane waves:    2873
 k-point   9 :   0.3333-0.1667 0.0000  plane waves:    2873
 k-point  10 :   0.5000 0.1667 0.0000  plane waves:    2866
 k-point  11 :   0.0000 0.3333 0.0000  plane waves:    2864
 k-point  12 :   0.1667 0.3333 0.0000  plane waves:    2871
 k-point  13 :   0.1667-0.3333 0.0000  plane waves:    2871
 k-point  14 :   0.3333 0.3333 0.0000  plane waves:    2883
 k-point  15 :   0.3333-0.3333 0.0000  plane waves:    2883
 k-point  16 :   0.5000 0.3333 0.0000  plane waves:    2880
 k-point  17 :   0.0000 0.5000 0.0000  plane waves:    2874
 k-point  18 :   0.1667 0.5000 0.0000  plane waves:    2880
 k-point  19 :   0.3333 0.5000 0.0000  plane waves:    2888
 k-point  20 :   0.5000 0.5000 0.0000  plane waves:    2896
 k-point  21 :   0.0000 0.0000 0.5000  plane waves:    2828
 k-point  22 :   0.1667 0.0000 0.5000  plane waves:    2838
 k-point  23 :   0.3333 0.0000 0.5000  plane waves:    2868
 k-point  24 :   0.5000 0.0000 0.5000  plane waves:    2852
 k-point  25 :   0.0000 0.1667 0.5000  plane waves:    2846
 k-point  26 :   0.1667 0.1667 0.5000  plane waves:    2868
 k-point  27 :   0.1667-0.1667 0.5000  plane waves:    2868
 k-point  28 :   0.3333 0.1667 0.5000  plane waves:    2866
 k-point  29 :   0.3333-0.1667 0.5000  plane waves:    2866
 k-point  30 :   0.5000 0.1667 0.5000  plane waves:    2884
 k-point  31 :   0.0000 0.3333 0.5000  plane waves:    2852
 k-point  32 :   0.1667 0.3333 0.5000  plane waves:    2862
 k-point  33 :   0.1667-0.3333 0.5000  plane waves:    2862
 k-point  34 :   0.3333 0.3333 0.5000  plane waves:    2874
 k-point  35 :   0.3333-0.3333 0.5000  plane waves:    2874
 k-point  36 :   0.5000 0.3333 0.5000  plane waves:    2892
 k-point  37 :   0.0000 0.5000 0.5000  plane waves:    2872
 k-point  38 :   0.1667 0.5000 0.5000  plane waves:    2856
 k-point  39 :   0.3333 0.5000 0.5000  plane waves:    2876
 k-point  40 :   0.5000 0.5000 0.5000  plane waves:    2872

 maximum and minimum number of plane-waves per node :       592      553

 maximum number of plane-waves:      2896
 maximum index in each direction: 
   IXMAX=    5   IYMAX=    7   IZMAX=   16
   IXMIN=   -6   IYMIN=   -7   IZMIN=  -16


 parallel 3D FFT for wavefunctions:
    minimum data exchange during FFTs selected (reduces bandwidth)
 parallel 3D FFT for charge:
    minimum data exchange during FFTs selected (reduces bandwidth)


 total amount of memory used by VASP MPI-rank0    36587. kBytes
=======================================================================

   base      :      30000. kBytes
   nonl-proj :       5001. kBytes
   fftplans  :        306. kBytes
   grid      :        466. kBytes
   one-center:         16. kBytes
   wavefun   :        798. kBytes
 
     INWAV:  cpu time      0.0000: real time      0.0001
 Broyden mixing: mesh for mixing (old mesh)
   NGX = 11   NGY = 15   NGZ = 33
  (NGX  = 36   NGY  = 48   NGZ  =100)
  gives a total of   5445 points

 initial charge density was supplied:
 charge density of overlapping atoms calculated
 number of electron      40.0000000 magnetization 
 keeping initial charge density in first step


--------------------------------------------------------------------------------------------------------


 Maximum index for augmentation-charges           430 (set IRDMAX)


--------------------------------------------------------------------------------------------------------


 First call to EWALD:  gamma=   0.311
 Maximum number of real-space cells 4x 3x 2
 Maximum number of reciprocal cells 2x 2x 5

    FEWALD:  cpu time      0.0010: real time      0.0010


--------------------------------------- Ionic step        1  -------------------------------------------




--------------------------------------- Iteration      1(   1)  ---------------------------------------


    POTLOK:  cpu time      0.0083: real time      0.0084
    SETDIJ:  cpu time      0.2190: real time      0.2196
     EDDAV:  cpu time      0.3042: real time      0.3057
       DOS:  cpu time      0.0010: real time      0.0010
    --------------------------------------------
      LOOP:  cpu time      0.5326: real time      0.5346

 eigenvalue-minimisations  :  2560
 total energy-change (2. order) : 0.1309820E+03  (-0.1300606E+04)
 number of electron      40.0000000 magnetization 
 augmentation part       40.0000000 magnetization 

 Free energy of the ion-electron system (eV)
  ---------------------------------------------------
  alpha Z        PSCENC =        91.66130333
  Ewald energy   TEWEN  =     -1441.64195594
  -Hartree energ DENC   =      -121.87475231
  -exchange      EXHF   =         0.00000000
  -V(xc)+E(xc)   XCENC  =       -32.65378071
  PAW double counting   =      1193.78262552    -1080.73714043
  entropy T*S    EENTRO =        -0.00347522
  eigenvalues    EBANDS =        73.96454143
  atomic energy  EATOM  =      1448.48460880
  Solvation  Ediel_sol  =         0.00000000
  ---------------------------------------------------
  free energy    TOTEN  =       130.98197446 eV

  energy without entropy =      130.98544968  energy(sigma->0) =      130.98371207


--------------------------------------------------------------------------------------------------------




--------------------------------------- Iteration      1(   2)  ---------------------------------------


     EDDAV:  cpu time      0.4404: real time      0.4434
       DOS:  cpu time      0.0005: real time      0.0005
    --------------------------------------------
      LOOP:  cpu time      0.4409: real time      0.4439

 eigenvalue-minimisations  :  3760
 total energy-change (2. order) :-0.1560201E+03  (-0.1518793E+03)
 number of electron      40.0000000 magnetization 
 augmentation part       40.0000000 magnetization 

 Free energy of the ion-electron system (eV)
  ---------------------------------------------------
  alpha Z        PSCENC =        91.66130333
  Ewald energy   TEWEN  =     -1441.64195594
  -Hartree energ DENC   =      -121.87475231
  -exchange      EXHF   =         0.00000000
  -V(xc)+E(xc)   XCENC  =       -32.65378071
  PAW double counting   =      1193.78262552    -1080.73714043
  entropy T*S    EENTRO =        -0.00000000
  eigenvalues    EBANDS =       -82.05902404
  atomic energy  EATOM  =      1448.48460880
  Solvation  Ediel_sol  =         0.00000000
  ---------------------------------------------------
  free energy    TOTEN  =       -25.03811578 eV

  energy without entropy =      -25.03811578  energy(sigma->0) =      -25.03811578


--------------------------------------------------------------------------------------------------------




--------------------------------------- Iteration      1(   3)  ---------------------------------------


     EDDAV:  cpu time      0.4069: real time      0.4090
       DOS:  cpu time      0.0290: real time      0.0294
    --------------------------------------------
      LOOP:  cpu time      0.4360: real time      0.4384

 eigenvalue-minimisations  :  3104
 total energy-change (2. order) :-0.8289360E+01  (-0.8273829E+01)
 number of electron      40.0000000 magnetization 
 augmentation part       40.0000000 magnetization 

 Free energy of the ion-electron system (eV)
  ---------------------------------------------------
  alpha Z        PSCENC =        91.66130333
  Ewald energy   TEWEN  =     -1441.64195594
  -Hartree energ DENC   =      -121.87475231
  -exchange      EXHF   =         0.00000000
  -V(xc)+E(xc)   XCENC  =       -32.65378071
  PAW double counting   =      1193.78262552    -1080.73714043
  entropy T*S    EENTRO =        -0.00000000
  eigenvalues    EBANDS =       -90.34838381
  atomic energy  EATOM  =      1448.48460880
  Solvation  Ediel_sol  =         0.00000000
  ---------------------------------------------------
  free energy    TOTEN  =       -33.32747556 eV

  energy without entropy =      -33.32747556  energy(sigma->0) =      -33.32747556


--------------------------------------------------------------------------------------------------------




--------------------------------------- Iteration      1(   4)  ---------------------------------------


     EDDAV:  cpu time      0.5271: real time      0.5342
       DOS:  cpu time      0.0005: real time      0.0005
    --------------------------------------------
      LOOP:  cpu time      0.5275: real time      0.5346

 eigenvalue-minimisations  :  3408
 total energy-change (2. order) :-0.5389117E-01  (-0.5388019E-01)
 number of electron      40.0000000 magnetization 
 augmentation part       40.0000000 magnetization 

 Free energy of the ion-electron system (eV)
  ---------------------------------------------------
  alpha Z        PSCENC =        91.66130333
  Ewald energy   TEWEN  =     -1441.64195594
  -Hartree energ DENC   =      -121.87475231
  -exchange      EXHF   =         0.00000000
  -V(xc)+E(xc)   XCENC  =       -32.65378071
  PAW double counting   =      1193.78262552    -1080.73714043
  entropy T*S    EENTRO =        -0.00000000
  eigenvalues    EBANDS =       -90.40227498
  atomic energy  EATOM  =      1448.48460880
  Solvation  Ediel_sol  =         0.00000000
  ---------------------------------------------------
  free energy    TOTEN  =       -33.38136673 eV

  energy without entropy =      -33.38136673  energy(sigma->0) =      -33.38136673


--------------------------------------------------------------------------------------------------------




--------------------------------------- Iteration      1(   5)  ---------------------------------------


     EDDAV:  cpu time      0.4074: real time      0.4090
       DOS:  cpu time      0.0005: real time      0.0005
    CHARGE:  cpu time      0.0057: real time      0.0057
    MIXING:  cpu time      0.0004: real time      0.0004
    --------------------------------------------
      LOOP:  cpu time      0.4140: real time      0.4157

 eigenvalue-minimisations  :  3088
 total energy-change (2. order) :-0.3346900E-03  (-0.3346857E-03)
 number of electron      40.0000029 magnetization 
 augmentation part       -7.4556551 magnetization 

 Broyden mixing:
  rms(total) = 0.69066E+00    rms(broyden)= 0.69065E+00
  rms(prec ) = 0.77072E+00
  weight for this iteration     100.00

 Free energy of the ion-electron system (eV)
  ---------------------------------------------------
  alpha Z        PSCENC =        91.66130333
  Ewald energy   TEWEN  =     -1441.64195594
  -Hartree energ DENC   =      -121.87475231
  -exchange      EXHF   =         0.00000000
  -V(xc)+E(xc)   XCENC  =       -32.65378071
  PAW double counting   =      1193.78262552    -1080.73714043
  entropy T*S    EENTRO =        -0.00000000
  eigenvalues    EBANDS =       -90.40260967
  atomic energy  EATOM  =      1448.48460880
  Solvation  Ediel_sol  =         0.00000000
  ---------------------------------------------------
  free energy    TOTEN  =       -33.38170142 eV

  energy without entropy =      -33.38170142  energy(sigma->0) =      -33.38170142


--------------------------------------------------------------------------------------------------------




--------------------------------------- Iteration      1(   6)  ---------------------------------------


    POTLOK:  cpu time      0.0077: real time      0.0078
    SETDIJ:  cpu time      0.2160: real time      0.2165
     EDDAV:  cpu time      0.3839: real time      0.3860
       DOS:  cpu time      0.0007: real time      0.0007
    CHARGE:  cpu time      0.0051: real time      0.0051
    MIXING:  cpu time      0.0005: real time      0.0005
    --------------------------------------------
      LOOP:  cpu time      0.6138: real time      0.6165

 eigenvalue-minimisations  :  3312
 total energy-change (2. order) : 0.3628101E+00  (-0.7117936E-01)
 number of electron      40.0000029 magnetization 
 augmentation part       -7.3997514 magnetization 

 Broyden mixing:
  rms(total) = 0.43414E+00    rms(broyden)= 0.43414E+00
  rms(prec ) = 0.45476E+00
  weight for this iteration     100.00

 eigenvalues of (default mixing * dielectric matrix)
  average eigenvalue GAMMA=   2.2894
  2.2894

 Free energy of the ion-electron system (eV)
  ---------------------------------------------------
  alpha Z        PSCENC =        91.66130333
  Ewald energy   TEWEN  =     -1441.64195594
  -Hartree energ DENC   =      -127.59574690
  -exchange      EXHF   =         0.00000000
  -V(xc)+E(xc)   XCENC  =       -32.07446023
  PAW double counting   =      1479.98102251    -1367.27637986
  entropy T*S    EENTRO =        -0.00000000
  eigenvalues    EBANDS =       -84.55728305
  atomic energy  EATOM  =      1448.48460880
  Solvation  Ediel_sol  =         0.00000000
  ---------------------------------------------------
  free energy    TOTEN  =       -33.01889135 eV

  energy without entropy =      -33.01889134  energy(sigma->0) =      -33.01889134


--------------------------------------------------------------------------------------------------------




--------------------------------------- Iteration      1(   7)  ---------------------------------------


    POTLOK:  cpu time      0.0073: real time      0.0074
    SETDIJ:  cpu time      0.2197: real time      0.2201
     EDDAV:  cpu time      0.4004: real time      0.4025
       DOS:  cpu time      0.0007: real time      0.0007
    CHARGE:  cpu time      0.0059: real time      0.0059
    MIXING:  cpu time      0.0005: real time      0.0005
    --------------------------------------------
      LOOP:  cpu time      0.6345: real time      0.6371

 eigenvalue-minimisations  :  3440
 total energy-change (2. order) : 0.1239792E-01  (-0.2365825E-01)
 number of electron      40.0000029 magnetization 
 augmentation part       -7.3797150 magnetization 

 Broyden mixing:
  rms(total) = 0.12594E+00    rms(broyden)= 0.12594E+00
  rms(prec ) = 0.13480E+00
  weight for this iteration     100.00

 eigenvalues of (default mixing * dielectric matrix)
  average eigenvalue GAMMA=   1.8356
  1.2416  2.4295

 Free energy of the ion-electron system (eV)
  ---------------------------------------------------
  alpha Z        PSCENC =        91.66130333
  Ewald energy   TEWEN  =     -1441.64195594
  -Hartree energ DENC   =      -130.55765630
  -exchange      EXHF   =         0.00000000
  -V(xc)+E(xc)   XCENC  =       -31.59226539
  PAW double counting   =      1859.18200550    -1746.76153440
  entropy T*S    EENTRO =        -0.00000010
  eigenvalues    EBANDS =       -81.78099891
  atomic energy  EATOM  =      1448.48460880
  Solvation  Ediel_sol  =         0.00000000
  ---------------------------------------------------
  free energy    TOTEN  =       -33.00649343 eV

  energy without entropy =      -33.00649332  energy(sigma->0) =      -33.00649337


--------------------------------------------------------------------------------------------------------




--------------------------------------- Iteration      1(   8)  ---------------------------------------


    POTLOK:  cpu time      0.0114: real time      0.0116
    SETDIJ:  cpu time      0.2144: real time      0.2151
     EDDAV:  cpu time      0.3758: real time      0.3771
       DOS:  cpu time      0.0008: real time      0.0008
    CHARGE:  cpu time      0.0058: real time      0.0058
    MIXING:  cpu time      0.0005: real time      0.0005
    --------------------------------------------
      LOOP:  cpu time      0.6086: real time      0.6108

 eigenvalue-minimisations  :  2976
 total energy-change (2. order) : 0.2628049E-02  (-0.2797335E-02)
 number of electron      40.0000029 magnetization 
 augmentation part       -7.3900054 magnetization 

 Broyden mixing:
  rms(total) = 0.16612E-01    rms(broyden)= 0.16612E-01
  rms(prec ) = 0.20661E-01
  weight for this iteration     100.00

 eigenvalues of (default mixing * dielectric matrix)
  average eigenvalue GAMMA=   1.7131
  2.4892  1.3251  1.3251

 Free energy of the ion-electron system (eV)
  ---------------------------------------------------
  alpha Z        PSCENC =        91.66130333
  Ewald energy   TEWEN  =     -1441.64195594
  -Hartree energ DENC   =      -130.45384049
  -exchange      EXHF   =         0.00000000
  -V(xc)+E(xc)   XCENC  =       -31.48698351
  PAW double counting   =      1997.51335370    -1885.15065569
  entropy T*S    EENTRO =        -0.00000004
  eigenvalues    EBANDS =       -81.92969554
  atomic energy  EATOM  =      1448.48460880
  Solvation  Ediel_sol  =         0.00000000
  ---------------------------------------------------
  free energy    TOTEN  =       -33.00386538 eV

  energy without entropy =      -33.00386534  energy(sigma->0) =      -33.00386536


--------------------------------------------------------------------------------------------------------




--------------------------------------- Iteration      1(   9)  ---------------------------------------


    POTLOK:  cpu time      0.0073: real time      0.0074
    SETDIJ:  cpu time      0.2188: real time      0.2192
     EDDAV:  cpu time      0.3649: real time      0.3670
       DOS:  cpu time      0.0008: real time      0.0008
    CHARGE:  cpu time      0.0051: real time      0.0051
    MIXING:  cpu time      0.0004: real time      0.0004
    --------------------------------------------
      LOOP:  cpu time      0.5973: real time      0.6000

 eigenvalue-minimisations  :  3088
 total energy-change (2. order) :-0.1983381E-03  (-0.3352548E-03)
 number of electron      40.0000029 magnetization 
 augmentation part       -7.3879046 magnetization 

 Broyden mixing:
  rms(total) = 0.58688E-02    rms(broyden)= 0.58688E-02
  rms(prec ) = 0.68376E-02
  weight for this iteration     100.00

 eigenvalues of (default mixing * dielectric matrix)
  average eigenvalue GAMMA=   1.6963
  2.2375  2.1798  1.1839  1.1839

 Free energy of the ion-electron system (eV)
  ---------------------------------------------------
  alpha Z        PSCENC =        91.66130333
  Ewald energy   TEWEN  =     -1441.64195594
  -Hartree energ DENC   =      -130.80168828
  -exchange      EXHF   =         0.00000000
  -V(xc)+E(xc)   XCENC  =       -31.45297238
  PAW double counting   =      2006.81257708    -1894.45825424
  entropy T*S    EENTRO =        -0.00000005
  eigenvalues    EBANDS =       -81.60768202
  atomic energy  EATOM  =      1448.48460880
  Solvation  Ediel_sol  =         0.00000000
  ---------------------------------------------------
  free energy    TOTEN  =       -33.00406372 eV

  energy without entropy =      -33.00406367  energy(sigma->0) =      -33.00406369


--------------------------------------------------------------------------------------------------------




--------------------------------------- Iteration      1(  10)  ---------------------------------------


    POTLOK:  cpu time      0.0104: real time      0.0106
    SETDIJ:  cpu time      0.2149: real time      0.2153
     EDDAV:  cpu time      0.3864: real time      0.3878
       DOS:  cpu time      0.0008: real time      0.0008
    CHARGE:  cpu time      0.0052: real time      0.0052
    MIXING:  cpu time      0.0005: real time      0.0005
    --------------------------------------------
      LOOP:  cpu time      0.6181: real time      0.6203

 eigenvalue-minimisations  :  3280
 total energy-change (2. order) :-0.8827111E-04  (-0.2444821E-04)
 number of electron      40.0000029 magnetization 
 augmentation part       -7.3879408 magnetization 

 Broyden mixing:
  rms(total) = 0.22049E-02    rms(broyden)= 0.22048E-02
  rms(prec ) = 0.27364E-02
  weight for this iteration     100.00

 eigenvalues of (default mixing * dielectric matrix)
  average eigenvalue GAMMA=   1.7429
  2.5584  2.5584  1.1535  1.2221  1.2221

 Free energy of the ion-electron system (eV)
  ---------------------------------------------------
  alpha Z        PSCENC =        91.66130333
  Ewald energy   TEWEN  =     -1441.64195594
  -Hartree energ DENC   =      -130.83373375
  -exchange      EXHF   =         0.00000000
  -V(xc)+E(xc)   XCENC  =       -31.44836596
  PAW double counting   =      2002.72740579    -1890.36916905
  entropy T*S    EENTRO =        -0.00000004
  eigenvalues    EBANDS =       -81.58424515
  atomic energy  EATOM  =      1448.48460880
  Solvation  Ediel_sol  =         0.00000000
  ---------------------------------------------------
  free energy    TOTEN  =       -33.00415199 eV

  energy without entropy =      -33.00415195  energy(sigma->0) =      -33.00415197


--------------------------------------------------------------------------------------------------------




--------------------------------------- Iteration      1(  11)  ---------------------------------------


    POTLOK:  cpu time      0.0075: real time      0.0076
    SETDIJ:  cpu time      0.2175: real time      0.2180
     EDDAV:  cpu time      0.3568: real time      0.3588
       DOS:  cpu time      0.0010: real time      0.0010
    CHARGE:  cpu time      0.0052: real time      0.0052
    MIXING:  cpu time      0.0005: real time      0.0005
    --------------------------------------------
      LOOP:  cpu time      0.5885: real time      0.5911

 eigenvalue-minimisations  :  3072
 total energy-change (2. order) :-0.2744377E-04  (-0.3525038E-05)
 number of electron      40.0000029 magnetization 
 augmentation part       -7.3881221 magnetization 

 Broyden mixing:
  rms(total) = 0.10430E-02    rms(broyden)= 0.10430E-02
  rms(prec ) = 0.12349E-02
  weight for this iteration     100.00

 eigenvalues of (default mixing * dielectric matrix)
  average eigenvalue GAMMA=   1.7462
  2.4069  2.4069  2.3506  1.1907  1.1907  0.9316

 Free energy of the ion-electron system (eV)
  ---------------------------------------------------
  alpha Z        PSCENC =        91.66130333
  Ewald energy   TEWEN  =     -1441.64195594
  -Hartree energ DENC   =      -130.85725532
  -exchange      EXHF   =         0.00000000
  -V(xc)+E(xc)   XCENC  =       -31.44342678
  PAW double counting   =      2003.15459192    -1890.79590878
  entropy T*S    EENTRO =        -0.00000004
  eigenvalues    EBANDS =       -81.56613661
  atomic energy  EATOM  =      1448.48460880
  Solvation  Ediel_sol  =         0.00000000
  ---------------------------------------------------
  free energy    TOTEN  =       -33.00417943 eV

  energy without entropy =      -33.00417939  energy(sigma->0) =      -33.00417941


--------------------------------------------------------------------------------------------------------




--------------------------------------- Iteration      1(  12)  ---------------------------------------


    POTLOK:  cpu time      0.0072: real time      0.0073
    SETDIJ:  cpu time      0.2176: real time      0.2181
     EDDAV:  cpu time      0.4192: real time      0.4214
       DOS:  cpu time      0.0008: real time      0.0008
    CHARGE:  cpu time      0.0052: real time      0.0053
    MIXING:  cpu time      0.0005: real time      0.0005
    --------------------------------------------
      LOOP:  cpu time      0.6505: real time      0.6535

 eigenvalue-minimisations  :  3536
 total energy-change (2. order) :-0.2057984E-05  (-0.7496028E-06)
 number of electron      40.0000029 magnetization 
 augmentation part       -7.3880288 magnetization 

 Broyden mixing:
  rms(total) = 0.26013E-03    rms(broyden)= 0.26013E-03
  rms(prec ) = 0.32665E-03
  weight for this iteration     100.00

 eigenvalues of (default mixing * dielectric matrix)
  average eigenvalue GAMMA=   1.7094
  2.9211  2.4090  2.0368  1.3039  1.0309  1.1321  1.1321

 Free energy of the ion-electron system (eV)
  ---------------------------------------------------
  alpha Z        PSCENC =        91.66130333
  Ewald energy   TEWEN  =     -1441.64195594
  -Hartree energ DENC   =      -130.87394503
  -exchange      EXHF   =         0.00000000
  -V(xc)+E(xc)   XCENC  =       -31.44170646
  PAW double counting   =      2002.90761718    -1890.54895741
  entropy T*S    EENTRO =        -0.00000004
  eigenvalues    EBANDS =       -81.55114591
  atomic energy  EATOM  =      1448.48460880
  Solvation  Ediel_sol  =         0.00000000
  ---------------------------------------------------
  free energy    TOTEN  =       -33.00418149 eV

  energy without entropy =      -33.00418145  energy(sigma->0) =      -33.00418147


--------------------------------------------------------------------------------------------------------




--------------------------------------- Iteration      1(  13)  ---------------------------------------


    POTLOK:  cpu time      0.0075: real time      0.0076
    SETDIJ:  cpu time      0.2168: real time      0.2175
     EDDAV:  cpu time      0.2597: real time      0.2607
       DOS:  cpu time      0.0007: real time      0.0007
    --------------------------------------------
      LOOP:  cpu time      0.4847: real time      0.4865

 eigenvalue-minimisations  :  1680
 total energy-change (2. order) :-0.1911042E-06  (-0.1099387E-06)
 number of electron      40.0000029 magnetization 
 augmentation part       -7.3880288 magnetization 

 Free energy of the ion-electron system (eV)
  ---------------------------------------------------
  alpha Z        PSCENC =        91.66130333
  Ewald energy   TEWEN  =     -1441.64195594
  -Hartree energ DENC   =      -130.87617127
  -exchange      EXHF   =         0.00000000
  -V(xc)+E(xc)   XCENC  =       -31.44136969
  PAW double counting   =      2002.84292283    -1890.48410442
  entropy T*S    EENTRO =        -0.00000004
  eigenvalues    EBANDS =       -81.54941526
  atomic energy  EATOM  =      1448.48460880
  Solvation  Ediel_sol  =         0.00000000
  ---------------------------------------------------
  free energy    TOTEN  =       -33.00418168 eV

  energy without entropy =      -33.00418164  energy(sigma->0) =      -33.00418166


--------------------------------------------------------------------------------------------------------




 average (electrostatic) potential at core
  the test charge radii are     1.1631  1.0808
  (the norm of the test charge is              1.0000)
       1 -33.0135       2 -33.0135       3 -33.0135       4 -33.0135       5 -54.6085
       6 -54.6085       7 -54.6085       8 -54.6085
 
 
 
 E-fermi :   4.2711     XC(G=0):  -9.4852     alpha+bet : -9.1315

 Fermi energy:         4.2711017607

 k-point     1 :       0.0000    0.0000    0.0000
  band No.  band energies     occupation 
      1     -10.8425      2.00000
      2     -10.2591      2.00000
      3      -9.6279      2.00000
      4      -8.7844      2.00000
      5      -4.4032      2.00000
      6      -3.8391      2.00000
      7      -2.5706      2.00000
      8      -2.3594      2.00000
      9      -1.3522      2.00000
     10      -0.3198      2.00000
     11       0.4558      2.00000
     12       0.5334      2.00000
     13       0.6746      2.00000
     14       1.0001      2.00000
     15       1.2400      2.00000
     16       1.9049      2.00000
     17       1.9224      2.00000
     18       2.4403      2.00000
     19       3.2635      2.00000
     20       3.3474      2.00000
     21       4.7209      0.00000
     22       5.9677      0.00000
     23       6.1734      0.00000
     24       6.2447      0.00000
     25       6.5596      0.00000
     26       7.3500      0.00000
     27       7.4164      0.00000
     28       8.2035      0.00000
     29       8.5170      0.00000
     30       8.9695      0.00000
     31       9.1369      0.00000
     32       9.7254      0.00000

 k-point     2 :       0.1667    0.0000    0.0000
  band No.  band energies     occupation 
      1     -10.6479      2.00000
      2     -10.0862      2.00000
      3      -9.4963      2.00000
      4      -8.7482      2.00000
      5      -4.7136      2.00000
      6      -3.9731      2.00000
      7      -3.1148      2.00000
      8      -2.2866      2.00000
      9      -1.6744      2.00000
     10      -0.1332      2.00000
     11       0.0280      2.00000
     12       0.2708      2.00000
     13       0.9948      2.00000
     14       1.0827      2.00000
     15       1.3764      2.00000
     16       1.5064      2.00000
     17       2.0313      2.00000
     18       2.2521      2.00000
     19       3.3862      2.00000
     20       3.5280      2.00000
     21       4.6493      0.00000
     22       5.8728      0.00000
     23       6.1514      0.00000
     24       6.7333      0.00000
     25       6.8264      0.00000
     26       6.9666      0.00000
     27       7.0629      0.00000
     28       7.5307      0.00000
     29       8.1586      0.00000
     30       8.3862      0.00000
     31       8.9691      0.00000
     32       9.5150      0.00000

 k-point     3 :       0.3333    0.0000    0.0000
  band No.  band energies     occupation 
      1     -10.1135      2.00000
      2      -9.6309      2.00000
      3      -9.2567      2.00000
      4      -8.8015      2.00000
      5      -5.3033      2.00000
      6      -4.3283      2.00000
      7      -4.2162      2.00000
      8      -3.0456      2.00000
      9      -1.3310      2.00000
     10      -0.1767      2.00000
     11       0.2066      2.00000
     12       0.5405      2.00000
     13       1.0777      2.00000
     14       1.2508      2.00000
     15       1.4917      2.00000
     16       1.5295      2.00000
     17       1.9411      2.00000
     18       2.3432      2.00000
     19       3.2399      2.00000
     20       3.7238      2.00000
     21       4.6080      0.00000
     22       4.6137      0.00000
     23       5.0294      0.00000
     24       5.5958      0.00000
     25       5.9288      0.00000
     26       6.4025      0.00000
     27       6.4490      0.00000
     28       6.7681      0.00000
     29       7.3965      0.00000
     30       7.8153      0.00000
     31       9.3927      0.00000
     32      10.0236      0.00000

 k-point     4 :       0.5000    0.0000    0.0000
  band No.  band energies     occupation 
      1      -9.4561      2.00000
      2      -9.4561      2.00000
      3      -9.1264      2.00000
      4      -9.1264      2.00000
      5      -5.2788      2.00000
      6      -5.2788      2.00000
      7      -3.9483      2.00000
      8      -3.9483      2.00000
      9      -0.5520      2.00000
     10      -0.5520      2.00000
     11       0.7966      2.00000
     12       0.7966      2.00000
     13       1.1141      2.00000
     14       1.1141      2.00000
     15       1.4115      2.00000
     16       1.4115      2.00000
     17       2.2155      2.00000
     18       2.2155      2.00000
     19       3.3671      2.00000
     20       3.3671      2.00000
     21       4.5266      0.00000
     22       4.5266      0.00000
     23       4.9021      0.00000
     24       4.9021      0.00000
     25       5.5816      0.00000
     26       5.5816      0.00000
     27       6.0849      0.00000
     28       6.0849      0.00000
     29       6.8897      0.00000
     30       6.8897      0.00000
     31       9.9086      0.00000
     32       9.9086      0.00000

 k-point     5 :       0.0000    0.1667    0.0000
  band No.  band energies     occupation 
      1     -10.7302      2.00000
      2     -10.1515      2.00000
      3      -9.6371      2.00000
      4      -8.8579      2.00000
      5      -4.6767      2.00000
      6      -3.9630      2.00000
      7      -3.2557      2.00000
      8      -2.3249      2.00000
      9      -1.5836      2.00000
     10       0.1464      2.00000
     11       0.5494      2.00000
     12       0.6523      2.00000
     13       0.8989      2.00000
     14       1.3657      2.00000
     15       1.6390      2.00000
     16       1.9824      2.00000
     17       2.0561      2.00000
     18       2.1404      2.00000
     19       3.4965      2.00000
     20       3.7562      2.00000
     21       4.6673      0.00000
     22       5.5436      0.00000
     23       6.0632      0.00000
     24       6.1879      0.00000
     25       6.2186      0.00000
     26       6.9444      0.00000
     27       7.0771      0.00000
     28       8.0468      0.00000
     29       8.2042      0.00000
     30       8.3752      0.00000
     31       9.0280      0.00000
     32       9.7771      0.00000

 k-point     6 :       0.1667    0.1667    0.0000
  band No.  band energies     occupation 
      1     -10.5420      2.00000
      2      -9.9830      2.00000
      3      -9.5054      2.00000
      4      -8.8175      2.00000
      5      -4.7416      2.00000
      6      -4.1200      2.00000
      7      -3.4713      2.00000
      8      -2.4661      2.00000
      9      -1.6589      2.00000
     10      -0.6342      2.00000
     11      -0.1653      2.00000
     12       0.8624      2.00000
     13       1.0465      2.00000
     14       1.1013      2.00000
     15       1.5518      2.00000
     16       1.8238      2.00000
     17       2.0747      2.00000
     18       2.3228      2.00000
     19       3.5347      2.00000
     20       3.6034      2.00000
     21       4.7913      0.00000
     22       5.4792      0.00000
     23       5.9738      0.00000
     24       6.1517      0.00000
     25       6.6746      0.00000
     26       7.0451      0.00000
     27       7.5628      0.00000
     28       7.5912      0.00000
     29       7.6050      0.00000
     30       8.4181      0.00000
     31       8.8087      0.00000
     32       9.6296      0.00000

 k-point     7 :       0.1667   -0.1667    0.0000
  band No.  band energies     occupation 
      1     -10.5388      2.00000
      2      -9.9871      2.00000
      3      -9.5077      2.00000
      4      -8.8082      2.00000
      5      -4.8880      2.00000
      6      -3.9596      2.00000
      7      -3.4428      2.00000
      8      -2.5971      2.00000
      9      -1.4833      2.00000
     10      -0.5514      2.00000
     11      -0.1203      2.00000
     12       0.6152      2.00000
     13       0.9161      2.00000
     14       1.2151      2.00000
     15       1.2600      2.00000
     16       1.9597      2.00000
     17       2.2814      2.00000
     18       2.3281      2.00000
     19       3.3813      2.00000
     20       4.0078      2.00000
     21       4.4882      0.00000
     22       5.4174      0.00000
     23       5.8754      0.00000
     24       6.0076      0.00000
     25       6.8598      0.00000
     26       7.0261      0.00000
     27       7.3090      0.00000
     28       7.5768      0.00000
     29       8.2227      0.00000
     30       8.4327      0.00000
     31       8.9483      0.00000
     32       9.6255      0.00000

 k-point     8 :       0.3333    0.1667    0.0000
  band No.  band energies     occupation 
      1     -10.0298      2.00000
      2      -9.5461      2.00000
      3      -9.2515      2.00000
      4      -8.8449      2.00000
      5      -5.1262      2.00000
      6      -4.3597      2.00000
      7      -4.2629      2.00000
      8      -3.1317      2.00000
      9      -1.2448      2.00000
     10      -0.8631      2.00000
     11      -0.4653      2.00000
     12       0.4798      2.00000
     13       0.9485      2.00000
     14       1.0507      2.00000
     15       1.3822      2.00000
     16       1.5403      2.00000
     17       1.6348      2.00000
     18       2.2990      2.00000
     19       3.3384      2.00000
     20       3.5110      2.00000
     21       4.7697      0.00000
     22       5.2536      0.00000
     23       5.4670      0.00000
     24       5.9040      0.00000
     25       6.0099      0.00000
     26       6.5217      0.00000
     27       6.9298      0.00000
     28       7.6720      0.00000
     29       7.8530      0.00000
     30       8.6138      0.00000
     31       8.9313      0.00000
     32       9.7113      0.00000

 k-point     9 :       0.3333   -0.1667    0.0000
  band No.  band energies     occupation 
      1     -10.0195      2.00000
      2      -9.5605      2.00000
      3      -9.2700      2.00000
      4      -8.8110      2.00000
      5      -5.2961      2.00000
      6      -4.3026      2.00000
      7      -4.0711      2.00000
      8      -3.2213      2.00000
      9      -1.1641      2.00000
     10      -0.9168      2.00000
     11      -0.3117      2.00000
     12       0.3633      2.00000
     13       0.7410      2.00000
     14       1.0922      2.00000
     15       1.1377      2.00000
     16       1.5513      2.00000
     17       2.1051      2.00000
     18       2.2872      2.00000
     19       3.0588      2.00000
     20       3.9818      2.00000
     21       4.4608      0.00000
     22       4.9721      0.00000
     23       5.3012      0.00000
     24       5.7272      0.00000
     25       6.2384      0.00000
     26       6.8540      0.00000
     27       7.1836      0.00000
     28       7.5849      0.00000
     29       7.8961      0.00000
     30       8.3921      0.00000
     31       9.4242      0.00000
     32       9.5420      0.00000

 k-point    10 :       0.5000    0.1667    0.0000
  band No.  band energies     occupation 
      1      -9.4277      2.00000
      2      -9.3953      2.00000
      3      -9.1191      2.00000
      4      -9.0741      2.00000
      5      -5.2315      2.00000
      6      -5.1186      2.00000
      7      -3.9873      2.00000
      8      -3.8527      2.00000
      9      -0.6542      2.00000
     10      -0.5512      2.00000
     11      -0.1108      2.00000
     12      -0.0112      2.00000
     13       0.5076      2.00000
     14       0.6654      2.00000
     15       1.1718      2.00000
     16       1.3980      2.00000
     17       1.8175      2.00000
     18       2.0153      2.00000
     19       3.1798      2.00000
     20       3.7575      2.00000
     21       4.6683      0.00000
     22       4.9061      0.00000
     23       5.4556      0.00000
     24       5.9824      0.00000
     25       6.1395      0.00000
     26       6.3260      0.00000
     27       6.4508      0.00000
     28       6.6902      0.00000
     29       7.7597      0.00000
     30       7.9579      0.00000
     31       9.3110      0.00000
     32       9.8047      0.00000

 k-point    11 :       0.0000    0.3333    0.0000
  band No.  band energies     occupation 
      1     -10.4244      2.00000
      2      -9.8569      2.00000
      3      -9.7386      2.00000
      4      -9.0935      2.00000
      5      -5.0258      2.00000
      6      -4.2299      2.00000
      7      -4.0318      2.00000
      8      -3.0151      2.00000
      9      -1.2866      2.00000
     10       0.2034      2.00000
     11       0.9628      2.00000
     12       1.1076      2.00000
     13       1.3024      2.00000
     14       1.6452      2.00000
     15       1.7485      2.00000
     16       2.2746      2.00000
     17       2.3633      2.00000
     18       3.0849      2.00000
     19       3.7135      2.00000
     20       3.8956      2.00000
     21       4.4338      0.00000
     22       5.0797      0.00000
     23       5.3638      0.00000
     24       5.7299      0.00000
     25       6.0864      0.00000
     26       6.4476      0.00000
     27       6.6672      0.00000
     28       7.3015      0.00000
     29       7.4877      0.00000
     30       7.5111      0.00000
     31       9.3600      0.00000
     32       9.9100      0.00000

 k-point    12 :       0.1667    0.3333    0.0000
  band No.  band energies     occupation 
      1     -10.2527      2.00000
      2      -9.7057      2.00000
      3      -9.6009      2.00000
      4      -9.0283      2.00000
      5      -4.9024      2.00000
      6      -4.2061      2.00000
      7      -4.0850      2.00000
      8      -3.1165      2.00000
      9      -1.1567      2.00000
     10      -0.6952      2.00000
     11      -0.2172      2.00000
     12       0.4545      2.00000
     13       0.8770      2.00000
     14       0.9718      2.00000
     15       1.7968      2.00000
     16       2.0334      2.00000
     17       2.2636      2.00000
     18       2.8719      2.00000
     19       3.6899      2.00000
     20       3.7827      2.00000
     21       4.9229      0.00000
     22       5.6229      0.00000
     23       5.8199      0.00000
     24       6.0805      0.00000
     25       6.5665      0.00000
     26       6.6345      0.00000
     27       6.9636      0.00000
     28       7.6126      0.00000
     29       7.7227      0.00000
     30       8.5028      0.00000
     31       8.8063      0.00000
     32       9.5602      0.00000

 k-point    13 :       0.1667   -0.3333    0.0000
  band No.  band energies     occupation 
      1     -10.2461      2.00000
      2      -9.7152      2.00000
      3      -9.6077      2.00000
      4      -9.0122      2.00000
      5      -5.0298      2.00000
      6      -4.1785      2.00000
      7      -3.9612      2.00000
      8      -3.1394      2.00000
      9      -1.1495      2.00000
     10      -0.4875      2.00000
     11      -0.1044      2.00000
     12       0.2796      2.00000
     13       0.3843      2.00000
     14       1.0743      2.00000
     15       1.8613      2.00000
     16       2.0785      2.00000
     17       2.7758      2.00000
     18       2.7963      2.00000
     19       3.2561      2.00000
     20       3.9893      2.00000
     21       4.9119      0.00000
     22       5.2119      0.00000
     23       5.6957      0.00000
     24       6.0747      0.00000
     25       6.4941      0.00000
     26       6.9476      0.00000
     27       7.1947      0.00000
     28       7.4580      0.00000
     29       7.8857      0.00000
     30       8.4394      0.00000
     31       9.1388      0.00000
     32       9.5080      0.00000

 k-point    14 :       0.3333    0.3333    0.0000
  band No.  band energies     occupation 
      1      -9.8023      2.00000
      2      -9.3358      2.00000
      3      -9.3034      2.00000
      4      -8.9550      2.00000
      5      -4.8130      2.00000
      6      -4.4939      2.00000
      7      -4.2192      2.00000
      8      -3.4220      2.00000
      9      -1.4444      2.00000
     10      -0.9283      2.00000
     11      -0.8212      2.00000
     12      -0.3373      2.00000
     13       0.2001      2.00000
     14       0.6304      2.00000
     15       0.6422      2.00000
     16       1.2517      2.00000
     17       1.2943      2.00000
     18       2.4074      2.00000
     19       3.0878      2.00000
     20       3.6499      2.00000
     21       5.2636      0.00000
     22       5.9680      0.00000
     23       6.4281      0.00000
     24       6.4765      0.00000
     25       7.1573      0.00000
     26       7.4810      0.00000
     27       7.7865      0.00000
     28       8.4142      0.00000
     29       8.5800      0.00000
     30       8.9152      0.00000
     31       9.3490      0.00000
     32       9.6022      0.00000

 k-point    15 :       0.3333   -0.3333    0.0000
  band No.  band energies     occupation 
      1      -9.7796      2.00000
      2      -9.3684      2.00000
      3      -9.3385      2.00000
      4      -8.8980      2.00000
      5      -5.1156      2.00000
      6      -4.3345      2.00000
      7      -3.8817      2.00000
      8      -3.5982      2.00000
      9      -1.4012      2.00000
     10      -0.9871      2.00000
     11      -0.7519      2.00000
     12      -0.3685      2.00000
     13       0.2959      2.00000
     14       0.3059      2.00000
     15       0.5472      2.00000
     16       1.3525      2.00000
     17       1.7236      2.00000
     18       2.1133      2.00000
     19       3.0243      2.00000
     20       4.1085      2.00000
     21       4.6666      0.00000
     22       5.8572      0.00000
     23       6.3774      0.00000
     24       6.5693      0.00000
     25       7.1889      0.00000
     26       7.4777      0.00000
     27       8.2462      0.00000
     28       8.3343      0.00000
     29       8.5730      0.00000
     30       8.8895      0.00000
     31       9.4862      0.00000
     32       9.6750      0.00000

 k-point    16 :       0.5000    0.3333    0.0000
  band No.  band energies     occupation 
      1      -9.3496      2.00000
      2      -9.2796      2.00000
      3      -9.0855      2.00000
      4      -8.9924      2.00000
      5      -5.0592      2.00000
      6      -4.7743      2.00000
      7      -4.0738      2.00000
      8      -3.7388      2.00000
      9      -1.0751      2.00000
     10      -1.0576      2.00000
     11      -0.5356      2.00000
     12      -0.5211      2.00000
     13      -0.3333      2.00000
     14      -0.2499      2.00000
     15       0.7237      2.00000
     16       0.8786      2.00000
     17       1.0635      2.00000
     18       1.4121      2.00000
     19       2.9322      2.00000
     20       3.8974      2.00000
     21       5.0467      0.00000
     22       5.9045      0.00000
     23       6.8288      0.00000
     24       7.2206      0.00000
     25       7.3776      0.00000
     26       7.4072      0.00000
     27       8.4233      0.00000
     28       8.4326      0.00000
     29       8.5337      0.00000
     30       8.9810      0.00000
     31       9.0215      0.00000
     32       9.5033      0.00000

 k-point    17 :       0.0000    0.5000    0.0000
  band No.  band energies     occupation 
      1     -10.0327      2.00000
      2     -10.0327      2.00000
      3      -9.4621      2.00000
      4      -9.4621      2.00000
      5      -4.9026      2.00000
      6      -4.9026      2.00000
      7      -3.7112      2.00000
      8      -3.7112      2.00000
      9      -0.5897      2.00000
     10      -0.5897      2.00000
     11       1.4113      2.00000
     12       1.4113      2.00000
     13       1.4977      2.00000
     14       1.4977      2.00000
     15       2.3006      2.00000
     16       2.3006      2.00000
     17       3.2053      2.00000
     18       3.2053      2.00000
     19       3.3562      2.00000
     20       3.3562      2.00000
     21       4.8235      0.00000
     22       4.8235      0.00000
     23       5.4070      0.00000
     24       5.4070      0.00000
     25       6.0034      0.00000
     26       6.0034      0.00000
     27       6.8489      0.00000
     28       6.8489      0.00000
     29       6.9174      0.00000
     30       6.9174      0.00000
     31       9.7433      0.00000
     32       9.7433      0.00000

 k-point    18 :       0.1667    0.5000    0.0000
  band No.  band energies     occupation 
      1      -9.8848      2.00000
      2      -9.8758      2.00000
      3      -9.3571      2.00000
      4      -9.3417      2.00000
      5      -4.8246      2.00000
      6      -4.7567      2.00000
      7      -3.7338      2.00000
      8      -3.6821      2.00000
      9      -0.6709      2.00000
     10      -0.4483      2.00000
     11      -0.0780      2.00000
     12      -0.0294      2.00000
     13       0.3460      2.00000
     14       0.7521      2.00000
     15       1.8201      2.00000
     16       2.1450      2.00000
     17       2.6267      2.00000
     18       3.1913      2.00000
     19       3.4069      2.00000
     20       3.9105      2.00000
     21       5.1609      0.00000
     22       5.2955      0.00000
     23       5.9885      0.00000
     24       6.0145      0.00000
     25       6.5946      0.00000
     26       6.8082      0.00000
     27       7.1097      0.00000
     28       7.3617      0.00000
     29       7.8482      0.00000
     30       8.1482      0.00000
     31       9.0540      0.00000
     32       9.3105      0.00000

[...]
     32       8.6854      0.00000

 k-point    32 :       0.1667    0.3333    0.5000
  band No.  band energies     occupation 
      1     -10.0831      2.00000
      2     -10.0831      2.00000
      3      -9.2102      2.00000
      4      -9.2102      2.00000
      5      -4.5905      2.00000
      6      -4.5905      2.00000
      7      -3.7141      2.00000
      8      -3.7141      2.00000
      9      -0.5081      2.00000
     10      -0.5081      2.00000
     11       0.1024      2.00000
     12       0.1025      2.00000
     13       0.7004      2.00000
     14       0.7004      2.00000
     15       2.0174      2.00000
     16       2.0174      2.00000
     17       2.4829      2.00000
     18       2.4829      2.00000
     19       3.2058      2.00000
     20       3.2058      2.00000
     21       5.5457      0.00000
     22       5.5457      0.00000
     23       6.1263      0.00000
     24       6.1263      0.00000
     25       6.9672      0.00000
     26       6.9672      0.00000
     27       7.4203      0.00000
     28       7.4203      0.00000
     29       8.1935      0.00000
     30       8.1935      0.00000
     31       8.4532      0.00000
     32       8.4532      0.00000

 k-point    33 :       0.1667   -0.3333    0.5000
  band No.  band energies     occupation 
      1     -10.0817      2.00000
      2     -10.0817      2.00000
      3      -9.2109      2.00000
      4      -9.2109      2.00000
      5      -4.6282      2.00000
      6      -4.6282      2.00000
      7      -3.6717      2.00000
      8      -3.6717      2.00000
      9      -0.6245      2.00000
     10      -0.6245      2.00000
     11       0.2593      2.00000
     12       0.2593      2.00000
     13       0.9731      2.00000
     14       0.9731      2.00000
     15       1.6305      2.00000
     16       1.6305      2.00000
     17       2.5220      2.00000
     18       2.5220      2.00000
     19       3.0961      2.00000
     20       3.0961      2.00000
     21       5.5173      0.00000
     22       5.5173      0.00000
     23       6.4641      0.00000
     24       6.4641      0.00000
     25       6.8594      0.00000
     26       6.8594      0.00000
     27       7.3166      0.00000
     28       7.3166      0.00000
     29       8.0807      0.00000
     30       8.0807      0.00000
     31       8.9320      0.00000
     32       8.9320      0.00000

 k-point    34 :       0.3333    0.3333    0.5000
  band No.  band energies     occupation 
      1      -9.6566      2.00000
      2      -9.6566      2.00000
      3      -9.0405      2.00000
      4      -9.0405      2.00000
      5      -4.6505      2.00000
      6      -4.6505      2.00000
      7      -3.8997      2.00000
      8      -3.8997      2.00000
      9      -1.1679      2.00000
     10      -1.1679      2.00000
     11      -0.5751      2.00000
     12      -0.5751      2.00000
     13       0.4286      2.00000
     14       0.4286      2.00000
     15       1.1946      2.00000
     16       1.1946      2.00000
     17       1.7994      2.00000
     18       1.7994      2.00000
     19       2.8796      2.00000
     20       2.8796      2.00000
     21       6.0069      0.00000
     22       6.0069      0.00000
     23       6.3591      0.00000
     24       6.3591      0.00000
     25       7.5436      0.00000
     26       7.5436      0.00000
     27       8.1024      0.00000
     28       8.1024      0.00000
     29       8.6704      0.00000
     30       8.6704      0.00000
     31       9.4862      0.00000
     32       9.4862      0.00000

 k-point    35 :       0.3333   -0.3333    0.5000
  band No.  band energies     occupation 
      1      -9.6539      2.00000
      2      -9.6539      2.00000
      3      -9.0424      2.00000
      4      -9.0424      2.00000
      5      -4.7010      2.00000
      6      -4.7010      2.00000
      7      -3.8406      2.00000
      8      -3.8406      2.00000
      9      -1.2414      2.00000
     10      -1.2414      2.00000
     11      -0.4580      2.00000
     12      -0.4580      2.00000
     13       0.4792      2.00000
     14       0.4792      2.00000
     15       1.2644      2.00000
     16       1.2644      2.00000
     17       1.5946      2.00000
     18       1.5946      2.00000
     19       2.8313      2.00000
     20       2.8313      2.00000
     21       6.0242      0.00000
     22       6.0242      0.00000
     23       6.4346      0.00000
     24       6.4346      0.00000
     25       7.5299      0.00000
     26       7.5299      0.00000
     27       8.2473      0.00000
     28       8.2473      0.00000
     29       8.7074      0.00000
     30       8.7074      0.00000
     31       9.3761      0.00000
     32       9.3761      0.00000

 k-point    36 :       0.5000    0.3333    0.5000
  band No.  band energies     occupation 
      1      -9.3081      2.00000
      2      -9.3081      2.00000
      3      -9.0496      2.00000
      4      -9.0496      2.00000
      5      -4.8233      2.00000
      6      -4.8233      2.00000
      7      -4.0578      2.00000
      8      -4.0578      2.00000
      9      -1.0264      2.00000
     10      -1.0264      2.00000
     11      -0.4633      2.00000
     12      -0.4633      2.00000
     13      -0.2888      2.00000
     14      -0.2888      2.00000
     15       0.6064      2.00000
     16       0.6064      2.00000
     17       1.8413      2.00000
     18       1.8413      2.00000
     19       2.5897      2.00000
     20       2.5897      2.00000
     21       5.8706      0.00000
     22       5.8706      0.00000
     23       7.1201      0.00000
     24       7.1201      0.00000
     25       7.3015      0.00000
     26       7.3015      0.00000
     27       8.4726      0.00000
     28       8.4726      0.00000
     29       8.8908      0.00000
     30       8.8908      0.00000
     31       9.1329      0.00000
     32       9.1329      0.00000

 k-point    37 :       0.0000    0.5000    0.5000
  band No.  band energies     occupation 
      1     -10.0261      2.00000
      2     -10.0261      2.00000
      3      -9.4741      2.00000
      4      -9.4741      2.00000
      5      -4.5164      2.00000
      6      -4.5164      2.00000
      7      -4.2889      2.00000
      8      -4.2889      2.00000
      9       0.3909      2.00000
     10       0.3909      2.00000
     11       1.0176      2.00000
     12       1.0176      2.00000
     13       1.4780      2.00000
     14       1.4780      2.00000
     15       1.6302      2.00000
     16       1.6302      2.00000
     17       3.1076      2.00000
     18       3.1076      2.00000
     19       3.2713      2.00000
     20       3.2713      2.00000
     21       5.0043      0.00000
     22       5.0043      0.00000
     23       5.2087      0.00000
     24       5.2087      0.00000
     25       6.6834      0.00000
     26       6.6834      0.00000
     27       6.7135      0.00000
     28       6.7135      0.00000
     29       8.1808      0.00000
     30       8.1808      0.00000
     31       8.2163      0.00000
     32       8.2163      0.00000

 k-point    38 :       0.1667    0.5000    0.5000
  band No.  band energies     occupation 
      1      -9.8736      2.00000
      2      -9.8736      2.00000
      3      -9.3610      2.00000
      4      -9.3610      2.00000
      5      -4.4270      2.00000
      6      -4.4270      2.00000
      7      -4.2251      2.00000
      8      -4.2251      2.00000
      9      -0.3464      2.00000
     10      -0.3464      2.00000
     11       0.1479      2.00000
     12       0.1479      2.00000
     13       0.9765      2.00000
     14       0.9765      2.00000
     15       1.4472      2.00000
     16       1.4472      2.00000
     17       2.4887      2.00000
     18       2.4887      2.00000
     19       3.2776      2.00000
     20       3.2776      2.00000
     21       5.6674      0.00000
     22       5.6674      0.00000
     23       6.1605      0.00000
     24       6.1605      0.00000
     25       7.1606      0.00000
     26       7.1606      0.00000
     27       7.6269      0.00000
     28       7.6269      0.00000
     29       7.8547      0.00000
     30       7.8547      0.00000
     31       8.6641      0.00000
     32       8.6641      0.00000

 k-point    39 :       0.3333    0.5000    0.5000
  band No.  band energies     occupation 
      1      -9.5061      2.00000
      2      -9.5061      2.00000
      3      -9.1230      2.00000
      4      -9.1230      2.00000
      5      -4.5150      2.00000
      6      -4.5150      2.00000
      7      -4.0383      2.00000
      8      -4.0383      2.00000
      9      -1.2083      2.00000
     10      -1.2083      2.00000
     11      -0.9569      2.00000
     12      -0.9569      2.00000
     13       0.4524      2.00000
     14       0.4524      2.00000
     15       0.9435      2.00000
     16       0.9435      2.00000
     17       1.6706      2.00000
     18       1.6706      2.00000
     19       2.6514      2.00000
     20       2.6514      2.00000
     21       6.1802      0.00000
     22       6.1802      0.00000
     23       7.3752      0.00000
     24       7.3752      0.00000
     25       7.6637      0.00000
     26       7.6637      0.00000
     27       8.5883      0.00000
     28       8.5883      0.00000
     29       9.0840      0.00000
     30       9.0840      0.00000
     31       9.5070      0.00000
     32       9.5070      0.00000

 k-point    40 :       0.5000    0.5000    0.5000
  band No.  band energies     occupation 
      1      -9.2619      2.00000
      2      -9.2619      2.00000
      3      -9.0141      2.00000
      4      -9.0141      2.00000
      5      -4.7230      2.00000
      6      -4.7230      2.00000
      7      -3.9775      2.00000
      8      -3.9775      2.00000
      9      -1.3337      2.00000
     10      -1.3337      2.00000
     11      -0.6649      2.00000
     12      -0.6649      2.00000
     13      -0.6275      2.00000
     14      -0.6275      2.00000
     15       0.2284      2.00000
     16       0.2284      2.00000
     17       1.9124      2.00000
     18       1.9124      2.00000
     19       2.5677      2.00000
     20       2.5677      2.00000
     21       5.6705      0.00000
     22       5.6705      0.00000
     23       7.7649      0.00000
     24       7.7649      0.00000
     25       8.3266      0.00000
     26       8.3266      0.00000
     27       8.8643      0.00000
     28       8.8643      0.00000
     29       9.1262      0.00000
     30       9.1262      0.00000
     31      10.0683      0.00000
     32      10.0683      0.00000


--------------------------------------------------------------------------------------------------------


 soft charge-density along one line, spin component            1
         0         1         2         3         4         5         6         7         8         9
 total charge-density along one line
 
 pseudopotential strength for first ion, spin component:            1
 14.381  17.938   0.047   0.034  -0.005   0.084   0.062  -0.009
 17.938  22.388   0.059   0.043  -0.006   0.106   0.078  -0.011
  0.047   0.059   3.202  -0.002   0.001   5.450  -0.004   0.002
  0.034   0.043  -0.002   3.202   0.000  -0.004   5.449   0.001
 -0.005  -0.006   0.001   0.000   3.204   0.002   0.001   5.452
  0.084   0.106   5.450  -0.004   0.002   9.331  -0.006   0.003
  0.062   0.078  -0.004   5.449   0.001  -0.006   9.330   0.001
 -0.009  -0.011   0.002   0.001   5.452   0.003   0.001   9.335
  0.002   0.002  -0.001  -0.000   0.008  -0.002  -0.000   0.016
 -0.005  -0.006   0.008   0.014  -0.000   0.015   0.025  -0.000
 -0.001  -0.001  -0.005   0.009   0.001  -0.009   0.017   0.002
  0.001   0.001  -0.000  -0.001   0.009  -0.000  -0.001   0.016
  0.002   0.002  -0.014   0.000  -0.001  -0.025   0.000  -0.002
 total augmentation occupancy for first ion, spin component:            1
  2.865  -0.821   0.379   0.303  -0.018  -0.071  -0.057   0.001   0.005  -0.015   0.018   0.011   0.010
 -0.821   0.787  -0.476  -0.382   0.042   0.078   0.059  -0.006  -0.006   0.009  -0.022  -0.016  -0.007
  0.379  -0.476   1.268   0.023  -0.015  -0.212   0.007   0.001   0.001   0.044  -0.092   0.002   0.001
  0.303  -0.382   0.023   1.366   0.005   0.006  -0.235  -0.005  -0.003  -0.006   0.073  -0.012  -0.003
 -0.018   0.042  -0.015   0.005   1.272   0.001  -0.005  -0.225   0.149  -0.001  -0.008   0.037  -0.002
 -0.071   0.078  -0.212   0.006   0.001   0.040  -0.003  -0.000  -0.000  -0.007   0.016  -0.000   0.000
 -0.057   0.059   0.007  -0.235  -0.005  -0.003   0.046   0.001   0.000   0.001  -0.013   0.003   0.000
  0.001  -0.006   0.001  -0.005  -0.225  -0.000   0.001   0.044  -0.027  -0.000   0.001  -0.006   0.000
  0.005  -0.006   0.001  -0.003   0.149  -0.000   0.000  -0.027   0.031  -0.000   0.001   0.004  -0.000
 -0.015   0.009   0.044  -0.006  -0.001  -0.007   0.001  -0.000  -0.000   0.014  -0.009  -0.001   0.001
  0.018  -0.022  -0.092   0.073  -0.008   0.016  -0.013   0.001   0.001  -0.009   0.037   0.004  -0.002
  0.011  -0.016   0.002  -0.012   0.037  -0.000   0.003  -0.006   0.004  -0.001   0.004   0.012   0.000
  0.010  -0.007   0.001  -0.003  -0.002   0.000   0.000   0.000  -0.000   0.001  -0.002   0.000   0.009


------------------------ aborting loop because EDIFF is reached ----------------------------------------


    CHARGE:  cpu time      0.0051: real time      0.0051
    FORLOC:  cpu time      0.0002: real time      0.0002
    FORNL :  cpu time      0.0257: real time      0.0258
    STRESS:  cpu time      0.2453: real time      0.2462
    FORCOR:  cpu time      0.0067: real time      0.0068
    FORHAR:  cpu time      0.0015: real time      0.0015
    MIXING:  cpu time      0.0006: real time      0.0006
    OFIELD:  cpu time      0.0000: real time      0.0000

  FORCE on cell =-STRESS in cart. coord.  units (eV):
  Direction    XX          YY          ZZ          XY          YZ          ZX
  --------------------------------------------------------------------------------------
  Alpha Z    91.66130    91.66130    91.66130
  Ewald    -461.93725  -542.34131  -437.36538    -5.59770     0.00006     0.00005
  Hartree    55.35856    20.07467    55.44673    -2.79165     0.00001     0.00001
  E(xc)    -142.04578  -142.17440  -141.85753    -0.00039    -0.00000     0.00000
  Local    -163.70233   -56.15403  -193.25795     9.32740    -0.00006    -0.00005
  n-local   242.14595   241.89111   243.35470    -0.34239     0.00000     0.00000
  augment   -11.20417   -11.81615   -11.82170     0.05044     0.00000     0.00000
  Kinetic   391.21814   400.89061   405.91274     0.15237    -0.00001    -0.00001
  Fock        0.00000     0.00000     0.00000     0.00000     0.00000     0.00000
  -------------------------------------------------------------------------------------
  Total       1.49443     2.03179    12.07291     0.79808     0.00000    -0.00000
  in kB      12.95221    17.60955   104.63606     6.91699     0.00000    -0.00002
  external pressure =       45.07 kB  Pullay stress =        0.00 kB


 VOLUME and BASIS-vectors are now :
 -----------------------------------------------------------------------------
  energy-cutoff  :      360.00
  volume of cell :      184.86
      direct lattice vectors                 reciprocal lattice vectors
     3.858100176  0.000000000  0.000000000     0.259194929  0.000000000  0.000000000
     0.000000000  4.526575088  0.000000000     0.000000000  0.220917577  0.000000000
     0.000000000  0.000000000 10.585176468     0.000000000  0.000000000  0.094471736

  length of vectors
     3.858100176  4.526575088 10.585176468     0.259194929  0.220917577  0.094471736


 FORCES acting on ions
    electron-ion (+dipol)            ewald-force                    non-local-force                 convergence-correction
 -----------------------------------------------------------------------------------------------
   -.139E+01 0.195E+02 0.160E+02   0.181E+01 -.225E+02 -.180E+02   -.469E+00 0.263E+01 0.218E+01   0.765E-04 -.300E-03 -.563E-03
   -.139E+01 0.195E+02 -.160E+02   0.181E+01 -.225E+02 0.180E+02   -.469E+00 0.263E+01 -.218E+01   0.767E-04 -.300E-03 0.562E-03
   0.139E+01 -.195E+02 -.160E+02   -.181E+01 0.225E+02 0.180E+02   0.469E+00 -.263E+01 -.218E+01   -.765E-04 0.300E-03 0.563E-03
   0.139E+01 -.195E+02 0.160E+02   -.181E+01 0.225E+02 -.180E+02   0.469E+00 -.263E+01 0.218E+01   -.767E-04 0.301E-03 -.563E-03
   -.145E+01 -.192E+02 -.118E+02   0.154E+01 0.209E+02 0.130E+02   0.188E+00 -.149E+01 -.104E+01   -.171E-03 0.197E-03 0.861E-03
   -.145E+01 -.192E+02 0.118E+02   0.154E+01 0.209E+02 -.130E+02   0.188E+00 -.149E+01 0.104E+01   -.170E-03 0.196E-03 -.863E-03
   0.145E+01 0.192E+02 0.118E+02   -.154E+01 -.209E+02 -.130E+02   -.188E+00 0.149E+01 0.104E+01   0.171E-03 -.197E-03 -.864E-03
   0.145E+01 0.192E+02 -.118E+02   -.154E+01 -.209E+02 0.130E+02   -.188E+00 0.149E+01 -.104E+01   0.171E-03 -.196E-03 0.863E-03
 -----------------------------------------------------------------------------------------------
   -.876E-05 0.193E-04 0.359E-05   0.422E-14 0.355E-14 0.124E-13   -.296E-04 0.472E-03 -.265E-05   0.352E-06 -.165E-06 -.227E-05
 
 
 POSITION                                       TOTAL-FORCE (eV/Angst)
 -----------------------------------------------------------------------------------
      1.91507      1.98281      1.23098        -0.049889     -0.364876      0.156902
      3.84412      4.24609      4.06160        -0.049888     -0.364879     -0.156892
      2.89357      3.98702      9.35419         0.050016      0.364927     -0.156858
      0.96452      1.72374      6.52357         0.050020      0.364924      0.156852
      1.91507      1.42036      3.75268         0.276640      0.154857      0.155068
      3.84412      3.68364      1.53991         0.276642      0.154852     -0.155074
      2.89357      0.02290      6.83250        -0.276772     -0.154901     -0.155035
      0.96452      2.28618      9.04526        -0.276770     -0.154904      0.155037
 -----------------------------------------------------------------------------------
    total drift:                               -0.000038      0.000491     -0.000001


--------------------------------------------------------------------------------------------------------



  FREE ENERGIE OF THE ION-ELECTRON SYSTEM (eV)
  ---------------------------------------------------
  free  energy   TOTEN  =       -33.00418168 eV

  energy  without entropy=      -33.00418164  energy(sigma->0) =      -33.00418166
 


--------------------------------------------------------------------------------------------------------


    POTLOK:  cpu time      0.2250: real time      0.2257


--------------------------------------------------------------------------------------------------------


     LOOP+:  cpu time      7.8711: real time      7.9112
    4ORBIT:  cpu time      0.0000: real time      0.0000

 total amount of memory used by VASP MPI-rank0    36587. kBytes
=======================================================================

   base      :      30000. kBytes
   nonl-proj :       5001. kBytes
   fftplans  :        306. kBytes
   grid      :        466. kBytes
   one-center:         16. kBytes
   wavefun   :        798. kBytes
 
  
  
 General timing and accounting informations for this job:
 ========================================================
  
                  Total CPU time used (sec):        9.890
                            User time (sec):        9.585
                          System time (sec):        0.305
                         Elapsed time (sec):       12.323
  
                   Maximum memory used (kb):      174644.
                   Average memory used (kb):          N/A
  
                          Minor page faults:        17450
                          Major page faults:           51
                 Voluntary context switches:        15940
