 running  160 mpi-ranks, with    1 threads/rank, on   10 nodes
 distrk:  each k-point on   80 cores,    2 groups
 distr:  one band on    5 cores,   16 groups
 vasp.6.4.2 20Jul23 (build Oct 12 2023 10:31:02) complex                         
 POSCAR found type information on POSCAR GeSe
 POSCAR found :  2 types and       8 ions
 Reading from existing POTCAR
 scaLAPACK will be used
 Reading from existing POTCAR
 LDA part: xc-table for Pade appr. of Perdew
 POSCAR, INCAR and KPOINTS ok, starting setup
 FFT: planning ... GRIDC
 FFT: planning ... GRID_SOFT
 FFT: planning ... GRID
 WAVECAR not read
 entering main loop
       N       E                     dE             d eps       ncg     rms          rms(c)
DAV:   1     0.130609670725E+03    0.13061E+03   -0.12995E+04  2560   0.778E+02
DAV:   2    -0.248987517075E+02   -0.15551E+03   -0.15138E+03  3712   0.141E+02
DAV:   3    -0.331992374251E+02   -0.83005E+01   -0.82850E+01  3120   0.375E+01
DAV:   4    -0.332549253813E+02   -0.55688E-01   -0.55677E-01  3408   0.350E+00
DAV:   5    -0.332552700840E+02   -0.34470E-03   -0.34470E-03  3088   0.269E-01    0.695E+00
DAV:   6    -0.329228050765E+02    0.33247E+00   -0.66132E-01  3328   0.272E+00    0.437E+00
DAV:   7    -0.329048765686E+02    0.17929E-01   -0.20900E-01  2976   0.166E+00    0.117E+00
DAV:   8    -0.329030519711E+02    0.18246E-02   -0.19768E-02  3024   0.540E-01    0.179E-01
DAV:   9    -0.329033996948E+02   -0.34772E-03   -0.26191E-03  3264   0.228E-01    0.659E-02
DAV:  10    -0.329034928826E+02   -0.93188E-04   -0.20528E-04  3344   0.608E-02    0.229E-02
DAV:  11    -0.329035221003E+02   -0.29218E-04   -0.37212E-05  2896   0.272E-02    0.100E-02
DAV:  12    -0.329035238809E+02   -0.17807E-05   -0.49238E-06  3568   0.102E-02    0.393E-03
DAV:  13    -0.329035238400E+02    0.40915E-07   -0.86164E-07  1744   0.433E-03
   1 F= -.32903524E+02 E0= -.32903524E+02  d E =-.190284E-06
