 vasp.6.4.2 20Jul23 (build Oct 12 2023 10:31:02) complex                         
 executed on              LinuxNV date 2025.05.19  06:16:00
 running  160 mpi-ranks, with    1 threads/rank, on   10 nodes
 distrk:  each k-point on   80 cores,    2 groups
 distr:  one band on NCORE=   5 cores,   16 groups


--------------------------------------------------------------------------------------------------------


 INCAR:
   ENCUT = 360.000000
   SIGMA = 0.050000
   EDIFF = 1.00e-06
   ALGO = Normal
   GGA = PE
   PREC = Normal
   SYSTEM = ./
   ICHARG = 2
   ISMEAR = 0
   ISPIN = 1
   ISTART = 0
   ISYM = 0
   KPAR = 2
   LMAXMIX = 4
   NELM = 100
   NPAR = 16
   LASPH = .TRUE.
   LCHARG = .FALSE.
   LWAVE = .FALSE.

 POTCAR:    PAW_PBE Ge 05Jan2001                  
 POTCAR:    PAW_PBE Se 06Sep2000                  
 POTCAR:    PAW_PBE Ge 05Jan2001                  
   VRHFIN =Ge: s2p2                                                                                 
   LEXCH  = PE                                                                                      
   EATOM  =   104.9960 eV,    7.7170 Ry                                                             
                                                                                                    
   TITEL  = PAW_PBE Ge 05Jan2001                                                                    
   LULTRA =        F    use ultrasoft PP ?                                                          
   IUNSCR =        1    unscreen: 0-lin 1-nonlin 2-no                                               
   RPACOR =    2.170    partial core radius                                                         
   POMASS =   72.610; ZVAL   =    4.000    mass and valenz                                          
   RCORE  =    2.300    outmost cutoff radius                                                       
   RWIGS  =    2.300; RWIGS  =    1.217    wigner-seitz radius (au A)                               
   ENMAX  =  173.807; ENMIN  =  130.355 eV                                                          
   ICORE  =        3    local potential                                                             
   LCOR   =        T    correct aug charges                                                         
   LPAW   =        T    paw PP                                                                      
   EAUG   =  385.843                                                                                
   DEXC   =    0.000                                                                                
   RMAX   =    2.342    core radius for proj-oper                                                   
   RAUG   =    1.300    factor for augmentation sphere                                              
   RDEP   =    2.318    radius for radial grids                                                     
   RDEPT  =    2.103    core radius for aug-charge                                                  
                                                                                                    
   Atomic configuration                                                                             
   10 entries                                                                                       
     n  l   j            E        occ.                                                              
     1  0  0.50    -10959.8463   2.0000                                                             
     2  0  0.50     -1371.6056   2.0000                                                             
     2  1  1.50     -1198.4791   6.0000                                                             
     3  0  0.50      -168.4733   2.0000                                                             
     3  1  1.50      -115.6019   6.0000                                                             
     3  2  2.50       -29.3106  10.0000                                                             
     4  0  0.50       -11.7309   2.0000                                                             
     4  1  0.50        -3.8952   2.0000                                                             
     4  2  1.50        -4.0817   0.0000                                                             
     4  3  2.50        -4.0817   0.0000                                                             
   Description                                                                                      
     l       E           TYP  RCUT    TYP  RCUT                                                     
     0    -11.7309493     23  2.300                                                                 
     0     -7.4578696     23  2.300                                                                 
     1     -3.8952261     23  2.300                                                                 
     1      6.1178114     23  2.300                                                                 
     2     -4.0817478     23  2.300                                                                 
     3     -1.3605826      7  2.300                                                                 
  local pseudopotential read in
  partial core-charges read in
  partial kinetic energy density read in
  atomic valenz-charges read in
  non local Contribution for L=            0  read in
    real space projection operators read in
  non local Contribution for L=            0  read in
    real space projection operators read in
  non local Contribution for L=            1  read in
    real space projection operators read in
  non local Contribution for L=            1  read in
    real space projection operators read in
  non local Contribution for L=            2  read in
    real space projection operators read in
    PAW grid and wavefunctions read in
 
   number of l-projection  operators is LMAX  =            5
   number of lm-projection operators is LMMAX =           13
 
 POTCAR:    PAW_PBE Se 06Sep2000                  
   VRHFIN =Se: s2p4                                                                                 
   LEXCH  = PE                                                                                      
   EATOM  =   257.1286 eV,   18.8984 Ry                                                             
                                                                                                    
   TITEL  = PAW_PBE Se 06Sep2000                                                                    
   LULTRA =        F    use ultrasoft PP ?                                                          
   IUNSCR =        1    unscreen: 0-lin 1-nonlin 2-no                                               
   RPACOR =    1.900    partial core radius                                                         
   POMASS =   78.960; ZVAL   =    6.000    mass and valenz                                          
   RCORE  =    2.100    outmost cutoff radius                                                       
   RWIGS  =    2.200; RWIGS  =    1.164    wigner-seitz radius (au A)                               
   ENMAX  =  211.555; ENMIN  =  158.666 eV                                                          
   ICORE  =        3    local potential                                                             
   LCOR   =        T    correct aug charges                                                         
   LPAW   =        T    paw PP                                                                      
   EAUG   =  446.842                                                                                
   DEXC   =    0.000                                                                                
   RMAX   =    2.147    core radius for proj-oper                                                   
   RAUG   =    1.300    factor for augmentation sphere                                              
   RDEP   =    2.177    radius for radial grids                                                     
   RDEPT  =    1.928    core radius for aug-charge                                                  
                                                                                                    
   Atomic configuration                                                                             
   10 entries                                                                                       
     n  l   j            E        occ.                                                              
     1  0  0.50    -12503.4787   2.0000                                                             
     2  0  0.50     -1606.9547   2.0000                                                             
     2  1  1.50     -1413.3140   6.0000                                                             
     3  0  0.50      -213.4885   2.0000                                                             
     3  1  1.50      -152.9538   6.0000                                                             
     3  2  2.50       -53.1221  10.0000                                                             
     4  0  0.50       -17.2865   2.0000                                                             
     4  1  0.50        -6.5110   4.0000                                                             
     4  2  2.50        -6.8029   0.0000                                                             
     4  3  2.50        -6.8029   0.0000                                                             
   Description                                                                                      
     l       E           TYP  RCUT    TYP  RCUT                                                     
     0    -17.2865377     23  2.100                                                                 
     0    -15.3094411     23  2.100                                                                 
     1     -6.5110275     23  2.100                                                                 
     1     -0.0695192     23  2.100                                                                 
     2     -6.8029130     23  2.100                                                                 
     3     -1.3605826      7  2.100                                                                 
  local pseudopotential read in
  partial core-charges read in
  partial kinetic energy density read in
  atomic valenz-charges read in
  non local Contribution for L=            0  read in
    real space projection operators read in
  non local Contribution for L=            0  read in
    real space projection operators read in
  non local Contribution for L=            1  read in
    real space projection operators read in
  non local Contribution for L=            1  read in
    real space projection operators read in
  non local Contribution for L=            2  read in
    real space projection operators read in
    PAW grid and wavefunctions read in
 
   number of l-projection  operators is LMAX  =            5
   number of lm-projection operators is LMMAX =           13
 
  PAW_PBE Ge 05Jan2001                  :
 energy of atom  1       EATOM= -104.9960
 kinetic energy error for atom=    0.0005 (will be added to EATOM!!)
  PAW_PBE Se 06Sep2000                  :
 energy of atom  2       EATOM= -257.1286
 kinetic energy error for atom=    0.0030 (will be added to EATOM!!)
 
 
 POSCAR: Ge Se
  positions in cartesian coordinates
  No initial velocities read in
 exchange correlation table for  LEXCH =        8
   RHO(1)=    0.500       N(1)  =     2000
   RHO(2)=  100.500       N(2)  =     4000
 


--------------------------------------------------------------------------------------------------------


 ion  position               nearest neighbor table
   1  0.569  0.647  0.132-   5 2.59   6 2.60   6 2.60
   2  0.069  0.147  0.368-   6 2.59   5 2.60   5 2.60
   3  0.750  0.904  0.868-   7 2.59   8 2.60   8 2.60
   4  0.250  0.404  0.632-   8 2.59   7 2.60   7 2.60
   5  0.569  0.530  0.351-   1 2.59   2 2.60   2 2.60
   6  0.069  0.030  0.149-   2 2.59   1 2.60   1 2.60
   7  0.750  0.021  0.649-   3 2.59   4 2.60   4 2.60
   8  0.250  0.521  0.851-   4 2.59   3 2.60   3 2.60
 

IMPORTANT INFORMATION: All symmetrisations will be switched off!
NOSYMM: (Re-)initialisation of all symmetry stuff for point group C_1.


----------------------------------------------------------------------------------------

                                     Primitive cell                                     

  volume of cell :     202.3233

  direct lattice vectors                    reciprocal lattice vectors
     3.858100176  0.000000000  0.000000000     0.259194929  0.000000000  0.000000000
     0.000000000  4.526575088  0.000000000     0.000000000  0.220917577  0.000000000
     0.000000000  0.000000000 11.585176468     0.000000000  0.000000000  0.086317200

  length of vectors
     3.858100176  4.526575088 11.585176468     0.259194929  0.220917577  0.086317200

  position of ions in fractional coordinates (direct lattice)
     0.568840583  0.646967995  0.131971745
     0.068840547  0.146967982  0.368028228
     0.749999855  0.903756548  0.868028249
     0.249999781  0.403756501  0.631971759
     0.568840567  0.530190342  0.351109927
     0.068840583  0.030190363  0.148890049
     0.749999761  0.020534152  0.648890076
     0.249999838  0.520534176  0.851109946

  ion indices of the primitive-cell ions
   primitive index   ion index
                 1           1
                 2           2
                 3           3
                 4           4
                 5           5
                 6           6
                 7           7
                 8           8

----------------------------------------------------------------------------------------

 
 
 KPOINTS: KPOINTS created by Atomic Simulation Env

Automatic generation of k-mesh.
 Grid dimensions read from file:
 generate k-points for:    6    6    2

 Generating k-lattice:

  Cartesian coordinates                     Fractional coordinates (reciprocal lattice)
     0.043199155  0.000000000  0.000000000     0.166666667  0.000000000  0.000000000
     0.000000000  0.036819596  0.000000000     0.000000000  0.166666667  0.000000000
     0.000000000  0.000000000  0.043158600     0.000000000  0.000000000  0.500000000

  Length of vectors
     0.043199155  0.036819596  0.043158600

  Shift w.r.t. Gamma in fractional coordinates (k-lattice)
     0.000000000  0.000000000  0.000000000

 
 Subroutine IBZKPT returns following result:
 ===========================================
 
 Found     40 irreducible k-points:
 
 Following reciprocal coordinates:
            Coordinates               Weight
  0.000000  0.000000  0.000000      1.000000
  0.166667  0.000000  0.000000      2.000000
  0.333333  0.000000  0.000000      2.000000
  0.500000  0.000000  0.000000      1.000000
  0.000000  0.166667  0.000000      2.000000
  0.166667  0.166667  0.000000      2.000000
  0.166667 -0.166667  0.000000      2.000000
  0.333333  0.166667  0.000000      2.000000
  0.333333 -0.166667  0.000000      2.000000
  0.500000  0.166667  0.000000      2.000000
  0.000000  0.333333  0.000000      2.000000
  0.166667  0.333333  0.000000      2.000000
  0.166667 -0.333333  0.000000      2.000000
  0.333333  0.333333  0.000000      2.000000
  0.333333 -0.333333  0.000000      2.000000
  0.500000  0.333333  0.000000      2.000000
  0.000000  0.500000  0.000000      1.000000
  0.166667  0.500000  0.000000      2.000000
  0.333333  0.500000  0.000000      2.000000
  0.500000  0.500000  0.000000      1.000000
  0.000000  0.000000  0.500000      1.000000
  0.166667  0.000000  0.500000      2.000000
  0.333333  0.000000  0.500000      2.000000
  0.500000  0.000000  0.500000      1.000000
  0.000000  0.166667  0.500000      2.000000
  0.166667  0.166667  0.500000      2.000000
  0.166667 -0.166667  0.500000      2.000000
  0.333333  0.166667  0.500000      2.000000
  0.333333 -0.166667  0.500000      2.000000
  0.500000  0.166667  0.500000      2.000000
  0.000000  0.333333  0.500000      2.000000
  0.166667  0.333333  0.500000      2.000000
  0.166667 -0.333333  0.500000      2.000000
  0.333333  0.333333  0.500000      2.000000
  0.333333 -0.333333  0.500000      2.000000
  0.500000  0.333333  0.500000      2.000000
  0.000000  0.500000  0.500000      1.000000
  0.166667  0.500000  0.500000      2.000000
  0.333333  0.500000  0.500000      2.000000
  0.500000  0.500000  0.500000      1.000000
 
 Following cartesian coordinates:
            Coordinates               Weight
  0.000000  0.000000  0.000000      1.000000
  0.043199  0.000000  0.000000      2.000000
  0.086398  0.000000  0.000000      2.000000
  0.129597  0.000000  0.000000      1.000000
  0.000000  0.036820  0.000000      2.000000
  0.043199  0.036820  0.000000      2.000000
  0.043199 -0.036820  0.000000      2.000000
  0.086398  0.036820  0.000000      2.000000
  0.086398 -0.036820  0.000000      2.000000
  0.129597  0.036820  0.000000      2.000000
  0.000000  0.073639  0.000000      2.000000
  0.043199  0.073639  0.000000      2.000000
  0.043199 -0.073639  0.000000      2.000000
  0.086398  0.073639  0.000000      2.000000
  0.086398 -0.073639  0.000000      2.000000
  0.129597  0.073639  0.000000      2.000000
  0.000000  0.110459  0.000000      1.000000
  0.043199  0.110459  0.000000      2.000000
  0.086398  0.110459  0.000000      2.000000
  0.129597  0.110459  0.000000      1.000000
  0.000000  0.000000  0.043159      1.000000
  0.043199  0.000000  0.043159      2.000000
  0.086398  0.000000  0.043159      2.000000
  0.129597  0.000000  0.043159      1.000000
  0.000000  0.036820  0.043159      2.000000
  0.043199  0.036820  0.043159      2.000000
  0.043199 -0.036820  0.043159      2.000000
  0.086398  0.036820  0.043159      2.000000
  0.086398 -0.036820  0.043159      2.000000
  0.129597  0.036820  0.043159      2.000000
  0.000000  0.073639  0.043159      2.000000
  0.043199  0.073639  0.043159      2.000000
  0.043199 -0.073639  0.043159      2.000000
  0.086398  0.073639  0.043159      2.000000
  0.086398 -0.073639  0.043159      2.000000
  0.129597  0.073639  0.043159      2.000000
  0.000000  0.110459  0.043159      1.000000
  0.043199  0.110459  0.043159      2.000000
  0.086398  0.110459  0.043159      2.000000
  0.129597  0.110459  0.043159      1.000000
 


--------------------------------------------------------------------------------------------------------




 Dimension of arrays:
   k-points           NKPTS =     40   k-points in BZ     NKDIM =     40   number of bands    NBANDS=     32
   number of dos      NEDOS =    301   number of ions     NIONS =      8
   non local maximal  LDIM  =      5   non local SUM 2l+1 LMDIM =     13
   total plane-waves  NPLWV =  23328
   max r-space proj   IRMAX =      1   max aug-charges    IRDMAX=   6465
   dimension x,y,z NGX =    18 NGY =   24 NGZ =   54
   dimension x,y,z NGXF=    36 NGYF=   48 NGZF=  108
   support grid    NGXF=    36 NGYF=   48 NGZF=  108
   ions per type =               4   4
   NGX,Y,Z   is equivalent  to a cutoff of   7.76,  8.81,  7.75 a.u.
   NGXF,Y,Z  is equivalent  to a cutoff of  15.51, 17.63, 15.50 a.u.

 SYSTEM =  ./                                      
 POSCAR =  Ge Se                                   

 Startparameter for this run:
   NWRITE =      2    write-flag & timer
   PREC   = normal    normal or accurate (medium, high low for compatibility)
   ISTART =      0    job   : 0-new  1-cont  2-samecut
   ICHARG =      2    charge: 1-file 2-atom 10-const
   ISPIN  =      1    spin polarized calculation?
   LNONCOLLINEAR =      F non collinear calculations
   LSORBIT =      F    spin-orbit coupling
   INIWAV =      1    electr: 0-lowe 1-rand  2-diag
   LASPH  =      T    aspherical Exc in radial PAW
 Electronic Relaxation 1
   ENCUT  =  360.0 eV  26.46 Ry    5.14 a.u.   5.97  7.00 17.92*2*pi/ulx,y,z
   ENINI  =  360.0     initial cutoff
   ENAUG  =  446.8 eV  augmentation charge cutoff
   NELM   =    100;   NELMIN=  2; NELMDL= -5     # of ELM steps 
   EDIFF  = 0.1E-05   stopping-criterion for ELM
   LREAL  =      F    real-space projection
   NLSPLINE    = F    spline interpolate recip. space projectors
   LCOMPAT=      F    compatible to vasp.4.4
   GGA_COMPAT  = T    GGA compatible to vasp.4.4-vasp.4.6
   LMAXPAW     = -100 max onsite density
   LMAXMIX     =    4 max onsite mixed and CHGCAR
   VOSKOWN=      0    Vosko Wilk Nusair interpolation
   ROPT   =    0.00000   0.00000
 Ionic relaxation
   EDIFFG = 0.1E-04   stopping-criterion for IOM
   NSW    =      0    number of steps for IOM
   NBLOCK =      1;   KBLOCK =      1    inner block; outer block 
   IBRION =     -1    ionic relax: 0-MD 1-quasi-New 2-CG
   NFREE  =      0    steps in history (QN), initial steepest desc. (CG)
   ISIF   =      2    stress and relaxation
   IWAVPR =     10    prediction:  0-non 1-charg 2-wave 3-comb
   ISYM   =      0    0-nonsym 1-usesym 2-fastsym
   LCORR  =      T    Harris-Foulkes like correction to forces

   POTIM  = 0.5000    time-step for ionic-motion
   TEIN   =    0.0    initial temperature
   TEBEG  =    0.0;   TEEND  =   0.0 temperature during run
   SMASS  =  -3.00    Nose mass-parameter (am)
   estimated Nose-frequenzy (Omega)   =  0.10E-29 period in steps = 0.13E+47 mass=  -0.340E-27a.u.
   SCALEE = 1.0000    scale energy and forces
   NPACO  =    256;   APACO  = 10.0  distance and # of slots for P.C.
   PSTRESS=    0.0 pullay stress

  Mass of Ions in am
   POMASS =  72.61 78.96
  Ionic Valenz
   ZVAL   =   4.00  6.00
  Atomic Wigner-Seitz radii
   RWIGS  =  -1.00 -1.00
  virtual crystal weights 
   VCA    =   1.00  1.00
   NELECT =      40.0000    total number of electrons
   NUPDOWN=      -1.0000    fix difference up-down

 DOS related values:
   EMIN   =  10.00;   EMAX   =-10.00  energy-range for DOS
   EFERMI =   0.00;   METHOD = LEGACY      
   ISMEAR =     0;   SIGMA  =   0.05  broadening in eV -4-tet -1-fermi 0-gaus

 Electronic relaxation 2 (details)
   IALGO  =     38    algorithm
   LDIAG  =      T    sub-space diagonalisation (order eigenvalues)
   LSUBROT=      F    optimize rotation matrix (better conditioning)
   TURBO    =      0    0=normal 1=particle mesh
   IRESTART =      0    0=no restart 2=restart with 2 vectors
   NREBOOT  =      0    no. of reboots
   NMIN     =      0    reboot dimension
   EREF     =   0.00    reference energy to select bands
   IMIX   =      4    mixing-type and parameters
     AMIX     =   0.40;   BMIX     =  1.00
     AMIX_MAG =   1.60;   BMIX_MAG =  1.00
     AMIN     =   0.10
     WC   =   100.;   INIMIX=   1;  MIXPRE=   1;  MAXMIX= -45

 Intra band minimization:
   WEIMIN = 0.0000     energy-eigenvalue tresh-hold
   EBREAK =  0.78E-08  absolut break condition
   DEPER  =   0.30     relativ break condition  

   TIME   =   0.40     timestep for ELM

  volume/ion in A,a.u.               =      25.29       170.67
  Fermi-wavevector in a.u.,A,eV,Ry     =   0.953702  1.802236 12.375155  0.909548
  Thomas-Fermi vector in A             =   2.082382
 
 Write flags
   LWAVE        =      F    write WAVECAR
   LDOWNSAMPLE  =      F    k-point downsampling of WAVECAR
   LCHARG       =      F    write CHGCAR
   LVTOT        =      F    write LOCPOT, total local potential
   LVHAR        =      F    write LOCPOT, Hartree potential only
   LELF         =      F    write electronic localiz. function (ELF)
   LORBIT       =      0    0 simple, 1 ext, 2 COOP (PROOUT), +10 PAW based schemes


 Dipole corrections
   LMONO  =      F    monopole corrections only (constant potential shift)
   LDIPOL =      F    correct potential (dipole corrections)
   IDIPOL =      0    1-x, 2-y, 3-z, 4-all directions 
   EPSILON=  1.0000000 bulk dielectric constant

 Exchange correlation treatment:
   GGA     =    PE    GGA type
   LEXCH   =     8    internal setting for exchange type
   LIBXC   =     F    Libxc                    
   VOSKOWN =     0    Vosko Wilk Nusair interpolation
   LHFCALC =     F    Hartree Fock is set to
   LHFONE  =     F    Hartree Fock one center treatment
   AEXX    =    0.0000 exact exchange contribution

 Linear response parameters
   LEPSILON=     F    determine dielectric tensor
   LRPA    =     F    only Hartree local field effects (RPA)
   LNABLA  =     F    use nabla operator in PAW spheres
   LVEL    =     F    velocity operator in full k-point grid
   CSHIFT  =0.1000    complex shift for real part using Kramers Kronig
   OMEGAMAX=  -1.0    maximum frequency
   DEG_THRESHOLD= 0.2000000E-02 threshold for treating states as degnerate
   RTIME   =   -0.100 relaxation time in fs
  (WPLASMAI=    0.000 imaginary part of plasma frequency in eV, 0.658/RTIME)
   DFIELD  = 0.0000000 0.0000000 0.0000000 field for delta impulse in time
 
  Optional k-point grid parameters
   LKPOINTS_OPT  =     F    use optional k-point grid
   KPOINTS_OPT_MODE=     1    mode for optional k-point grid
 
 Orbital magnetization related:
   ORBITALMAG=     F  switch on orbital magnetization
   LCHIMAG   =     F  perturbation theory with respect to B field
   DQ        =  0.001000  dq finite difference perturbation B field
   LLRAUG    =     F  two centre corrections for induced B field
   LBONE     =     F  B-component reconstruction in AE one-centre
   LVGVCALC  =     T  calculate vGv susceptibility
   LVGVAPPL  =     F  apply vGv susceptibility instead of pGv for G=0

 Random number generation:
   RANDOM_GENERATOR = DEFAULT
   PCG_SEED         = not used


--------------------------------------------------------------------------------------------------------


 Static calculation
 charge density and potential will be updated during run
 non-spin polarized calculation
 Variant of blocked Davidson
 Davidson routine will perform the subspace rotation
 perform sub-space diagonalisation
    after iterative eigenvector-optimisation
 modified Broyden-mixing scheme, WC =      100.0
 initial mixing is a Kerker type mixing with AMIX =  0.4000 and BMIX =      1.0000
 Hartree-type preconditioning will be used
 using additional bands            12
 reciprocal scheme for non local part
 use partial core corrections
 calculate Harris-corrections to forces 
   (improved forces if not selfconsistent)
 use gradient corrections 
 use of overlap-Matrix (Vanderbilt PP)
 Gauss-broadening in eV      SIGMA  =   0.05


--------------------------------------------------------------------------------------------------------


  energy-cutoff  :      360.00
  volume of cell :      202.32
      direct lattice vectors                 reciprocal lattice vectors
     3.858100176  0.000000000  0.000000000     0.259194929  0.000000000  0.000000000
     0.000000000  4.526575088  0.000000000     0.000000000  0.220917577  0.000000000
     0.000000000  0.000000000 11.585176468     0.000000000  0.000000000  0.086317200

  length of vectors
     3.858100176  4.526575088 11.585176468     0.259194929  0.220917577  0.086317200


 
 k-points in units of 2pi/SCALE and weight: KPOINTS created by Atomic Simulation Env
   0.00000000  0.00000000  0.00000000       0.014
   0.04319915  0.00000000  0.00000000       0.028
   0.08639831  0.00000000  0.00000000       0.028
   0.12959746  0.00000000  0.00000000       0.014
   0.00000000  0.03681960  0.00000000       0.028
   0.04319915  0.03681960  0.00000000       0.028
   0.04319915 -0.03681960  0.00000000       0.028
   0.08639831  0.03681960  0.00000000       0.028
   0.08639831 -0.03681960  0.00000000       0.028
   0.12959746  0.03681960  0.00000000       0.028
   0.00000000  0.07363919  0.00000000       0.028
   0.04319915  0.07363919  0.00000000       0.028
   0.04319915 -0.07363919  0.00000000       0.028
   0.08639831  0.07363919  0.00000000       0.028
   0.08639831 -0.07363919  0.00000000       0.028
   0.12959746  0.07363919  0.00000000       0.028
   0.00000000  0.11045879  0.00000000       0.014
   0.04319915  0.11045879  0.00000000       0.028
   0.08639831  0.11045879  0.00000000       0.028
   0.12959746  0.11045879  0.00000000       0.014
   0.00000000  0.00000000  0.04315860       0.014
   0.04319915  0.00000000  0.04315860       0.028
   0.08639831  0.00000000  0.04315860       0.028
   0.12959746  0.00000000  0.04315860       0.014
   0.00000000  0.03681960  0.04315860       0.028
   0.04319915  0.03681960  0.04315860       0.028
   0.04319915 -0.03681960  0.04315860       0.028
   0.08639831  0.03681960  0.04315860       0.028
   0.08639831 -0.03681960  0.04315860       0.028
   0.12959746  0.03681960  0.04315860       0.028
   0.00000000  0.07363919  0.04315860       0.028
   0.04319915  0.07363919  0.04315860       0.028
   0.04319915 -0.07363919  0.04315860       0.028
   0.08639831  0.07363919  0.04315860       0.028
   0.08639831 -0.07363919  0.04315860       0.028
   0.12959746  0.07363919  0.04315860       0.028
   0.00000000  0.11045879  0.04315860       0.014
   0.04319915  0.11045879  0.04315860       0.028
   0.08639831  0.11045879  0.04315860       0.028
   0.12959746  0.11045879  0.04315860       0.014
 
 k-points in reciprocal lattice and weights: KPOINTS created by Atomic Simulation Env
   0.00000000  0.00000000  0.00000000       0.014
   0.16666667  0.00000000  0.00000000       0.028
   0.33333333  0.00000000  0.00000000       0.028
   0.50000000  0.00000000  0.00000000       0.014
   0.00000000  0.16666667  0.00000000       0.028
   0.16666667  0.16666667  0.00000000       0.028
   0.16666667 -0.16666667  0.00000000       0.028
   0.33333333  0.16666667  0.00000000       0.028
   0.33333333 -0.16666667  0.00000000       0.028
   0.50000000  0.16666667  0.00000000       0.028
   0.00000000  0.33333333  0.00000000       0.028
   0.16666667  0.33333333  0.00000000       0.028
   0.16666667 -0.33333333  0.00000000       0.028
   0.33333333  0.33333333  0.00000000       0.028
   0.33333333 -0.33333333  0.00000000       0.028
   0.50000000  0.33333333  0.00000000       0.028
   0.00000000  0.50000000  0.00000000       0.014
   0.16666667  0.50000000  0.00000000       0.028
   0.33333333  0.50000000  0.00000000       0.028
   0.50000000  0.50000000  0.00000000       0.014
   0.00000000  0.00000000  0.50000000       0.014
   0.16666667  0.00000000  0.50000000       0.028
   0.33333333  0.00000000  0.50000000       0.028
   0.50000000  0.00000000  0.50000000       0.014
   0.00000000  0.16666667  0.50000000       0.028
   0.16666667  0.16666667  0.50000000       0.028
   0.16666667 -0.16666667  0.50000000       0.028
   0.33333333  0.16666667  0.50000000       0.028
   0.33333333 -0.16666667  0.50000000       0.028
   0.50000000  0.16666667  0.50000000       0.028
   0.00000000  0.33333333  0.50000000       0.028
   0.16666667  0.33333333  0.50000000       0.028
   0.16666667 -0.33333333  0.50000000       0.028
   0.33333333  0.33333333  0.50000000       0.028
   0.33333333 -0.33333333  0.50000000       0.028
   0.50000000  0.33333333  0.50000000       0.028
   0.00000000  0.50000000  0.50000000       0.014
   0.16666667  0.50000000  0.50000000       0.028
   0.33333333  0.50000000  0.50000000       0.028
   0.50000000  0.50000000  0.50000000       0.014
 
 position of ions in fractional coordinates (direct lattice) 
   0.56884058  0.64696800  0.13197174
   0.06884055  0.14696798  0.36802823
   0.74999985  0.90375655  0.86802825
   0.24999978  0.40375650  0.63197176
   0.56884057  0.53019034  0.35110993
   0.06884058  0.03019036  0.14889005
   0.74999976  0.02053415  0.64889008
   0.24999984  0.52053418  0.85110995
 
 position of ions in cartesian coordinates  (Angst):
   2.19464395  2.92854921  1.52891595
   0.26559373  0.66526161  4.26367197
   2.89357457  4.09092188 10.05626045
   0.96452420  1.82763412  7.32150435
   2.19464389  2.39994640  4.06767047
   0.26559387  0.13665895  1.72491749
   2.89357421  0.09294938  7.51750603
   0.96452442  2.35623703  9.86025892
 


--------------------------------------------------------------------------------------------------------


 k-point   1 :   0.0000 0.0000 0.0000  plane waves:    3119
 k-point   2 :   0.1667 0.0000 0.0000  plane waves:    3116
 k-point   3 :   0.3333 0.0000 0.0000  plane waves:    3142
 k-point   4 :   0.5000 0.0000 0.0000  plane waves:    3148
 k-point   5 :   0.0000 0.1667 0.0000  plane waves:    3108
 k-point   6 :   0.1667 0.1667 0.0000  plane waves:    3123
 k-point   7 :   0.1667-0.1667 0.0000  plane waves:    3123
 k-point   8 :   0.3333 0.1667 0.0000  plane waves:    3135
 k-point   9 :   0.3333-0.1667 0.0000  plane waves:    3135
 k-point  10 :   0.5000 0.1667 0.0000  plane waves:    3138
 k-point  11 :   0.0000 0.3333 0.0000  plane waves:    3116
 k-point  12 :   0.1667 0.3333 0.0000  plane waves:    3133
 k-point  13 :   0.1667-0.3333 0.0000  plane waves:    3133
 k-point  14 :   0.3333 0.3333 0.0000  plane waves:    3155
 k-point  15 :   0.3333-0.3333 0.0000  plane waves:    3155
 k-point  16 :   0.5000 0.3333 0.0000  plane waves:    3152
 k-point  17 :   0.0000 0.5000 0.0000  plane waves:    3134
 k-point  18 :   0.1667 0.5000 0.0000  plane waves:    3140
 k-point  19 :   0.3333 0.5000 0.0000  plane waves:    3144
 k-point  20 :   0.5000 0.5000 0.0000  plane waves:    3144
 k-point  21 :   0.0000 0.0000 0.5000  plane waves:    3092
 k-point  22 :   0.1667 0.0000 0.5000  plane waves:    3124
 k-point  23 :   0.3333 0.0000 0.5000  plane waves:    3140
 k-point  24 :   0.5000 0.0000 0.5000  plane waves:    3132
 k-point  25 :   0.0000 0.1667 0.5000  plane waves:    3112
 k-point  26 :   0.1667 0.1667 0.5000  plane waves:    3140
 k-point  27 :   0.1667-0.1667 0.5000  plane waves:    3140
 k-point  28 :   0.3333 0.1667 0.5000  plane waves:    3134
 k-point  29 :   0.3333-0.1667 0.5000  plane waves:    3134
 k-point  30 :   0.5000 0.1667 0.5000  plane waves:    3144
 k-point  31 :   0.0000 0.3333 0.5000  plane waves:    3130
 k-point  32 :   0.1667 0.3333 0.5000  plane waves:    3148
 k-point  33 :   0.1667-0.3333 0.5000  plane waves:    3148
 k-point  34 :   0.3333 0.3333 0.5000  plane waves:    3142
 k-point  35 :   0.3333-0.3333 0.5000  plane waves:    3142
 k-point  36 :   0.5000 0.3333 0.5000  plane waves:    3152
 k-point  37 :   0.0000 0.5000 0.5000  plane waves:    3132
 k-point  38 :   0.1667 0.5000 0.5000  plane waves:    3148
 k-point  39 :   0.3333 0.5000 0.5000  plane waves:    3140
 k-point  40 :   0.5000 0.5000 0.5000  plane waves:    3160

 maximum and minimum number of plane-waves per node :       659      606

 maximum number of plane-waves:      3160
 maximum index in each direction: 
   IXMAX=    5   IYMAX=    7   IZMAX=   17
   IXMIN=   -6   IYMIN=   -7   IZMIN=  -18


 parallel 3D FFT for wavefunctions:
    minimum data exchange during FFTs selected (reduces bandwidth)
 parallel 3D FFT for charge:
    minimum data exchange during FFTs selected (reduces bandwidth)


 total amount of memory used by VASP MPI-rank0    37119. kBytes
=======================================================================

   base      :      30000. kBytes
   nonl-proj :       5406. kBytes
   fftplans  :        334. kBytes
   grid      :        503. kBytes
   one-center:         16. kBytes
   wavefun   :        860. kBytes
 
     INWAV:  cpu time      0.0000: real time      0.0001
 Broyden mixing: mesh for mixing (old mesh)
   NGX = 11   NGY = 15   NGZ = 35
  (NGX  = 36   NGY  = 48   NGZ  =108)
  gives a total of   5775 points

 initial charge density was supplied:
 charge density of overlapping atoms calculated
 number of electron      40.0000000 magnetization 
 keeping initial charge density in first step


--------------------------------------------------------------------------------------------------------


 Maximum index for augmentation-charges           396 (set IRDMAX)


--------------------------------------------------------------------------------------------------------


 First call to EWALD:  gamma=   0.302
 Maximum number of real-space cells 4x 3x 2
 Maximum number of reciprocal cells 2x 2x 5

    FEWALD:  cpu time      0.0010: real time      0.0010


--------------------------------------- Ionic step        1  -------------------------------------------




--------------------------------------- Iteration      1(   1)  ---------------------------------------


    POTLOK:  cpu time      0.0085: real time      0.0086
    SETDIJ:  cpu time      0.2202: real time      0.2207
     EDDAV:  cpu time      0.3030: real time      0.3090
       DOS:  cpu time      0.0010: real time      0.0010
    --------------------------------------------
      LOOP:  cpu time      0.5328: real time      0.5393

 eigenvalue-minimisations  :  2560
 total energy-change (2. order) : 0.1305725E+03  (-0.1288257E+04)
 number of electron      40.0000000 magnetization 
 augmentation part       40.0000000 magnetization 

 Free energy of the ion-electron system (eV)
  ---------------------------------------------------
  alpha Z        PSCENC =        83.74935623
  Ewald energy   TEWEN  =     -1381.59959568
  -Hartree energ DENC   =      -147.58644409
  -exchange      EXHF   =         0.00000000
  -V(xc)+E(xc)   XCENC  =       -33.71725563
  PAW double counting   =      1193.78262552    -1080.73714043
  entropy T*S    EENTRO =        -0.00184826
  eigenvalues    EBANDS =        48.19816872
  atomic energy  EATOM  =      1448.48460880
  Solvation  Ediel_sol  =         0.00000000
  ---------------------------------------------------
  free energy    TOTEN  =       130.57247518 eV

  energy without entropy =      130.57432344  energy(sigma->0) =      130.57339931


--------------------------------------------------------------------------------------------------------




--------------------------------------- Iteration      1(   2)  ---------------------------------------


     EDDAV:  cpu time      0.4259: real time      0.4292
       DOS:  cpu time      0.0009: real time      0.0009
    --------------------------------------------
      LOOP:  cpu time      0.4268: real time      0.4301

 eigenvalue-minimisations  :  3712
 total energy-change (2. order) :-0.1557950E+03  (-0.1512749E+03)
 number of electron      40.0000000 magnetization 
 augmentation part       40.0000000 magnetization 

 Free energy of the ion-electron system (eV)
  ---------------------------------------------------
  alpha Z        PSCENC =        83.74935623
  Ewald energy   TEWEN  =     -1381.59959568
  -Hartree energ DENC   =      -147.58644409
  -exchange      EXHF   =         0.00000000
  -V(xc)+E(xc)   XCENC  =       -33.71725563
  PAW double counting   =      1193.78262552    -1080.73714043
  entropy T*S    EENTRO =        -0.00000252
  eigenvalues    EBANDS =      -107.59870510
  atomic energy  EATOM  =      1448.48460880
  Solvation  Ediel_sol  =         0.00000000
  ---------------------------------------------------
  free energy    TOTEN  =       -25.22255290 eV

  energy without entropy =      -25.22255038  energy(sigma->0) =      -25.22255164


--------------------------------------------------------------------------------------------------------




--------------------------------------- Iteration      1(   3)  ---------------------------------------


     EDDAV:  cpu time      0.3609: real time      0.3629
       DOS:  cpu time      0.0006: real time      0.0006
    --------------------------------------------
      LOOP:  cpu time      0.3615: real time      0.3634

 eigenvalue-minimisations  :  3152
 total energy-change (2. order) :-0.8773731E+01  (-0.8754472E+01)
 number of electron      40.0000000 magnetization 
 augmentation part       40.0000000 magnetization 

 Free energy of the ion-electron system (eV)
  ---------------------------------------------------
  alpha Z        PSCENC =        83.74935623
  Ewald energy   TEWEN  =     -1381.59959568
  -Hartree energ DENC   =      -147.58644409
  -exchange      EXHF   =         0.00000000
  -V(xc)+E(xc)   XCENC  =       -33.71725563
  PAW double counting   =      1193.78262552    -1080.73714043
  entropy T*S    EENTRO =        -0.00000000
  eigenvalues    EBANDS =      -116.37243850
  atomic energy  EATOM  =      1448.48460880
  Solvation  Ediel_sol  =         0.00000000
  ---------------------------------------------------
  free energy    TOTEN  =       -33.99628379 eV

  energy without entropy =      -33.99628379  energy(sigma->0) =      -33.99628379


--------------------------------------------------------------------------------------------------------




--------------------------------------- Iteration      1(   4)  ---------------------------------------


     EDDAV:  cpu time      0.4527: real time      0.4552
       DOS:  cpu time      0.0006: real time      0.0006
    --------------------------------------------
      LOOP:  cpu time      0.4533: real time      0.4557

 eigenvalue-minimisations  :  3280
 total energy-change (2. order) :-0.6421603E-01  (-0.6419815E-01)
 number of electron      40.0000000 magnetization 
 augmentation part       40.0000000 magnetization 

 Free energy of the ion-electron system (eV)
  ---------------------------------------------------
  alpha Z        PSCENC =        83.74935623
  Ewald energy   TEWEN  =     -1381.59959568
  -Hartree energ DENC   =      -147.58644409
  -exchange      EXHF   =         0.00000000
  -V(xc)+E(xc)   XCENC  =       -33.71725563
  PAW double counting   =      1193.78262552    -1080.73714043
  entropy T*S    EENTRO =        -0.00000000
  eigenvalues    EBANDS =      -116.43665453
  atomic energy  EATOM  =      1448.48460880
  Solvation  Ediel_sol  =         0.00000000
  ---------------------------------------------------
  free energy    TOTEN  =       -34.06049982 eV

  energy without entropy =      -34.06049982  energy(sigma->0) =      -34.06049982


--------------------------------------------------------------------------------------------------------




--------------------------------------- Iteration      1(   5)  ---------------------------------------


     EDDAV:  cpu time      0.3678: real time      0.3699
       DOS:  cpu time      0.0005: real time      0.0005
    CHARGE:  cpu time      0.0057: real time      0.0057
    MIXING:  cpu time      0.0004: real time      0.0004
    --------------------------------------------
      LOOP:  cpu time      0.3744: real time      0.3764

 eigenvalue-minimisations  :  3184
 total energy-change (2. order) :-0.4589979E-03  (-0.4589916E-03)
 number of electron      39.9999969 magnetization 
 augmentation part       -7.4200634 magnetization 

 Broyden mixing:
  rms(total) = 0.64682E+00    rms(broyden)= 0.64680E+00
  rms(prec ) = 0.72684E+00
  weight for this iteration     100.00

 Free energy of the ion-electron system (eV)
  ---------------------------------------------------
  alpha Z        PSCENC =        83.74935623
  Ewald energy   TEWEN  =     -1381.59959568
  -Hartree energ DENC   =      -147.58644409
  -exchange      EXHF   =         0.00000000
  -V(xc)+E(xc)   XCENC  =       -33.71725563
  PAW double counting   =      1193.78262552    -1080.73714043
  entropy T*S    EENTRO =        -0.00000000
  eigenvalues    EBANDS =      -116.43711353
  atomic energy  EATOM  =      1448.48460880
  Solvation  Ediel_sol  =         0.00000000
  ---------------------------------------------------
  free energy    TOTEN  =       -34.06095881 eV

  energy without entropy =      -34.06095881  energy(sigma->0) =      -34.06095881


--------------------------------------------------------------------------------------------------------




--------------------------------------- Iteration      1(   6)  ---------------------------------------


    POTLOK:  cpu time      0.0078: real time      0.0080
    SETDIJ:  cpu time      0.2189: real time      0.2194
     EDDAV:  cpu time      0.3652: real time      0.3673
       DOS:  cpu time      0.0009: real time      0.0009
    CHARGE:  cpu time      0.0054: real time      0.0054
    MIXING:  cpu time      0.0004: real time      0.0004
    --------------------------------------------
      LOOP:  cpu time      0.5987: real time      0.6015

 eigenvalue-minimisations  :  3168
 total energy-change (2. order) : 0.3992592E+00  (-0.8280585E-01)
 number of electron      39.9999970 magnetization 
 augmentation part       -7.3602533 magnetization 

 Broyden mixing:
  rms(total) = 0.40680E+00    rms(broyden)= 0.40680E+00
  rms(prec ) = 0.42649E+00
  weight for this iteration     100.00

 eigenvalues of (default mixing * dielectric matrix)
  average eigenvalue GAMMA=   2.1653
  2.1653

 Free energy of the ion-electron system (eV)
  ---------------------------------------------------
  alpha Z        PSCENC =        83.74935623
  Ewald energy   TEWEN  =     -1381.59959568
  -Hartree energ DENC   =      -153.72791515
  -exchange      EXHF   =         0.00000000
  -V(xc)+E(xc)   XCENC  =       -33.09717416
  PAW double counting   =      1455.30821873    -1342.57875821
  entropy T*S    EENTRO =        -0.00003981
  eigenvalues    EBANDS =      -110.20040041
  atomic energy  EATOM  =      1448.48460880
  Solvation  Ediel_sol  =         0.00000000
  ---------------------------------------------------
  free energy    TOTEN  =       -33.66169966 eV

  energy without entropy =      -33.66165985  energy(sigma->0) =      -33.66167976


--------------------------------------------------------------------------------------------------------




--------------------------------------- Iteration      1(   7)  ---------------------------------------


    POTLOK:  cpu time      0.0079: real time      0.0080
    SETDIJ:  cpu time      0.2189: real time      0.2196
     EDDAV:  cpu time      0.3821: real time      0.3839
       DOS:  cpu time      0.0009: real time      0.0009
    CHARGE:  cpu time      0.0053: real time      0.0054
    MIXING:  cpu time      0.0005: real time      0.0005
    --------------------------------------------
      LOOP:  cpu time      0.6156: real time      0.6182

 eigenvalue-minimisations  :  3232
 total energy-change (2. order) : 0.7805300E-02  (-0.2328364E-01)
 number of electron      39.9999970 magnetization 
 augmentation part       -7.3426252 magnetization 

 Broyden mixing:
  rms(total) = 0.13163E+00    rms(broyden)= 0.13163E+00
  rms(prec ) = 0.14015E+00
  weight for this iteration     100.00

 eigenvalues of (default mixing * dielectric matrix)
  average eigenvalue GAMMA=   1.7957
  1.2121  2.3793

 Free energy of the ion-electron system (eV)
  ---------------------------------------------------
  alpha Z        PSCENC =        83.74935623
  Ewald energy   TEWEN  =     -1381.59959568
  -Hartree energ DENC   =      -156.53822384
  -exchange      EXHF   =         0.00000000
  -V(xc)+E(xc)   XCENC  =       -32.62144448
  PAW double counting   =      1777.33608776    -1664.83678437
  entropy T*S    EENTRO =        -0.00012233
  eigenvalues    EBANDS =      -107.62777647
  atomic energy  EATOM  =      1448.48460880
  Solvation  Ediel_sol  =         0.00000000
  ---------------------------------------------------
  free energy    TOTEN  =       -33.65389436 eV

  energy without entropy =      -33.65377203  energy(sigma->0) =      -33.65383320


--------------------------------------------------------------------------------------------------------




--------------------------------------- Iteration      1(   8)  ---------------------------------------


    POTLOK:  cpu time      0.0079: real time      0.0080
    SETDIJ:  cpu time      0.2190: real time      0.2197
     EDDAV:  cpu time      0.3562: real time      0.3588
       DOS:  cpu time      0.0009: real time      0.0009
    CHARGE:  cpu time      0.0057: real time      0.0057
    MIXING:  cpu time      0.0005: real time      0.0005
    --------------------------------------------
      LOOP:  cpu time      0.5903: real time      0.5936

 eigenvalue-minimisations  :  2992
 total energy-change (2. order) : 0.1844428E-02  (-0.2759840E-02)
 number of electron      39.9999970 magnetization 
 augmentation part       -7.3523658 magnetization 

 Broyden mixing:
  rms(total) = 0.17674E-01    rms(broyden)= 0.17674E-01
  rms(prec ) = 0.21793E-01
  weight for this iteration     100.00

 eigenvalues of (default mixing * dielectric matrix)
  average eigenvalue GAMMA=   1.6928
  2.5081  1.2852  1.2852

 Free energy of the ion-electron system (eV)
  ---------------------------------------------------
  alpha Z        PSCENC =        83.74935623
  Ewald energy   TEWEN  =     -1381.59959568
  -Hartree energ DENC   =      -156.59020058
  -exchange      EXHF   =         0.00000000
  -V(xc)+E(xc)   XCENC  =       -32.48461388
  PAW double counting   =      1916.22779599    -1803.78482937
  entropy T*S    EENTRO =        -0.00004187
  eigenvalues    EBANDS =      -107.65452958
  atomic energy  EATOM  =      1448.48460880
  Solvation  Ediel_sol  =         0.00000000
  ---------------------------------------------------
  free energy    TOTEN  =       -33.65204993 eV

  energy without entropy =      -33.65200806  energy(sigma->0) =      -33.65202900


--------------------------------------------------------------------------------------------------------




--------------------------------------- Iteration      1(   9)  ---------------------------------------


    POTLOK:  cpu time      0.0076: real time      0.0077
    SETDIJ:  cpu time      0.2192: real time      0.2198
     EDDAV:  cpu time      0.3890: real time      0.3910
       DOS:  cpu time      0.0010: real time      0.0010
    CHARGE:  cpu time      0.0057: real time      0.0058
    MIXING:  cpu time      0.0005: real time      0.0005
    --------------------------------------------
      LOOP:  cpu time      0.6230: real time      0.6257

 eigenvalue-minimisations  :  3264
 total energy-change (2. order) :-0.2758356E-03  (-0.3932621E-03)
 number of electron      39.9999970 magnetization 
 augmentation part       -7.3500128 magnetization 

 Broyden mixing:
  rms(total) = 0.66860E-02    rms(broyden)= 0.66860E-02
  rms(prec ) = 0.75958E-02
  weight for this iteration     100.00

 eigenvalues of (default mixing * dielectric matrix)
  average eigenvalue GAMMA=   1.7600
  2.3448  2.3448  1.1751  1.1751

 Free energy of the ion-electron system (eV)
  ---------------------------------------------------
  alpha Z        PSCENC =        83.74935623
  Ewald energy   TEWEN  =     -1381.59959568
  -Hartree energ DENC   =      -157.02374243
  -exchange      EXHF   =         0.00000000
  -V(xc)+E(xc)   XCENC  =       -32.43853329
  PAW double counting   =      1929.94928019    -1817.51770034
  entropy T*S    EENTRO =        -0.00005953
  eigenvalues    EBANDS =      -107.25593972
  atomic energy  EATOM  =      1448.48460880
  Solvation  Ediel_sol  =         0.00000000
  ---------------------------------------------------
  free energy    TOTEN  =       -33.65232577 eV

  energy without entropy =      -33.65226624  energy(sigma->0) =      -33.65229600


--------------------------------------------------------------------------------------------------------




--------------------------------------- Iteration      1(  10)  ---------------------------------------


    POTLOK:  cpu time      0.0077: real time      0.0079
    SETDIJ:  cpu time      0.2196: real time      0.2201
     EDDAV:  cpu time      0.3571: real time      0.3592
       DOS:  cpu time      0.0010: real time      0.0011
    CHARGE:  cpu time      0.0053: real time      0.0054
    MIXING:  cpu time      0.0005: real time      0.0005
    --------------------------------------------
      LOOP:  cpu time      0.5913: real time      0.5941

 eigenvalue-minimisations  :  3056
 total energy-change (2. order) :-0.1132415E-03  (-0.3338530E-04)
 number of electron      39.9999970 magnetization 
 augmentation part       -7.3501825 magnetization 

 Broyden mixing:
  rms(total) = 0.23128E-02    rms(broyden)= 0.23128E-02
  rms(prec ) = 0.27735E-02
  weight for this iteration     100.00

 eigenvalues of (default mixing * dielectric matrix)
  average eigenvalue GAMMA=   1.7546
  2.7246  2.5087  1.1753  1.1753  1.1892

 Free energy of the ion-electron system (eV)
  ---------------------------------------------------
  alpha Z        PSCENC =        83.74935623
  Ewald energy   TEWEN  =     -1381.59959568
  -Hartree energ DENC   =      -157.04296567
  -exchange      EXHF   =         0.00000000
  -V(xc)+E(xc)   XCENC  =       -32.43576521
  PAW double counting   =      1923.15194481    -1810.71447022
  entropy T*S    EENTRO =        -0.00005643
  eigenvalues    EBANDS =      -107.24549564
  atomic energy  EATOM  =      1448.48460880
  Solvation  Ediel_sol  =         0.00000000
  ---------------------------------------------------
  free energy    TOTEN  =       -33.65243901 eV

  energy without entropy =      -33.65238258  energy(sigma->0) =      -33.65241080


--------------------------------------------------------------------------------------------------------




--------------------------------------- Iteration      1(  11)  ---------------------------------------


    POTLOK:  cpu time      0.0076: real time      0.0077
    SETDIJ:  cpu time      0.2193: real time      0.2198
     EDDAV:  cpu time      0.3825: real time      0.3842
       DOS:  cpu time      0.0009: real time      0.0009
    CHARGE:  cpu time      0.0054: real time      0.0054
    MIXING:  cpu time      0.0005: real time      0.0005
    --------------------------------------------
      LOOP:  cpu time      0.6162: real time      0.6184

 eigenvalue-minimisations  :  3232
 total energy-change (2. order) :-0.3291564E-04  (-0.4394763E-05)
 number of electron      39.9999970 magnetization 
 augmentation part       -7.3502378 magnetization 

 Broyden mixing:
  rms(total) = 0.11721E-02    rms(broyden)= 0.11720E-02
  rms(prec ) = 0.13244E-02
  weight for this iteration     100.00

 eigenvalues of (default mixing * dielectric matrix)
  average eigenvalue GAMMA=   1.7654
  2.5412  2.5412  2.2374  1.1580  1.1580  0.9564

 Free energy of the ion-electron system (eV)
  ---------------------------------------------------
  alpha Z        PSCENC =        83.74935623
  Ewald energy   TEWEN  =     -1381.59959568
  -Hartree energ DENC   =      -157.08343945
  -exchange      EXHF   =         0.00000000
  -V(xc)+E(xc)   XCENC  =       -32.42884712
  PAW double counting   =      1924.49219503    -1812.05503221
  entropy T*S    EENTRO =        -0.00005606
  eigenvalues    EBANDS =      -107.21166146
  atomic energy  EATOM  =      1448.48460880
  Solvation  Ediel_sol  =         0.00000000
  ---------------------------------------------------
  free energy    TOTEN  =       -33.65247193 eV

  energy without entropy =      -33.65241586  energy(sigma->0) =      -33.65244390


--------------------------------------------------------------------------------------------------------




--------------------------------------- Iteration      1(  12)  ---------------------------------------


    POTLOK:  cpu time      0.0076: real time      0.0078
    SETDIJ:  cpu time      0.2170: real time      0.2178
     EDDAV:  cpu time      0.3894: real time      0.3915
       DOS:  cpu time      0.0010: real time      0.0010
    CHARGE:  cpu time      0.0055: real time      0.0055
    MIXING:  cpu time      0.0005: real time      0.0005
    --------------------------------------------
      LOOP:  cpu time      0.6211: real time      0.6241

 eigenvalue-minimisations  :  3344
 total energy-change (2. order) :-0.1475966E-05  (-0.7998306E-06)
 number of electron      39.9999970 magnetization 
 augmentation part       -7.3501396 magnetization 

 Broyden mixing:
  rms(total) = 0.27415E-03    rms(broyden)= 0.27415E-03
  rms(prec ) = 0.35763E-03
  weight for this iteration     100.00

 eigenvalues of (default mixing * dielectric matrix)
  average eigenvalue GAMMA=   1.7159
  2.9581  2.3881  2.1630  1.2492  1.0258  1.1136  1.1136

 Free energy of the ion-electron system (eV)
  ---------------------------------------------------
  alpha Z        PSCENC =        83.74935623
  Ewald energy   TEWEN  =     -1381.59959568
  -Hartree energ DENC   =      -157.09685671
  -exchange      EXHF   =         0.00000000
  -V(xc)+E(xc)   XCENC  =       -32.42765418
  PAW double counting   =      1924.06652900    -1811.62934521
  entropy T*S    EENTRO =        -0.00005659
  eigenvalues    EBANDS =      -107.19945906
  atomic energy  EATOM  =      1448.48460880
  Solvation  Ediel_sol  =         0.00000000
  ---------------------------------------------------
  free energy    TOTEN  =       -33.65247340 eV

  energy without entropy =      -33.65241681  energy(sigma->0) =      -33.65244511


--------------------------------------------------------------------------------------------------------




--------------------------------------- Iteration      1(  13)  ---------------------------------------


    POTLOK:  cpu time      0.0083: real time      0.0085
    SETDIJ:  cpu time      0.2194: real time      0.2199
     EDDAV:  cpu time      0.2820: real time      0.2835
       DOS:  cpu time      0.0009: real time      0.0009
    --------------------------------------------
      LOOP:  cpu time      0.5106: real time      0.5128

 eigenvalue-minimisations  :  1936
 total energy-change (2. order) :-0.4503208E-06  (-0.1583532E-06)
 number of electron      39.9999970 magnetization 
 augmentation part       -7.3501396 magnetization 

 Free energy of the ion-electron system (eV)
  ---------------------------------------------------
  alpha Z        PSCENC =        83.74935623
  Ewald energy   TEWEN  =     -1381.59959568
  -Hartree energ DENC   =      -157.09988635
  -exchange      EXHF   =         0.00000000
  -V(xc)+E(xc)   XCENC  =       -32.42711797
  PAW double counting   =      1924.13469778    -1811.69741087
  entropy T*S    EENTRO =        -0.00005632
  eigenvalues    EBANDS =      -107.19706948
  atomic energy  EATOM  =      1448.48460880
  Solvation  Ediel_sol  =         0.00000000
  ---------------------------------------------------
  free energy    TOTEN  =       -33.65247385 eV

  energy without entropy =      -33.65241754  energy(sigma->0) =      -33.65244569


--------------------------------------------------------------------------------------------------------




 average (electrostatic) potential at core
  the test charge radii are     1.1631  1.0808
  (the norm of the test charge is              1.0000)
       1 -33.8227       2 -33.8227       3 -33.8227       4 -33.8227       5 -55.3147
       6 -55.3147       7 -55.3147       8 -55.3147
 
 
 
 E-fermi :   2.9589     XC(G=0):  -9.0590     alpha+bet : -8.3433

 Fermi energy:         2.9588502485

 k-point     1 :       0.0000    0.0000    0.0000
  band No.  band energies     occupation 
      1     -11.2352      2.00000
      2     -11.0195      2.00000
      3      -9.9691      2.00000
      4      -9.6579      2.00000
      5      -5.0030      2.00000
      6      -4.4726      2.00000
      7      -2.8547      2.00000
      8      -2.8334      2.00000
      9      -2.1185      2.00000
     10      -0.7606      2.00000
     11      -0.2890      2.00000
     12      -0.2653      2.00000
     13      -0.0475      2.00000
     14       0.0665      2.00000
     15       0.8521      2.00000
     16       1.2094      2.00000
     17       1.3854      2.00000
     18       1.7801      2.00000
     19       2.1175      2.00000
     20       2.8750      1.98230
     21       3.0405      0.02098
     22       5.4561      0.00000
     23       5.5997      0.00000
     24       5.7235      0.00000
     25       5.8834      0.00000
     26       6.7109      0.00000
     27       6.8336      0.00000
     28       7.0795      0.00000
     29       8.0284      0.00000
     30       8.2787      0.00000
     31       8.2983      0.00000
     32       8.3138      0.00000

 k-point     2 :       0.1667    0.0000    0.0000
  band No.  band energies     occupation 
      1     -11.0487      2.00000
      2     -10.8420      2.00000
      3      -9.8632      2.00000
      4      -9.5880      2.00000
      5      -5.2510      2.00000
      6      -4.6785      2.00000
      7      -3.4371      2.00000
      8      -3.1095      2.00000
      9      -1.9823      2.00000
     10      -0.6415      2.00000
     11      -0.3821      2.00000
     12      -0.2275      2.00000
     13      -0.1512      2.00000
     14       0.0841      2.00000
     15       0.7231      2.00000
     16       1.0282      2.00000
     17       1.4741      2.00000
     18       1.9605      2.00000
     19       1.9614      2.00000
     20       2.7903      2.00000
     21       3.1752      0.00000
     22       5.1802      0.00000
     23       5.5742      0.00000
     24       6.1770      0.00000
     25       6.2251      0.00000
     26       6.2631      0.00000
     27       6.4310      0.00000
     28       7.1451      0.00000
     29       7.2179      0.00000
     30       7.6817      0.00000
     31       7.6956      0.00000
     32       8.3431      0.00000

 k-point     3 :       0.3333    0.0000    0.0000
  band No.  band energies     occupation 
      1     -10.5440      2.00000
      2     -10.3669      2.00000
      3      -9.7095      2.00000
      4      -9.5347      2.00000
      5      -5.7230      2.00000
      6      -5.0639      2.00000
      7      -4.6301      2.00000
      8      -4.0533      2.00000
      9      -1.4105      2.00000
     10      -0.5703      2.00000
     11      -0.2959      2.00000
     12       0.1401      2.00000
     13       0.1991      2.00000
     14       0.5507      2.00000
     15       0.7493      2.00000
     16       0.8960      2.00000
     17       1.3974      2.00000
     18       1.7755      2.00000
     19       2.0993      2.00000
     20       2.3390      2.00000
     21       3.7839      0.00000
     22       3.9403      0.00000
     23       4.3861      0.00000
     24       4.9701      0.00000
     25       5.3746      0.00000
     26       5.4553      0.00000
     27       5.5229      0.00000
     28       6.2773      0.00000
     29       6.4504      0.00000
     30       6.6327      0.00000
     31       7.5183      0.00000
     32       8.3298      0.00000

 k-point     4 :       0.5000    0.0000    0.0000
  band No.  band energies     occupation 
      1      -9.9456      2.00000
      2      -9.9456      2.00000
      3      -9.8136      2.00000
      4      -9.8136      2.00000
      5      -5.5979      2.00000
      6      -5.5979      2.00000
      7      -4.9153      2.00000
      8      -4.9153      2.00000
      9      -0.6621      2.00000
     10      -0.6621      2.00000
     11       0.2109      2.00000
     12       0.2109      2.00000
     13       0.5525      2.00000
     14       0.5525      2.00000
     15       0.8464      2.00000
     16       0.8464      2.00000
     17       1.4349      2.00000
     18       1.4349      2.00000
     19       2.0186      2.00000
     20       2.0186      2.00000
     21       3.9154      0.00000
     22       3.9154      0.00000
     23       4.4593      0.00000
     24       4.4593      0.00000
     25       4.7326      0.00000
     26       4.7326      0.00000
     27       5.3527      0.00000
     28       5.3527      0.00000
     29       5.4961      0.00000
     30       5.4961      0.00000
     31       7.9453      0.00000
     32       7.9453      0.00000

 k-point     5 :       0.0000    0.1667    0.0000
  band No.  band energies     occupation 
      1     -11.1203      2.00000
      2     -10.9137      2.00000
      3      -9.9792      2.00000
      4      -9.7145      2.00000
      5      -5.2120      2.00000
      6      -4.7211      2.00000
      7      -3.6466      2.00000
      8      -3.1311      2.00000
      9      -1.9076      2.00000
     10      -0.2850      2.00000
     11       0.0367      2.00000
     12       0.0771      2.00000
     13       0.1302      2.00000
     14       0.2230      2.00000
     15       1.2072      2.00000
     16       1.3595      2.00000
     17       1.5454      2.00000
     18       1.5752      2.00000
     19       2.1283      2.00000
     20       2.7519      2.00000
     21       3.4641      0.00000
     22       5.0612      0.00000
     23       5.5131      0.00000
     24       5.5287      0.00000
     25       5.7157      0.00000
     26       6.2751      0.00000
     27       6.3764      0.00000
     28       7.1194      0.00000
     29       7.4832      0.00000
     30       7.6288      0.00000
     31       7.7819      0.00000
     32       8.3234      0.00000

 k-point     6 :       0.1667    0.1667    0.0000
  band No.  band energies     occupation 
      1     -10.9385      2.00000
      2     -10.7426      2.00000
      3      -9.8714      2.00000
      4      -9.6426      2.00000
      5      -5.3201      2.00000
      6      -4.8115      2.00000
      7      -3.9058      2.00000
      8      -3.3253      2.00000
      9      -1.7485      2.00000
     10      -1.0614      2.00000
     11      -0.7768      2.00000
     12      -0.1337      2.00000
     13       0.4192      2.00000
     14       0.6092      2.00000
     15       0.8518      2.00000
     16       0.8581      2.00000
     17       1.5035      2.00000
     18       2.0016      2.00000
     19       2.1684      2.00000
     20       2.7606      2.00000
     21       3.6385      0.00000
     22       4.7941      0.00000
     23       5.1021      0.00000
     24       5.6012      0.00000
     25       6.0111      0.00000
     26       6.4652      0.00000
     27       6.8909      0.00000
     28       7.0158      0.00000
     29       7.0837      0.00000
     30       7.2053      0.00000
     31       7.4859      0.00000
     32       8.6145      0.00000

 k-point     7 :       0.1667   -0.1667    0.0000
  band No.  band energies     occupation 
      1     -10.9399      2.00000
      2     -10.7414      2.00000
      3      -9.8755      2.00000
      4      -9.6375      2.00000
      5      -5.3565      2.00000
      6      -4.7723      2.00000
      7      -3.6982      2.00000
      8      -3.5626      2.00000
      9      -1.7686      2.00000
     10      -0.9778      2.00000
     11      -0.8929      2.00000
     12      -0.0785      2.00000
     13       0.4512      2.00000
     14       0.6728      2.00000
     15       0.8243      2.00000
     16       0.8411      2.00000
     17       1.6801      2.00000
     18       1.8534      2.00000
     19       2.2861      2.00000
     20       2.5783      2.00000
     21       3.5387      0.00000
     22       4.9328      0.00000
     23       5.0853      0.00000
     24       5.4855      0.00000
     25       5.9982      0.00000
     26       6.4837      0.00000
     27       6.5120      0.00000
     28       7.1479      0.00000
     29       7.4212      0.00000
     30       7.5725      0.00000
     31       7.5876      0.00000
     32       8.0666      0.00000

 k-point     8 :       0.3333    0.1667    0.0000
  band No.  band energies     occupation 
      1     -10.4535      2.00000
      2     -10.2897      2.00000
      3      -9.7043      2.00000
      4      -9.5669      2.00000
      5      -5.6136      2.00000
      6      -5.0280      2.00000
      7      -4.7131      2.00000
      8      -4.0650      2.00000
      9      -1.2954      2.00000
     10      -1.2884      2.00000
     11      -1.0792      2.00000
     12      -0.1386      2.00000
     13       0.2029      2.00000
     14       0.5270      2.00000
     15       0.5304      2.00000
     16       0.9891      2.00000
     17       1.2022      2.00000
     18       1.6282      2.00000
     19       1.8441      2.00000
     20       2.5282      2.00000
     21       3.7978      0.00000
     22       4.6638      0.00000
     23       4.6677      0.00000
     24       5.2047      0.00000
     25       5.2321      0.00000
     26       5.8188      0.00000
     27       6.3866      0.00000
     28       6.5296      0.00000
     29       7.0210      0.00000
     30       7.4424      0.00000
     31       7.6978      0.00000
     32       8.4665      0.00000

 k-point     9 :       0.3333   -0.1667    0.0000
  band No.  band energies     occupation 
      1     -10.4560      2.00000
      2     -10.2879      2.00000
      3      -9.7141      2.00000
      4      -9.5549      2.00000
      5      -5.6725      2.00000
      6      -4.9645      2.00000
      7      -4.5851      2.00000
      8      -4.2083      2.00000
      9      -1.3180      2.00000
     10      -1.2621      2.00000
     11      -1.1483      2.00000
     12      -0.1039      2.00000
     13       0.1274      2.00000
     14       0.5115      2.00000
     15       0.7358      2.00000
     16       0.9673      2.00000
     17       1.3267      2.00000
     18       1.7514      2.00000
     19       1.8410      2.00000
     20       2.1687      2.00000
     21       3.8086      0.00000
     22       4.5660      0.00000
     23       4.8602      0.00000
     24       5.0012      0.00000
     25       5.0502      0.00000
     26       5.9782      0.00000
     27       6.1603      0.00000
     28       7.1644      0.00000
     29       7.4299      0.00000
     30       7.5266      0.00000
     31       7.7294      0.00000
     32       7.8638      0.00000

 k-point    10 :       0.5000    0.1667    0.0000
  band No.  band energies     occupation 
      1      -9.9019      2.00000
      2      -9.8994      2.00000
      3      -9.7848      2.00000
      4      -9.7805      2.00000
      5      -5.5433      2.00000
      6      -5.4730      2.00000
      7      -4.8893      2.00000
      8      -4.8144      2.00000
      9      -0.8847      2.00000
     10      -0.8086      2.00000
     11      -0.5165      2.00000
     12      -0.4935      2.00000
     13      -0.0907      2.00000
     14       0.1179      2.00000
     15       0.4632      2.00000
     16       0.4938      2.00000
     17       1.2410      2.00000
     18       1.3956      2.00000
     19       2.0245      2.00000
     20       2.1187      2.00000
     21       4.0866      0.00000
     22       4.1153      0.00000
     23       4.8178      0.00000
     24       4.8315      0.00000
     25       5.5324      0.00000
     26       5.8787      0.00000
     27       6.1354      0.00000
     28       6.1367      0.00000
     29       6.5414      0.00000
     30       6.6534      0.00000
     31       7.3811      0.00000
     32       8.1020      0.00000

 k-point    11 :       0.0000    0.3333    0.0000
  band No.  band energies     occupation 
      1     -10.8042      2.00000
      2     -10.6277      2.00000
      3     -10.0802      2.00000
      4      -9.9206      2.00000
      5      -5.4736      2.00000
      6      -4.9692      2.00000
      7      -4.6264      2.00000
      8      -4.0340      2.00000
      9      -1.3763      2.00000
     10       0.2267      2.00000
     11       0.4669      2.00000
     12       0.5443      2.00000
     13       0.6335      2.00000
     14       0.7491      2.00000
     15       1.1924      2.00000
     16       1.3074      2.00000
     17       1.4261      2.00000
     18       2.3032      2.00000
     19       2.5942      2.00000
     20       2.8475      1.99837
     21       4.0410      0.00000
     22       4.2179      0.00000
     23       4.5667      0.00000
     24       5.2508      0.00000
     25       5.5339      0.00000
     26       5.6795      0.00000
     27       5.8027      0.00000
     28       6.4186      0.00000
     29       6.5664      0.00000
     30       6.7412      0.00000
     31       7.5287      0.00000
     32       8.3471      0.00000

 k-point    12 :       0.1667    0.3333    0.0000
  band No.  band energies     occupation 
      1     -10.6387      2.00000
      2     -10.4752      2.00000
      3      -9.9639      2.00000
      4      -9.8311      2.00000
      5      -5.4038      2.00000
      6      -4.9274      2.00000
      7      -4.6480      2.00000
      8      -4.0223      2.00000
      9      -1.1959      2.00000
     10      -1.0406      2.00000
     11      -0.7532      2.00000
     12      -0.1520      2.00000
     13       0.1861      2.00000
     14       0.4420      2.00000
     15       0.7962      2.00000
     16       1.2925      2.00000
     17       1.8961      2.00000
     18       1.9954      2.00000
     19       2.3444      2.00000
     20       2.6831      2.00000
     21       4.1337      0.00000
     22       4.9010      0.00000
     23       5.1293      0.00000
     24       5.4674      0.00000
     25       5.5314      0.00000
     26       6.0538      0.00000
     27       6.4424      0.00000
     28       6.7359      0.00000
     29       7.1637      0.00000
     30       7.2898      0.00000
     31       7.6793      0.00000
     32       8.4009      0.00000

 k-point    13 :       0.1667   -0.3333    0.0000
  band No.  band energies     occupation 
      1     -10.6411      2.00000
      2     -10.4733      2.00000
      3      -9.9698      2.00000
      4      -9.8240      2.00000
      5      -5.4575      2.00000
      6      -4.8736      2.00000
      7      -4.5374      2.00000
      8      -4.1405      2.00000
      9      -1.2697      2.00000
     10      -0.9402      2.00000
     11      -0.8623      2.00000
     12      -0.0115      2.00000
     13       0.0916      2.00000
     14       0.5185      2.00000
     15       0.7810      2.00000
     16       1.4174      2.00000
     17       1.8314      2.00000
     18       2.0759      2.00000
     19       2.2389      2.00000
     20       2.5942      2.00000
     21       4.1529      0.00000
     22       4.8222      0.00000
     23       5.3166      0.00000
     24       5.3280      0.00000
     25       5.5051      0.00000
     26       5.8689      0.00000
     27       6.3889      0.00000
     28       7.0917      0.00000
     29       7.1644      0.00000
     30       7.6199      0.00000
     31       7.7945      0.00000
     32       7.8232      0.00000

 k-point    14 :       0.3333    0.3333    0.0000
  band No.  band energies     occupation 
      1     -10.2170      2.00000
      2     -10.0895      2.00000
      3      -9.7433      2.00000
      4      -9.6774      2.00000
      5      -5.3665      2.00000
      6      -4.9006      2.00000
      7      -4.8942      2.00000
      8      -4.2458      2.00000
      9      -1.8520      2.00000
     10      -1.5558      2.00000
     11      -1.0908      2.00000
     12      -0.7806      2.00000
     13      -0.6947      2.00000
     14       0.1035      2.00000
     15       0.2315      2.00000
     16       0.5855      2.00000
     17       0.6970      2.00000
     18       1.6304      2.00000
     19       1.7200      2.00000
     20       2.3700      2.00000
     21       4.2603      0.00000
     22       5.3730      0.00000
     23       5.4193      0.00000
     24       6.1038      0.00000
     25       6.5847      0.00000
     26       6.6796      0.00000
     27       6.8504      0.00000
     28       7.3253      0.00000
     29       7.6590      0.00000
     30       7.9747      0.00000
     31       8.1846      0.00000
     32       8.9037      0.00000

 k-point    15 :       0.3333   -0.3333    0.0000
  band No.  band energies     occupation 
      1     -10.2206      2.00000
      2     -10.0873      2.00000
      3      -9.7606      2.00000
      4      -9.6571      2.00000
      5      -5.4850      2.00000
      6      -4.7676      2.00000
      7      -4.6539      2.00000
      8      -4.5098      2.00000
      9      -1.7995      2.00000
     10      -1.6418      2.00000
     11      -1.1868      2.00000
     12      -0.7647      2.00000
     13      -0.5747      2.00000
     14      -0.1169      2.00000
     15       0.3102      2.00000
     16       0.8341      2.00000
     17       0.9028      2.00000
     18       1.4158      2.00000
     19       1.8335      2.00000
     20       2.1151      2.00000
     21       4.0488      0.00000
     22       5.4831      0.00000
     23       5.6977      0.00000
     24       5.9872      0.00000
     25       6.2954      0.00000
     26       6.8312      0.00000
     27       7.0900      0.00000
     28       7.5549      0.00000
     29       7.6977      0.00000
     30       7.8419      0.00000
     31       8.5637      0.00000
     32       8.9289      0.00000

 k-point    16 :       0.5000    0.3333    0.0000
  band No.  band energies     occupation 
      1      -9.8052      2.00000
      2      -9.7978      2.00000
      3      -9.7293      2.00000
      4      -9.7187      2.00000
      5      -5.3825      2.00000
      6      -5.2208      2.00000
      7      -4.8135      2.00000
      8      -4.6396      2.00000
      9      -1.4332      2.00000
     10      -1.4083      2.00000
     11      -1.2361      2.00000
     12      -1.2148      2.00000
     13      -0.7168      2.00000
     14      -0.6573      2.00000
     15      -0.1845      2.00000
     16      -0.0551      2.00000
     17       0.8155      2.00000
     18       0.9069      2.00000
     19       1.7484      2.00000
     20       2.0965      2.00000
     21       4.5800      0.00000
     22       4.9827      0.00000
     23       6.3600      0.00000
     24       6.4785      0.00000
     25       6.5853      0.00000
     26       6.6258      0.00000
     27       7.0419      0.00000
     28       7.8683      0.00000
     29       7.8802      0.00000
     30       8.0400      0.00000
     31       8.2313      0.00000
     32       8.4743      0.00000

 k-point    17 :       0.0000    0.5000    0.0000
  band No.  band energies     occupation 
      1     -10.3891      2.00000
      2     -10.3891      2.00000
      3     -10.2586      2.00000
      4     -10.2586      2.00000
      5      -5.3075      2.00000
      6      -5.3075      2.00000
      7      -4.7382      2.00000
      8      -4.7382      2.00000
      9      -0.6134      2.00000
     10      -0.6134      2.00000
     11       0.9119      2.00000
     12       0.9119      2.00000
     13       0.9902      2.00000
     14       0.9902      2.00000
     15       1.1947      2.00000
     16       1.1947      2.00000
     17       2.2120      2.00000
     18       2.2120      2.00000
     19       2.5695      2.00000
     20       2.5695      2.00000
     21       4.3986      0.00000
     22       4.3986      0.00000
     23       4.7112      0.00000
     24       4.7112      0.00000
     25       5.1330      0.00000
     26       5.1330      0.00000
     27       5.8340      0.00000
     28       5.8340      0.00000
     29       6.0028      0.00000
     30       6.0028      0.00000
     31       8.0089      0.00000
     32       8.0089      0.00000

 k-point    18 :       0.1667    0.5000    0.0000
  band No.  band energies     occupation 
      1     -10.2517      2.00000
      2     -10.2515      2.00000
      3     -10.1348      2.00000
      4     -10.1341      2.00000
      5      -5.2448      2.00000
      6      -5.1764      2.00000
      7      -4.7002      2.00000
      8      -4.6324      2.00000
      9      -0.7045      2.00000
     10      -0.5880      2.00000
     11      -0.4914      2.00000
     12      -0.3962      2.00000
     13      -0.3115      2.00000
     14      -0.1150      2.00000
     15       1.0266      2.00000
     16       1.1918      2.00000
     17       1.8580      2.00000
     18       2.2287      2.00000
     19       2.4432      2.00000
     20       2.5732      2.00000
     21       4.5326      0.00000
     22       4.5727      0.00000
     23       5.3049      0.00000
     24       5.5482      0.00000
     25       5.6760      0.00000
     26       5.9950      0.00000
     27       6.6040      0.00000
     28       6.7600      0.00000
     29       7.0359      0.00000
     30       7.0831      0.00000
     31       7.5451      0.00000
     32       8.0325      0.00000

[...]
     32       7.5454      0.00000

 k-point    32 :       0.1667    0.3333    0.5000
  band No.  band energies     occupation 
      1     -10.5664      2.00000
      2     -10.5664      2.00000
      3      -9.8877      2.00000
      4      -9.8877      2.00000
      5      -5.2218      2.00000
      6      -5.2218      2.00000
      7      -4.3111      2.00000
      8      -4.3111      2.00000
      9      -1.0010      2.00000
     10      -1.0010      2.00000
     11      -0.4190      2.00000
     12      -0.4190      2.00000
     13       0.1577      2.00000
     14       0.1577      2.00000
     15       1.0689      2.00000
     16       1.0689      2.00000
     17       2.0179      2.00000
     18       2.0179      2.00000
     19       2.2294      2.00000
     20       2.2294      2.00000
     21       4.8882      0.00000
     22       4.8882      0.00000
     23       5.2735      0.00000
     24       5.2735      0.00000
     25       5.8416      0.00000
     26       5.8416      0.00000
     27       6.5154      0.00000
     28       6.5155      0.00000
     29       7.4427      0.00000
     30       7.4427      0.00000
     31       7.6305      0.00000
     32       7.6305      0.00000

 k-point    33 :       0.1667   -0.3333    0.5000
  band No.  band energies     occupation 
      1     -10.5674      2.00000
      2     -10.5674      2.00000
      3      -9.8865      2.00000
      4      -9.8865      2.00000
      5      -5.2225      2.00000
      6      -5.2225      2.00000
      7      -4.3079      2.00000
      8      -4.3078      2.00000
      9      -0.9990      2.00000
     10      -0.9990      2.00000
     11      -0.4473      2.00000
     12      -0.4473      2.00000
     13       0.1666      2.00000
     14       0.1666      2.00000
     15       1.0897      2.00000
     16       1.0897      2.00000
     17       1.9417      2.00000
     18       1.9417      2.00000
     19       2.3050      2.00000
     20       2.3050      2.00000
     21       4.9246      0.00000
     22       4.9246      0.00000
     23       5.4213      0.00000
     24       5.4213      0.00000
     25       5.7135      0.00000
     26       5.7135      0.00000
     27       6.4904      0.00000
     28       6.4904      0.00000
     29       7.0735      0.00000
     30       7.0735      0.00000
     31       7.8347      0.00000
     32       7.8347      0.00000

 k-point    34 :       0.3333    0.3333    0.5000
  band No.  band energies     occupation 
      1     -10.1599      2.00000
      2     -10.1599      2.00000
      3      -9.7036      2.00000
      4      -9.7036      2.00000
      5      -5.2276      2.00000
      6      -5.2276      2.00000
      7      -4.4871      2.00000
      8      -4.4871      2.00000
      9      -1.7606      2.00000
     10      -1.7606      2.00000
     11      -0.9451      2.00000
     12      -0.9451      2.00000
     13      -0.2585      2.00000
     14      -0.2585      2.00000
     15       0.5478      2.00000
     16       0.5478      2.00000
     17       1.1228      2.00000
     18       1.1228      2.00000
     19       1.8054      2.00000
     20       1.8054      2.00000
     21       5.1056      0.00000
     22       5.1056      0.00000
     23       5.5046      0.00000
     24       5.5046      0.00000
     25       6.9268      0.00000
     26       6.9268      0.00000
     27       7.1830      0.00000
     28       7.1830      0.00000
     29       7.7681      0.00000
     30       7.7681      0.00000
     31       8.5044      0.00000
     32       8.5044      0.00000

 k-point    35 :       0.3333   -0.3333    0.5000
  band No.  band energies     occupation 
      1     -10.1621      2.00000
      2     -10.1621      2.00000
      3      -9.7010      2.00000
      4      -9.7010      2.00000
      5      -5.2307      2.00000
      6      -5.2307      2.00000
      7      -4.4822      2.00000
      8      -4.4822      2.00000
      9      -1.7382      2.00000
     10      -1.7382      2.00000
     11      -0.9978      2.00000
     12      -0.9977      2.00000
     13      -0.2520      2.00000
     14      -0.2520      2.00000
     15       0.6060      2.00000
     16       0.6060      2.00000
     17       0.9940      2.00000
     18       0.9940      2.00000
     19       1.9426      2.00000
     20       1.9426      2.00000
     21       5.0132      0.00000
     22       5.0132      0.00000
     23       5.5770      0.00000
     24       5.5770      0.00000
     25       6.7161      0.00000
     26       6.7161      0.00000
     27       7.3007      0.00000
     28       7.3007      0.00000
     29       7.6360      0.00000
     30       7.6360      0.00000
     31       8.8025      0.00000
     32       8.8025      0.00000

 k-point    36 :       0.5000    0.3333    0.5000
  band No.  band energies     occupation 
      1      -9.7970      2.00000
      2      -9.7970      2.00000
      3      -9.7289      2.00000
      4      -9.7289      2.00000
      5      -5.2965      2.00000
      6      -5.2965      2.00000
      7      -4.7349      2.00000
      8      -4.7349      2.00000
      9      -1.4819      2.00000
     10      -1.4819      2.00000
     11      -1.1996      2.00000
     12      -1.1996      2.00000
     13      -0.6326      2.00000
     14      -0.6326      2.00000
     15      -0.1604      2.00000
     16      -0.1604      2.00000
     17       1.2145      2.00000
     18       1.2145      2.00000
     19       1.5034      2.00000
     20       1.5034      2.00000
     21       4.8829      0.00000
     22       4.8829      0.00000
     23       6.4026      0.00000
     24       6.4026      0.00000
     25       6.5776      0.00000
     26       6.5776      0.00000
     27       7.5345      0.00000
     28       7.5345      0.00000
     29       7.9599      0.00000
     30       7.9599      0.00000
     31       8.3506      0.00000
     32       8.3506      0.00000

 k-point    37 :       0.0000    0.5000    0.5000
  band No.  band energies     occupation 
      1     -10.3836      2.00000
      2     -10.3836      2.00000
      3     -10.2649      2.00000
      4     -10.2649      2.00000
      5      -5.1712      2.00000
      6      -5.1712      2.00000
      7      -4.9151      2.00000
      8      -4.9151      2.00000
      9      -0.0712      2.00000
     10      -0.0712      2.00000
     11       0.3935      2.00000
     12       0.3935      2.00000
     13       0.9194      2.00000
     14       0.9194      2.00000
     15       1.0035      2.00000
     16       1.0035      2.00000
     17       2.3413      2.00000
     18       2.3413      2.00000
     19       2.5928      2.00000
     20       2.5928      2.00000
     21       4.4163      0.00000
     22       4.4163      0.00000
     23       4.4994      0.00000
     24       4.4994      0.00000
     25       5.8267      0.00000
     26       5.8267      0.00000
     27       5.8525      0.00000
     28       5.8525      0.00000
     29       6.3318      0.00000
     30       6.3318      0.00000
     31       7.0818      0.00000
     32       7.0818      0.00000

 k-point    38 :       0.1667    0.5000    0.5000
  band No.  band energies     occupation 
      1     -10.2462      2.00000
      2     -10.2462      2.00000
      3     -10.1406      2.00000
      4     -10.1406      2.00000
      5      -5.1087      2.00000
      6      -5.1087      2.00000
      7      -4.7993      2.00000
      8      -4.7993      2.00000
      9      -0.6299      2.00000
     10      -0.6299      2.00000
     11      -0.4397      2.00000
     12      -0.4397      2.00000
     13       0.2390      2.00000
     14       0.2390      2.00000
     15       0.5894      2.00000
     16       0.5894      2.00000
     17       2.0610      2.00000
     18       2.0610      2.00000
     19       2.2842      2.00000
     20       2.2842      2.00000
     21       5.1724      0.00000
     22       5.1724      0.00000
     23       5.4384      0.00000
     24       5.4384      0.00000
     25       5.7347      0.00000
     26       5.7347      0.00000
     27       6.8178      0.00000
     28       6.8178      0.00000
     29       6.9904      0.00000
     30       6.9904      0.00000
     31       7.4179      0.00000
     32       7.4179      0.00000

 k-point    39 :       0.3333    0.5000    0.5000
  band No.  band energies     occupation 
      1      -9.9289      2.00000
      2      -9.9289      2.00000
      3      -9.8619      2.00000
      4      -9.8619      2.00000
      5      -5.1006      2.00000
      6      -5.1006      2.00000
      7      -4.6278      2.00000
      8      -4.6278      2.00000
      9      -1.6480      2.00000
     10      -1.6480      2.00000
     11      -1.5280      2.00000
     12      -1.5280      2.00000
     13      -0.1771      2.00000
     14      -0.1771      2.00000
     15       0.1837      2.00000
     16       0.1837      2.00000
     17       1.1846      2.00000
     18       1.1846      2.00000
     19       1.5087      2.00000
     20       1.5087      2.00000
     21       5.1142      0.00000
     22       5.1142      0.00000
     23       6.7486      0.00000
     24       6.7486      0.00000
     25       6.9640      0.00000
     26       6.9640      0.00000
     27       7.5666      0.00000
     28       7.5666      0.00000
     29       8.2344      0.00000
     30       8.2344      0.00000
     31       8.6096      0.00000
     32       8.6096      0.00000

 k-point    40 :       0.5000    0.5000    0.5000
  band No.  band energies     occupation 
      1      -9.7370      2.00000
      2      -9.7370      2.00000
      3      -9.7064      2.00000
      4      -9.7064      2.00000
      5      -5.2075      2.00000
      6      -5.2075      2.00000
      7      -4.6322      2.00000
      8      -4.6322      2.00000
      9      -1.7411      2.00000
     10      -1.7411      2.00000
     11      -1.4457      2.00000
     12      -1.4457      2.00000
     13      -1.0018      2.00000
     14      -1.0018      2.00000
     15      -0.5571      2.00000
     16      -0.5571      2.00000
     17       1.2570      2.00000
     18       1.2570      2.00000
     19       1.4951      2.00000
     20       1.4951      2.00000
     21       4.7167      0.00000
     22       4.7167      0.00000
     23       7.3215      0.00000
     24       7.3215      0.00000
     25       7.4772      0.00000
     26       7.4772      0.00000
     27       7.6730      0.00000
     28       7.6730      0.00000
     29       8.1256      0.00000
     30       8.1256      0.00000
     31       9.2897      0.00000
     32       9.2897      0.00000


--------------------------------------------------------------------------------------------------------


 soft charge-density along one line, spin component            1
         0         1         2         3         4         5         6         7         8         9
 total charge-density along one line
 
 pseudopotential strength for first ion, spin component:            1
 14.620  18.243   0.041   0.045  -0.001   0.074   0.082  -0.002
 18.243  22.780   0.052   0.057  -0.001   0.094   0.103  -0.002
  0.041   0.052   3.241  -0.002   0.000   5.519  -0.004   0.000
  0.045   0.057  -0.002   3.239   0.000  -0.004   5.516   0.000
 -0.001  -0.001   0.000   0.000   3.243   0.000   0.000   5.522
  0.074   0.094   5.519  -0.004   0.000   9.456  -0.007   0.000
  0.082   0.103  -0.004   5.516   0.000  -0.007   9.450   0.000
 -0.002  -0.002   0.000   0.000   5.522   0.000   0.000   9.460
  0.000   0.000  -0.000   0.000   0.007  -0.000   0.000   0.013
 -0.005  -0.006   0.012   0.013   0.000   0.021   0.023   0.000
 -0.003  -0.004  -0.004   0.012   0.000  -0.007   0.021   0.000
  0.000   0.000   0.000  -0.000   0.012   0.000  -0.000   0.021
  0.002   0.002  -0.012   0.000  -0.000  -0.022   0.000  -0.000
 total augmentation occupancy for first ion, spin component:            1
  2.725  -0.697   0.356   0.354   0.002  -0.068  -0.063  -0.001   0.002  -0.015  -0.004   0.001   0.009
 -0.697   0.663  -0.444  -0.474   0.004   0.071   0.073  -0.000  -0.002   0.006   0.007  -0.003  -0.004
  0.356  -0.444   1.230   0.039  -0.002  -0.201   0.007  -0.000   0.000   0.042  -0.097  -0.000  -0.000
  0.354  -0.474   0.039   1.316  -0.006   0.007  -0.212   0.001  -0.001  -0.011   0.100   0.002  -0.003
  0.002   0.004  -0.002  -0.006   1.238  -0.000   0.001  -0.212   0.146  -0.001   0.000   0.035  -0.000
 -0.068   0.071  -0.201   0.007  -0.000   0.037  -0.003   0.000  -0.000  -0.007   0.016   0.000   0.000
 -0.063   0.073   0.007  -0.212   0.001  -0.003   0.039  -0.000   0.000   0.002  -0.017  -0.000   0.001
 -0.001  -0.000  -0.000   0.001  -0.212   0.000  -0.000   0.041  -0.025   0.000  -0.000  -0.006   0.000
  0.002  -0.002   0.000  -0.001   0.146  -0.000   0.000  -0.025   0.031   0.000   0.000   0.002   0.000
 -0.015   0.006   0.042  -0.011  -0.001  -0.007   0.002   0.000   0.000   0.011  -0.007   0.000   0.001
 -0.004   0.007  -0.097   0.100   0.000   0.016  -0.017  -0.000   0.000  -0.007   0.031   0.000  -0.002
  0.001  -0.003  -0.000   0.002   0.035   0.000  -0.000  -0.006   0.002   0.000   0.000   0.009   0.000
  0.009  -0.004  -0.000  -0.003  -0.000   0.000   0.001   0.000   0.000   0.001  -0.002   0.000   0.008


------------------------ aborting loop because EDIFF is reached ----------------------------------------


    CHARGE:  cpu time      0.0054: real time      0.0054
    FORLOC:  cpu time      0.0002: real time      0.0002
    FORNL :  cpu time      0.0255: real time      0.0256
    STRESS:  cpu time      0.2807: real time      0.2818
    FORCOR:  cpu time      0.0067: real time      0.0067
    FORHAR:  cpu time      0.0016: real time      0.0016
    MIXING:  cpu time      0.0006: real time      0.0006
    OFIELD:  cpu time      0.0000: real time      0.0000

  FORCE on cell =-STRESS in cart. coord.  units (eV):
  Direction    XX          YY          ZZ          XY          YZ          ZX
  --------------------------------------------------------------------------------------
  Alpha Z    83.74936    83.74936    83.74936
  Ewald    -404.32602  -460.49096  -516.78423     3.96718    -0.00000     0.00001
  Hartree    81.66614    58.60082    16.83610     1.53539    -0.00000     0.00000
  E(xc)    -140.96226  -141.00396  -141.35420     0.03096    -0.00000     0.00000
  Local    -238.53196  -165.40251   -69.82550    -5.54688     0.00000    -0.00001
  n-local   240.42386   239.98428   241.77997    -0.01712    -0.00000     0.00000
  augment   -11.38885   -11.78336   -12.06402    -0.01575    -0.00000     0.00000
  Kinetic   390.42607   396.41640   398.48166     0.51194     0.00000    -0.00000
  Fock        0.00000     0.00000     0.00000     0.00000     0.00000     0.00000
  -------------------------------------------------------------------------------------
  Total       1.05633     0.07007     0.81912     0.46573    -0.00000    -0.00000
  in kB       8.36497     0.55488     6.48657     3.68805    -0.00000    -0.00000
  external pressure =        5.14 kB  Pullay stress =        0.00 kB


 VOLUME and BASIS-vectors are now :
 -----------------------------------------------------------------------------
  energy-cutoff  :      360.00
  volume of cell :      202.32
      direct lattice vectors                 reciprocal lattice vectors
     3.858100176  0.000000000  0.000000000     0.259194929  0.000000000  0.000000000
     0.000000000  4.526575088  0.000000000     0.000000000  0.220917577  0.000000000
     0.000000000  0.000000000 11.585176468     0.000000000  0.000000000  0.086317200

  length of vectors
     3.858100176  4.526575088 11.585176468     0.259194929  0.220917577  0.086317200


 FORCES acting on ions
    electron-ion (+dipol)            ewald-force                    non-local-force                 convergence-correction
 -----------------------------------------------------------------------------------------------
   -.198E+00 0.164E+02 0.297E+02   0.319E+00 -.189E+02 -.326E+02   -.104E+00 0.246E+01 0.303E+01   0.521E-04 -.152E-04 -.593E-03
   -.198E+00 0.164E+02 -.297E+02   0.319E+00 -.189E+02 0.326E+02   -.104E+00 0.246E+01 -.303E+01   0.520E-04 -.161E-04 0.593E-03
   0.198E+00 -.164E+02 -.297E+02   -.319E+00 0.189E+02 0.326E+02   0.104E+00 -.246E+01 -.303E+01   -.519E-04 0.156E-04 0.593E-03
   0.198E+00 -.164E+02 0.297E+02   -.319E+00 0.189E+02 -.326E+02   0.104E+00 -.246E+01 0.303E+01   -.521E-04 0.158E-04 -.593E-03
   -.533E+00 -.183E+02 -.367E+02   0.455E+00 0.199E+02 0.385E+02   0.163E+00 -.142E+01 -.179E+01   -.110E-03 -.163E-03 0.922E-03
   -.533E+00 -.183E+02 0.367E+02   0.455E+00 0.199E+02 -.385E+02   0.163E+00 -.142E+01 0.179E+01   -.111E-03 -.164E-03 -.920E-03
   0.533E+00 0.183E+02 0.367E+02   -.455E+00 -.199E+02 -.385E+02   -.163E+00 0.142E+01 0.179E+01   0.110E-03 0.164E-03 -.922E-03
   0.533E+00 0.183E+02 -.367E+02   -.455E+00 -.199E+02 0.385E+02   -.163E+00 0.142E+01 -.179E+01   0.110E-03 0.164E-03 0.919E-03
 -----------------------------------------------------------------------------------------------
   0.702E-04 0.183E-05 0.885E-06   0.455E-14 0.000E+00 -.213E-13   -.675E-05 0.256E-04 -.413E-06   -.442E-06 0.138E-05 -.774E-06
 
 
 POSITION                                       TOTAL-FORCE (eV/Angst)
 -----------------------------------------------------------------------------------
      2.19464      2.92855      1.52892         0.017082     -0.053834      0.136457
      0.26559      0.66526      4.26367         0.017082     -0.053834     -0.136458
      2.89357      4.09092     10.05626        -0.017112      0.053930     -0.136485
      0.96452      1.82763      7.32150        -0.017112      0.053931      0.136485
      2.19464      2.39995      4.06767         0.085518      0.096456     -0.006676
      0.26559      0.13666      1.72492         0.085518      0.096456      0.006678
      2.89357      0.09295      7.51751        -0.085487     -0.096552      0.007102
      0.96452      2.35624      9.86026        -0.085488     -0.096552     -0.007103
 -----------------------------------------------------------------------------------
    total drift:                                0.000063      0.000029     -0.000000


--------------------------------------------------------------------------------------------------------



  FREE ENERGIE OF THE ION-ELECTRON SYSTEM (eV)
  ---------------------------------------------------
  free  energy   TOTEN  =       -33.65247385 eV

  energy  without entropy=      -33.65241754  energy(sigma->0) =      -33.65244569
 


--------------------------------------------------------------------------------------------------------


    POTLOK:  cpu time      0.2273: real time      0.2278


--------------------------------------------------------------------------------------------------------


     LOOP+:  cpu time      7.6778: real time      7.7210
    4ORBIT:  cpu time      0.0000: real time      0.0000

 total amount of memory used by VASP MPI-rank0    37119. kBytes
=======================================================================

   base      :      30000. kBytes
   nonl-proj :       5406. kBytes
   fftplans  :        334. kBytes
   grid      :        503. kBytes
   one-center:         16. kBytes
   wavefun   :        860. kBytes
 
  
  
 General timing and accounting informations for this job:
 ========================================================
  
                  Total CPU time used (sec):        9.331
                            User time (sec):        9.075
                          System time (sec):        0.256
                         Elapsed time (sec):        9.623
  
                   Maximum memory used (kb):      174196.
                   Average memory used (kb):          N/A
  
                          Minor page faults:        19083
                          Major page faults:           53
                 Voluntary context switches:         1585
