 running  128 mpi-ranks, with    1 threads/rank, on    2 nodes
 distrk:  each k-point on   64 cores,    2 groups
 distr:  one band on    4 cores,   16 groups
 vasp.6.4.2 20Jul23 (build Oct 12 2023 10:31:02) complex                         
 POSCAR found type information on POSCAR GeSe
 POSCAR found :  2 types and       8 ions
 Reading from existing POTCAR
 scaLAPACK will be used
 Reading from existing POTCAR
 LDA part: xc-table for Pade appr. of Perdew
 POSCAR, INCAR and KPOINTS ok, starting setup
 FFT: planning ... GRIDC
 FFT: planning ... GRID_SOFT
 FFT: planning ... GRID
 WAVECAR not read
 entering main loop
       N       E                     dE             d eps       ncg     rms          rms(c)
DAV:   1     0.133641507931E+03    0.13364E+03   -0.12487E+04  2560   0.759E+02
DAV:   2    -0.239150077371E+02   -0.15756E+03   -0.15264E+03  3744   0.135E+02
DAV:   3    -0.336740455723E+02   -0.97590E+01   -0.97342E+01  3232   0.394E+01
DAV:   4    -0.337506824723E+02   -0.76637E-01   -0.76631E-01  3088   0.401E+00
DAV:   5    -0.337511945570E+02   -0.51208E-03   -0.51208E-03  3280   0.322E-01    0.603E+00
DAV:   6    -0.330925915705E+02    0.65860E+00   -0.15054E+00  2816   0.394E+00    0.368E+00
DAV:   7    -0.330854625670E+02    0.71290E-02   -0.29433E-01  3040   0.189E+00    0.167E+00
DAV:   8    -0.330851852538E+02    0.27731E-03   -0.30612E-02  2896   0.688E-01    0.186E-01
DAV:   9    -0.330848978657E+02    0.28739E-03   -0.59517E-03  3136   0.310E-01    0.790E-02
DAV:  10    -0.330851063468E+02   -0.20848E-03   -0.67552E-04  2768   0.113E-01    0.273E-02
DAV:  11    -0.330851394329E+02   -0.33086E-04   -0.51410E-05  3104   0.329E-02    0.153E-02
DAV:  12    -0.330851400815E+02   -0.64858E-06   -0.13654E-05  2848   0.150E-02    0.373E-03
DAV:  13    -0.330851409445E+02   -0.86304E-06   -0.16474E-06  2192   0.474E-03
   1 F= -.33085141E+02 E0= -.33085141E+02  d E =-.235497E-15
