 vasp.6.4.2 20Jul23 (build Oct 12 2023 10:31:02) complex                         
 executed on              LinuxNV date 2025.05.27  16:14:30
 running   32 mpi-ranks, with    1 threads/rank, on    2 nodes
 distrk:  each k-point on   16 cores,    2 groups
 distr:  one band on NCORE=   1 cores,   16 groups


--------------------------------------------------------------------------------------------------------


 INCAR:
   ENCUT = 520.000000
   SIGMA = 0.050000
   EDIFF = 1.00e-06
   ALGO = N
   GGA = PE
   PREC = Accurate
   SYSTEM = 02_SCF
   ICHARG = 0
   ISMEAR = 0
   ISPIN = 2
   ISTART = 1
   KPAR = 2
   LORBIT = 11
   NBANDS = 220
   NELM = 100
   NELMIN = 5
   LASPH = .TRUE.
   LCHARG = .TRUE.
   LWAVE = .TRUE.
   LREAL = .FALSE.

 POTCAR:    PAW_PBE Ge 05Jan2001                  
 POTCAR:    PAW_PBE Se 06Sep2000                  
 -----------------------------------------------------------------------------
|                                                                             |
|           W    W    AA    RRRRR   N    N  II  N    N   GGGG   !!!           |
|           W    W   A  A   R    R  NN   N  II  NN   N  G    G  !!!           |
|           W    W  A    A  R    R  N N  N  II  N N  N  G       !!!           |
|           W WW W  AAAAAA  RRRRR   N  N N  II  N  N N  G  GGG   !            |
|           WW  WW  A    A  R   R   N   NN  II  N   NN  G    G                |
|           W    W  A    A  R    R  N    N  II  N    N   GGGG   !!!           |
|                                                                             |
|     You use a magnetic or noncollinear calculation, but did not specify     |
|     the initial magnetic moment with the MAGMOM tag. Note that a            |
|     default of 1 will be used for all atoms. This ferromagnetic setup       |
|     may break the symmetry of the crystal, in particular it may rule        |
|     out finding an antiferromagnetic solution. Thence, we recommend         |
|     setting the initial magnetic moment manually or verifying carefully     |
|     that this magnetic setup is desired.                                    |
|                                                                             |
 -----------------------------------------------------------------------------

 POTCAR:    PAW_PBE Ge 05Jan2001                  
   VRHFIN =Ge: s2p2                                                                                 
   LEXCH  = PE                                                                                      
   EATOM  =   104.9960 eV,    7.7170 Ry                                                             
                                                                                                    
   TITEL  = PAW_PBE Ge 05Jan2001                                                                    
   LULTRA =        F    use ultrasoft PP ?                                                          
   IUNSCR =        1    unscreen: 0-lin 1-nonlin 2-no                                               
   RPACOR =    2.170    partial core radius                                                         
   POMASS =   72.610; ZVAL   =    4.000    mass and valenz                                          
   RCORE  =    2.300    outmost cutoff radius                                                       
   RWIGS  =    2.300; RWIGS  =    1.217    wigner-seitz radius (au A)                               
   ENMAX  =  173.807; ENMIN  =  130.355 eV                                                          
   ICORE  =        3    local potential                                                             
   LCOR   =        T    correct aug charges                                                         
   LPAW   =        T    paw PP                                                                      
   EAUG   =  385.843                                                                                
   DEXC   =    0.000                                                                                
   RMAX   =    2.342    core radius for proj-oper                                                   
   RAUG   =    1.300    factor for augmentation sphere                                              
   RDEP   =    2.318    radius for radial grids                                                     
   RDEPT  =    2.103    core radius for aug-charge                                                  
                                                                                                    
   Atomic configuration                                                                             
   10 entries                                                                                       
     n  l   j            E        occ.                                                              
     1  0  0.50    -10959.8463   2.0000                                                             
     2  0  0.50     -1371.6056   2.0000                                                             
     2  1  1.50     -1198.4791   6.0000                                                             
     3  0  0.50      -168.4733   2.0000                                                             
     3  1  1.50      -115.6019   6.0000                                                             
     3  2  2.50       -29.3106  10.0000                                                             
     4  0  0.50       -11.7309   2.0000                                                             
     4  1  0.50        -3.8952   2.0000                                                             
     4  2  1.50        -4.0817   0.0000                                                             
     4  3  2.50        -4.0817   0.0000                                                             
   Description                                                                                      
     l       E           TYP  RCUT    TYP  RCUT                                                     
     0    -11.7309493     23  2.300                                                                 
     0     -7.4578696     23  2.300                                                                 
     1     -3.8952261     23  2.300                                                                 
     1      6.1178114     23  2.300                                                                 
     2     -4.0817478     23  2.300                                                                 
     3     -1.3605826      7  2.300                                                                 
  local pseudopotential read in
  partial core-charges read in
  partial kinetic energy density read in
  atomic valenz-charges read in
  non local Contribution for L=            0  read in
    real space projection operators read in
  non local Contribution for L=            0  read in
    real space projection operators read in
  non local Contribution for L=            1  read in
    real space projection operators read in
  non local Contribution for L=            1  read in
    real space projection operators read in
  non local Contribution for L=            2  read in
    real space projection operators read in
    PAW grid and wavefunctions read in
 
   number of l-projection  operators is LMAX  =            5
   number of lm-projection operators is LMMAX =           13
 
 POTCAR:    PAW_PBE Se 06Sep2000                  
   VRHFIN =Se: s2p4                                                                                 
   LEXCH  = PE                                                                                      
   EATOM  =   257.1286 eV,   18.8984 Ry                                                             
                                                                                                    
   TITEL  = PAW_PBE Se 06Sep2000                                                                    
   LULTRA =        F    use ultrasoft PP ?                                                          
   IUNSCR =        1    unscreen: 0-lin 1-nonlin 2-no                                               
   RPACOR =    1.900    partial core radius                                                         
   POMASS =   78.960; ZVAL   =    6.000    mass and valenz                                          
   RCORE  =    2.100    outmost cutoff radius                                                       
   RWIGS  =    2.200; RWIGS  =    1.164    wigner-seitz radius (au A)                               
   ENMAX  =  211.555; ENMIN  =  158.666 eV                                                          
   ICORE  =        3    local potential                                                             
   LCOR   =        T    correct aug charges                                                         
   LPAW   =        T    paw PP                                                                      
   EAUG   =  446.842                                                                                
   DEXC   =    0.000                                                                                
   RMAX   =    2.147    core radius for proj-oper                                                   
   RAUG   =    1.300    factor for augmentation sphere                                              
   RDEP   =    2.177    radius for radial grids                                                     
   RDEPT  =    1.928    core radius for aug-charge                                                  
                                                                                                    
   Atomic configuration                                                                             
   10 entries                                                                                       
     n  l   j            E        occ.                                                              
     1  0  0.50    -12503.4787   2.0000                                                             
     2  0  0.50     -1606.9547   2.0000                                                             
     2  1  1.50     -1413.3140   6.0000                                                             
     3  0  0.50      -213.4885   2.0000                                                             
     3  1  1.50      -152.9538   6.0000                                                             
     3  2  2.50       -53.1221  10.0000                                                             
     4  0  0.50       -17.2865   2.0000                                                             
     4  1  0.50        -6.5110   4.0000                                                             
     4  2  2.50        -6.8029   0.0000                                                             
     4  3  2.50        -6.8029   0.0000                                                             
   Description                                                                                      
     l       E           TYP  RCUT    TYP  RCUT                                                     
     0    -17.2865377     23  2.100                                                                 
     0    -15.3094411     23  2.100                                                                 
     1     -6.5110275     23  2.100                                                                 
     1     -0.0695192     23  2.100                                                                 
     2     -6.8029130     23  2.100                                                                 
     3     -1.3605826      7  2.100                                                                 
  local pseudopotential read in
  partial core-charges read in
  partial kinetic energy density read in
  atomic valenz-charges read in
  non local Contribution for L=            0  read in
    real space projection operators read in
  non local Contribution for L=            0  read in
    real space projection operators read in
  non local Contribution for L=            1  read in
    real space projection operators read in
  non local Contribution for L=            1  read in
    real space projection operators read in
  non local Contribution for L=            2  read in
    real space projection operators read in
    PAW grid and wavefunctions read in
 
   number of l-projection  operators is LMAX  =            5
   number of lm-projection operators is LMMAX =           13
 
  PAW_PBE Ge 05Jan2001                  :
 energy of atom  1       EATOM= -104.9960
 kinetic energy error for atom=    0.0002 (will be added to EATOM!!)
  PAW_PBE Se 06Sep2000                  :
 energy of atom  2       EATOM= -257.1286
 kinetic energy error for atom=    0.0007 (will be added to EATOM!!)
 
 
 POSCAR: Ge Se
  positions in cartesian coordinates
  No initial velocities read in
 exchange correlation table for  LEXCH =        8
   RHO(1)=    0.500       N(1)  =     2000
   RHO(2)=  100.500       N(2)  =     4000
 


--------------------------------------------------------------------------------------------------------


 ion  position               nearest neighbor table
   1  0.250  0.116  0.065-   3 2.60   3 2.60   4 2.60
   2  0.750  0.616  0.198-   4 2.60   4 2.60   3 2.60
   3  0.750  0.495  0.077-   1 2.60   1 2.60   2 2.60
   4  0.250  0.995  0.185-   2 2.60   2 2.60   1 2.60
 
  LATTYP: Found a simple orthorhombic cell.
 ALAT       =     3.8581001759
 B/A-ratio  =     1.1732653073
 C/A-ratio  =     5.4651708112
  
  Lattice vectors:
  
 A1 = (   3.8581001759,   0.0000000000,   0.0000000000)
 A2 = (   0.0000000000,   4.5265750885,   0.0000000000)
 A3 = (   0.0000000000,   0.0000000000,  21.0851764679)


Analysis of symmetry for initial positions (statically):
=====================================================================
 Subroutine PRICEL returns:
 Original cell was already a primitive cell.
 

 Routine SETGRP: Setting up the symmetry group for a 
 simple orthorhombic supercell.


 Subroutine GETGRP returns: Found  4 space group operations
 (whereof  1 operations were pure point group operations)
 out of a pool of  8 trial point group operations.


The static configuration has the point symmetry C_1 .
 The point group associated with its full space group is C_2v.


Analysis of symmetry for dynamics (positions and initial velocities):
=====================================================================
 Subroutine PRICEL returns:
 Original cell was already a primitive cell.
 

 Routine SETGRP: Setting up the symmetry group for a 
 simple orthorhombic supercell.


 Subroutine GETGRP returns: Found  4 space group operations
 (whereof  1 operations were pure point group operations)
 out of a pool of  8 trial point group operations.


The dynamic configuration has the point symmetry C_1 .
 The point group associated with its full space group is C_2v.


Analysis of structural, dynamic, and magnetic symmetry:
=====================================================================
 Subroutine PRICEL returns:
 Original cell was already a primitive cell.
 

 Routine SETGRP: Setting up the symmetry group for a 
 simple orthorhombic supercell.


 Subroutine GETGRP returns: Found  4 space group operations
 (whereof  1 operations were pure point group operations)
 out of a pool of  8 trial point group operations.


The overall configuration has the point symmetry C_1 .
 The point group associated with its full space group is C_2v.


 Subroutine INISYM returns: Found  4 space group operations
 (whereof  1 operations are pure point group operations),
 and found     1 'primitive' translations


----------------------------------------------------------------------------------------

                                     Primitive cell                                     

  volume of cell :     368.2311

  direct lattice vectors                    reciprocal lattice vectors
     3.858100176  0.000000000  0.000000000     0.259194929  0.000000000  0.000000000
     0.000000000  4.526575088  0.000000000     0.000000000  0.220917577  0.000000000
     0.000000000  0.000000000 21.085176468     0.000000000  0.000000000  0.047426684

  length of vectors
     3.858100176  4.526575088 21.085176468     0.259194929  0.220917577  0.047426684

  position of ions in fractional coordinates (direct lattice)
     0.250000000  0.115641899  0.064949219
     0.750000000  0.615641892  0.197917357
     0.750000000  0.495050967  0.077477239
     0.250000000  0.995051026  0.185389342

  ion indices of the primitive-cell ions
   primitive index   ion index
                 1           1
                 2           2
                 3           3
                 4           4

----------------------------------------------------------------------------------------

 
 
 KPOINTS: KPOINTS created by Atomic Simulation Env

Automatic generation of k-mesh.
 Grid dimensions read from file:
 generate k-points for:    6    6    2

 Generating k-lattice:

  Cartesian coordinates                     Fractional coordinates (reciprocal lattice)
     0.043199155  0.000000000  0.000000000     0.166666667  0.000000000  0.000000000
     0.000000000  0.036819596  0.000000000     0.000000000  0.166666667  0.000000000
     0.000000000  0.000000000  0.023713342     0.000000000  0.000000000  0.500000000

  Length of vectors
     0.043199155  0.036819596  0.023713342

  Shift w.r.t. Gamma in fractional coordinates (k-lattice)
     0.000000000  0.000000000  0.000000000

 
 Subroutine IBZKPT returns following result:
 ===========================================
 
 Found     32 irreducible k-points:
 
 Following reciprocal coordinates:
            Coordinates               Weight
  0.000000  0.000000  0.000000      1.000000
  0.166667  0.000000  0.000000      2.000000
  0.333333  0.000000  0.000000      2.000000
  0.500000  0.000000  0.000000      1.000000
  0.000000  0.166667  0.000000      2.000000
  0.166667  0.166667  0.000000      4.000000
  0.333333  0.166667  0.000000      4.000000
  0.500000  0.166667  0.000000      2.000000
  0.000000  0.333333  0.000000      2.000000
  0.166667  0.333333  0.000000      4.000000
  0.333333  0.333333  0.000000      4.000000
  0.500000  0.333333  0.000000      2.000000
  0.000000  0.500000  0.000000      1.000000
  0.166667  0.500000  0.000000      2.000000
  0.333333  0.500000  0.000000      2.000000
  0.500000  0.500000  0.000000      1.000000
  0.000000  0.000000  0.500000      1.000000
  0.166667  0.000000  0.500000      2.000000
  0.333333  0.000000  0.500000      2.000000
  0.500000  0.000000  0.500000      1.000000
  0.000000  0.166667  0.500000      2.000000
  0.166667  0.166667  0.500000      4.000000
  0.333333  0.166667  0.500000      4.000000
  0.500000  0.166667  0.500000      2.000000
  0.000000  0.333333  0.500000      2.000000
  0.166667  0.333333  0.500000      4.000000
  0.333333  0.333333  0.500000      4.000000
  0.500000  0.333333  0.500000      2.000000
  0.000000  0.500000  0.500000      1.000000
  0.166667  0.500000  0.500000      2.000000
  0.333333  0.500000  0.500000      2.000000
  0.500000  0.500000  0.500000      1.000000
 
 Following cartesian coordinates:
            Coordinates               Weight
  0.000000  0.000000  0.000000      1.000000
  0.043199  0.000000  0.000000      2.000000
  0.086398  0.000000  0.000000      2.000000
  0.129597  0.000000  0.000000      1.000000
  0.000000  0.036820  0.000000      2.000000
  0.043199  0.036820  0.000000      4.000000
  0.086398  0.036820  0.000000      4.000000
  0.129597  0.036820  0.000000      2.000000
  0.000000  0.073639  0.000000      2.000000
  0.043199  0.073639  0.000000      4.000000
  0.086398  0.073639  0.000000      4.000000
  0.129597  0.073639  0.000000      2.000000
  0.000000  0.110459  0.000000      1.000000
  0.043199  0.110459  0.000000      2.000000
  0.086398  0.110459  0.000000      2.000000
  0.129597  0.110459  0.000000      1.000000
  0.000000  0.000000  0.023713      1.000000
  0.043199  0.000000  0.023713      2.000000
  0.086398  0.000000  0.023713      2.000000
  0.129597  0.000000  0.023713      1.000000
  0.000000  0.036820  0.023713      2.000000
  0.043199  0.036820  0.023713      4.000000
  0.086398  0.036820  0.023713      4.000000
  0.129597  0.036820  0.023713      2.000000
  0.000000  0.073639  0.023713      2.000000
  0.043199  0.073639  0.023713      4.000000
  0.086398  0.073639  0.023713      4.000000
  0.129597  0.073639  0.023713      2.000000
  0.000000  0.110459  0.023713      1.000000
  0.043199  0.110459  0.023713      2.000000
  0.086398  0.110459  0.023713      2.000000
  0.129597  0.110459  0.023713      1.000000
 
 -----------------------------------------------------------------------------
|                                                                             |
|           W    W    AA    RRRRR   N    N  II  N    N   GGGG   !!!           |
|           W    W   A  A   R    R  NN   N  II  NN   N  G    G  !!!           |
|           W    W  A    A  R    R  N N  N  II  N N  N  G       !!!           |
|           W WW W  AAAAAA  RRRRR   N  N N  II  N  N N  G  GGG   !            |
|           WW  WW  A    A  R   R   N   NN  II  N   NN  G    G                |
|           W    W  A    A  R    R  N    N  II  N    N   GGGG   !!!           |
|                                                                             |
|     The number of bands has been changed from the values supplied in        |
|     the INCAR file. This is a result of running the parallel version.       |
|     The orbitals not found in the WAVECAR file will be initialized with     |
|     random numbers, which is usually adequate. For correlated               |
|     calculations, however, you should redo the groundstate calculation.     |
|     I found NBANDS = 220. Now, NBANDS = 224.                                |
|                                                                             |
 -----------------------------------------------------------------------------



--------------------------------------------------------------------------------------------------------




 Dimension of arrays:
   k-points           NKPTS =     32   k-points in BZ     NKDIM =     32   number of bands    NBANDS=    224
   number of dos      NEDOS =    301   number of ions     NIONS =      4
   non local maximal  LDIM  =      5   non local SUM 2l+1 LMDIM =     13
   total plane-waves  NPLWV = 172800
   max r-space proj   IRMAX =      1   max aug-charges    IRDMAX=  25702
   dimension x,y,z NGX =    30 NGY =   36 NGZ =  160
   dimension x,y,z NGXF=    60 NGYF=   72 NGZF=  320
   support grid    NGXF=    60 NGYF=   72 NGZF=  320
   ions per type =               2   2
   NGX,Y,Z   is equivalent  to a cutoff of  12.93, 13.22, 12.62 a.u.
   NGXF,Y,Z  is equivalent  to a cutoff of  25.85, 26.44, 25.23 a.u.

 SYSTEM =  02_SCF                                  
 POSCAR =  Ge Se                                   

 Startparameter for this run:
   NWRITE =      2    write-flag & timer
   PREC   = accura    normal or accurate (medium, high low for compatibility)
   ISTART =      0    job   : 0-new  1-cont  2-samecut
   ICHARG =      2    charge: 1-file 2-atom 10-const
   ISPIN  =      2    spin polarized calculation?
   LNONCOLLINEAR =      F non collinear calculations
   LSORBIT =      F    spin-orbit coupling
   INIWAV =      1    electr: 0-lowe 1-rand  2-diag
   LASPH  =      T    aspherical Exc in radial PAW
 Electronic Relaxation 1
   ENCUT  =  520.0 eV  38.22 Ry    6.18 a.u.   7.17  8.42 39.20*2*pi/ulx,y,z
   ENINI  =  520.0     initial cutoff
   ENAUG  =  446.8 eV  augmentation charge cutoff
   NELM   =    100;   NELMIN=  5; NELMDL=  0     # of ELM steps 
   EDIFF  = 0.1E-05   stopping-criterion for ELM
   LREAL  =      F    real-space projection
   NLSPLINE    = F    spline interpolate recip. space projectors
   LCOMPAT=      F    compatible to vasp.4.4
   GGA_COMPAT  = T    GGA compatible to vasp.4.4-vasp.4.6
   LMAXPAW     = -100 max onsite density
   LMAXMIX     =    2 max onsite mixed and CHGCAR
   VOSKOWN=      0    Vosko Wilk Nusair interpolation
   ROPT   =    0.00000   0.00000
 Ionic relaxation
   EDIFFG = 0.1E-04   stopping-criterion for IOM
   NSW    =      0    number of steps for IOM
   NBLOCK =      1;   KBLOCK =      1    inner block; outer block 
   IBRION =     -1    ionic relax: 0-MD 1-quasi-New 2-CG
   NFREE  =      0    steps in history (QN), initial steepest desc. (CG)
   ISIF   =      2    stress and relaxation
   IWAVPR =     10    prediction:  0-non 1-charg 2-wave 3-comb
   ISYM   =      2    0-nonsym 1-usesym 2-fastsym
   LCORR  =      T    Harris-Foulkes like correction to forces

   POTIM  = 0.5000    time-step for ionic-motion
   TEIN   =    0.0    initial temperature
   TEBEG  =    0.0;   TEEND  =   0.0 temperature during run
   SMASS  =  -3.00    Nose mass-parameter (am)
   estimated Nose-frequenzy (Omega)   =  0.10E-29 period in steps = 0.13E+47 mass=  -0.340E-27a.u.
   SCALEE = 1.0000    scale energy and forces
   NPACO  =    256;   APACO  = 10.0  distance and # of slots for P.C.
   PSTRESS=    0.0 pullay stress

  Mass of Ions in am
   POMASS =  72.61 78.96
  Ionic Valenz
   ZVAL   =   4.00  6.00
  Atomic Wigner-Seitz radii
   RWIGS  =  -1.00 -1.00
  virtual crystal weights 
   VCA    =   1.00  1.00
   NELECT =      20.0000    total number of electrons
   NUPDOWN=      -1.0000    fix difference up-down

 DOS related values:
   EMIN   =  10.00;   EMAX   =-10.00  energy-range for DOS
   EFERMI =   0.00;   METHOD = LEGACY      
   ISMEAR =     0;   SIGMA  =   0.05  broadening in eV -4-tet -1-fermi 0-gaus

 Electronic relaxation 2 (details)
   IALGO  =     38    algorithm
   LDIAG  =      T    sub-space diagonalisation (order eigenvalues)
   LSUBROT=      F    optimize rotation matrix (better conditioning)
   TURBO    =      0    0=normal 1=particle mesh
   IRESTART =      0    0=no restart 2=restart with 2 vectors
   NREBOOT  =      0    no. of reboots
   NMIN     =      0    reboot dimension
   EREF     =   0.00    reference energy to select bands
   IMIX   =      4    mixing-type and parameters
     AMIX     =   0.40;   BMIX     =  1.00
     AMIX_MAG =   1.60;   BMIX_MAG =  1.00
     AMIN     =   0.10
     WC   =   100.;   INIMIX=   1;  MIXPRE=   1;  MAXMIX= -45

 Intra band minimization:
   WEIMIN = 0.0000     energy-eigenvalue tresh-hold
   EBREAK =  0.11E-08  absolut break condition
   DEPER  =   0.30     relativ break condition  

   TIME   =   0.40     timestep for ELM

  volume/ion in A,a.u.               =      92.06       621.24
  Fermi-wavevector in a.u.,A,eV,Ry     =   0.619980  1.171593  5.229750  0.384376
  Thomas-Fermi vector in A             =   1.678970
 
 Write flags
   LWAVE        =      T    write WAVECAR
   LDOWNSAMPLE  =      F    k-point downsampling of WAVECAR
   LCHARG       =      T    write CHGCAR
   LVTOT        =      F    write LOCPOT, total local potential
   LVHAR        =      F    write LOCPOT, Hartree potential only
   LELF         =      F    write electronic localiz. function (ELF)
   LORBIT       =     11    0 simple, 1 ext, 2 COOP (PROOUT), +10 PAW based schemes


 Dipole corrections
   LMONO  =      F    monopole corrections only (constant potential shift)
   LDIPOL =      F    correct potential (dipole corrections)
   IDIPOL =      0    1-x, 2-y, 3-z, 4-all directions 
   EPSILON=  1.0000000 bulk dielectric constant

 Exchange correlation treatment:
   GGA     =    PE    GGA type
   LEXCH   =     8    internal setting for exchange type
   LIBXC   =     F    Libxc                    
   VOSKOWN =     0    Vosko Wilk Nusair interpolation
   LHFCALC =     F    Hartree Fock is set to
   LHFONE  =     F    Hartree Fock one center treatment
   AEXX    =    0.0000 exact exchange contribution

 Linear response parameters
   LEPSILON=     F    determine dielectric tensor
   LRPA    =     F    only Hartree local field effects (RPA)
   LNABLA  =     F    use nabla operator in PAW spheres
   LVEL    =     F    velocity operator in full k-point grid
   CSHIFT  =0.1000    complex shift for real part using Kramers Kronig
   OMEGAMAX=  -1.0    maximum frequency
   DEG_THRESHOLD= 0.2000000E-02 threshold for treating states as degnerate
   RTIME   =   -0.100 relaxation time in fs
  (WPLASMAI=    0.000 imaginary part of plasma frequency in eV, 0.658/RTIME)
   DFIELD  = 0.0000000 0.0000000 0.0000000 field for delta impulse in time
 
  Optional k-point grid parameters
   LKPOINTS_OPT  =     F    use optional k-point grid
   KPOINTS_OPT_MODE=     1    mode for optional k-point grid
 
 Orbital magnetization related:
   ORBITALMAG=     F  switch on orbital magnetization
   LCHIMAG   =     F  perturbation theory with respect to B field
   DQ        =  0.001000  dq finite difference perturbation B field
   LLRAUG    =     F  two centre corrections for induced B field
   LBONE     =     F  B-component reconstruction in AE one-centre
   LVGVCALC  =     T  calculate vGv susceptibility
   LVGVAPPL  =     F  apply vGv susceptibility instead of pGv for G=0

 Random number generation:
   RANDOM_GENERATOR = DEFAULT
   PCG_SEED         = not used


--------------------------------------------------------------------------------------------------------


 Static calculation
 charge density and potential will be updated during run
 spin polarized calculation
 Variant of blocked Davidson
 Davidson routine will perform the subspace rotation
 perform sub-space diagonalisation
    after iterative eigenvector-optimisation
 modified Broyden-mixing scheme, WC =      100.0
 initial mixing is a Kerker type mixing with AMIX =  0.4000 and BMIX =      1.0000
 Hartree-type preconditioning will be used
 using additional bands           214
 reciprocal scheme for non local part
 use partial core corrections
 calculate Harris-corrections to forces 
   (improved forces if not selfconsistent)
 use gradient corrections 
 use of overlap-Matrix (Vanderbilt PP)
 Gauss-broadening in eV      SIGMA  =   0.05


--------------------------------------------------------------------------------------------------------


  energy-cutoff  :      520.00
  volume of cell :      368.23
      direct lattice vectors                 reciprocal lattice vectors
     3.858100176  0.000000000  0.000000000     0.259194929  0.000000000  0.000000000
     0.000000000  4.526575088  0.000000000     0.000000000  0.220917577  0.000000000
     0.000000000  0.000000000 21.085176468     0.000000000  0.000000000  0.047426684

  length of vectors
     3.858100176  4.526575088 21.085176468     0.259194929  0.220917577  0.047426684


 
 k-points in units of 2pi/SCALE and weight: KPOINTS created by Atomic Simulation Env
   0.00000000  0.00000000  0.00000000       0.014
   0.04319915  0.00000000  0.00000000       0.028
   0.08639831  0.00000000  0.00000000       0.028
   0.12959746  0.00000000  0.00000000       0.014
   0.00000000  0.03681960  0.00000000       0.028
   0.04319915  0.03681960  0.00000000       0.056
   0.08639831  0.03681960  0.00000000       0.056
   0.12959746  0.03681960  0.00000000       0.028
   0.00000000  0.07363919  0.00000000       0.028
   0.04319915  0.07363919  0.00000000       0.056
   0.08639831  0.07363919  0.00000000       0.056
   0.12959746  0.07363919  0.00000000       0.028
   0.00000000  0.11045879  0.00000000       0.014
   0.04319915  0.11045879  0.00000000       0.028
   0.08639831  0.11045879  0.00000000       0.028
   0.12959746  0.11045879  0.00000000       0.014
   0.00000000  0.00000000  0.02371334       0.014
   0.04319915  0.00000000  0.02371334       0.028
   0.08639831  0.00000000  0.02371334       0.028
   0.12959746  0.00000000  0.02371334       0.014
   0.00000000  0.03681960  0.02371334       0.028
   0.04319915  0.03681960  0.02371334       0.056
   0.08639831  0.03681960  0.02371334       0.056
   0.12959746  0.03681960  0.02371334       0.028
   0.00000000  0.07363919  0.02371334       0.028
   0.04319915  0.07363919  0.02371334       0.056
   0.08639831  0.07363919  0.02371334       0.056
   0.12959746  0.07363919  0.02371334       0.028
   0.00000000  0.11045879  0.02371334       0.014
   0.04319915  0.11045879  0.02371334       0.028
   0.08639831  0.11045879  0.02371334       0.028
   0.12959746  0.11045879  0.02371334       0.014
 
 k-points in reciprocal lattice and weights: KPOINTS created by Atomic Simulation Env
   0.00000000  0.00000000  0.00000000       0.014
   0.16666667  0.00000000  0.00000000       0.028
   0.33333333  0.00000000  0.00000000       0.028
   0.50000000  0.00000000  0.00000000       0.014
   0.00000000  0.16666667  0.00000000       0.028
   0.16666667  0.16666667  0.00000000       0.056
   0.33333333  0.16666667  0.00000000       0.056
   0.50000000  0.16666667  0.00000000       0.028
   0.00000000  0.33333333  0.00000000       0.028
   0.16666667  0.33333333  0.00000000       0.056
   0.33333333  0.33333333  0.00000000       0.056
   0.50000000  0.33333333  0.00000000       0.028
   0.00000000  0.50000000  0.00000000       0.014
   0.16666667  0.50000000  0.00000000       0.028
   0.33333333  0.50000000  0.00000000       0.028
   0.50000000  0.50000000  0.00000000       0.014
   0.00000000  0.00000000  0.50000000       0.014
   0.16666667  0.00000000  0.50000000       0.028
   0.33333333  0.00000000  0.50000000       0.028
   0.50000000  0.00000000  0.50000000       0.014
   0.00000000  0.16666667  0.50000000       0.028
   0.16666667  0.16666667  0.50000000       0.056
   0.33333333  0.16666667  0.50000000       0.056
   0.50000000  0.16666667  0.50000000       0.028
   0.00000000  0.33333333  0.50000000       0.028
   0.16666667  0.33333333  0.50000000       0.056
   0.33333333  0.33333333  0.50000000       0.056
   0.50000000  0.33333333  0.50000000       0.028
   0.00000000  0.50000000  0.50000000       0.014
   0.16666667  0.50000000  0.50000000       0.028
   0.33333333  0.50000000  0.50000000       0.028
   0.50000000  0.50000000  0.50000000       0.014
 
 position of ions in fractional coordinates (direct lattice) 
   0.25000000  0.11564190  0.06494922
   0.75000000  0.61564189  0.19791736
   0.75000000  0.49505097  0.07747724
   0.25000000  0.99505103  0.18538934
 
 position of ions in cartesian coordinates  (Angst):
   0.96452504  0.52346174  1.36946575
   2.89357513  2.78674925  4.17312240
   2.89357513  2.24088537  1.63362125
   0.96452504  4.50417319  3.90896698
 


--------------------------------------------------------------------------------------------------------


 k-point   1 :   0.0000 0.0000 0.0000  plane waves:    9901
 k-point   2 :   0.1667 0.0000 0.0000  plane waves:    9909
 k-point   3 :   0.3333 0.0000 0.0000  plane waves:    9938
 k-point   4 :   0.5000 0.0000 0.0000  plane waves:    9958
 k-point   5 :   0.0000 0.1667 0.0000  plane waves:    9907
 k-point   6 :   0.1667 0.1667 0.0000  plane waves:    9889
 k-point   7 :   0.3333 0.1667 0.0000  plane waves:    9938
 k-point   8 :   0.5000 0.1667 0.0000  plane waves:    9968
 k-point   9 :   0.0000 0.3333 0.0000  plane waves:    9905
 k-point  10 :   0.1667 0.3333 0.0000  plane waves:    9891
 k-point  11 :   0.3333 0.3333 0.0000  plane waves:    9929
 k-point  12 :   0.5000 0.3333 0.0000  plane waves:    9902
 k-point  13 :   0.0000 0.5000 0.0000  plane waves:    9904
 k-point  14 :   0.1667 0.5000 0.0000  plane waves:    9904
 k-point  15 :   0.3333 0.5000 0.0000  plane waves:    9890
 k-point  16 :   0.5000 0.5000 0.0000  plane waves:    9900
 k-point  17 :   0.0000 0.0000 0.5000  plane waves:    9890
 k-point  18 :   0.1667 0.0000 0.5000  plane waves:    9910
 k-point  19 :   0.3333 0.0000 0.5000  plane waves:    9932
 k-point  20 :   0.5000 0.0000 0.5000  plane waves:    9972
 k-point  21 :   0.0000 0.1667 0.5000  plane waves:    9908
 k-point  22 :   0.1667 0.1667 0.5000  plane waves:    9916
 k-point  23 :   0.3333 0.1667 0.5000  plane waves:    9934
 k-point  24 :   0.5000 0.1667 0.5000  plane waves:    9976
 k-point  25 :   0.0000 0.3333 0.5000  plane waves:    9906
 k-point  26 :   0.1667 0.3333 0.5000  plane waves:    9892
 k-point  27 :   0.3333 0.3333 0.5000  plane waves:    9910
 k-point  28 :   0.5000 0.3333 0.5000  plane waves:    9924
 k-point  29 :   0.0000 0.5000 0.5000  plane waves:    9940
 k-point  30 :   0.1667 0.5000 0.5000  plane waves:    9904
 k-point  31 :   0.3333 0.5000 0.5000  plane waves:    9892
 k-point  32 :   0.5000 0.5000 0.5000  plane waves:    9896

 maximum and minimum number of plane-waves per node :      9976     9889

 maximum number of plane-waves:      9976
 maximum index in each direction: 
   IXMAX=    7   IYMAX=    8   IZMAX=   39
   IXMIN=   -7   IYMIN=   -8   IZMIN=  -39


 serial   3D FFT for wavefunctions
 parallel 3D FFT for charge:
    minimum data exchange during FFTs selected (reduces bandwidth)


 total amount of memory used by VASP MPI-rank0   266237. kBytes
=======================================================================

   base      :      30000. kBytes
   nonl-proj :      67092. kBytes
   fftplans  :       3765. kBytes
   grid      :      21268. kBytes
   one-center:         64. kBytes
   wavefun   :     144048. kBytes
 
     INWAV:  cpu time      0.0000: real time      0.0001
 Broyden mixing: mesh for mixing (old mesh)
   NGX = 15   NGY = 17   NGZ = 79
  (NGX  = 60   NGY  = 72   NGZ  =320)
  gives a total of  20145 points

 initial charge density was supplied:
 charge density of overlapping atoms calculated
 number of electron      20.0000000 magnetization       4.0000000
 keeping initial charge density in first step


--------------------------------------------------------------------------------------------------------


 Maximum index for augmentation-charges          1814 (set IRDMAX)


--------------------------------------------------------------------------------------------------------


 First call to EWALD:  gamma=   0.247
 Maximum number of real-space cells 5x 4x 1
 Maximum number of reciprocal cells 2x 2x 7

    FEWALD:  cpu time      0.0048: real time      0.0048


--------------------------------------- Ionic step        1  -------------------------------------------




--------------------------------------- Iteration      1(   1)  ---------------------------------------


    POTLOK:  cpu time      0.1797: real time      0.1816
    SETDIJ:  cpu time      1.1295: real time      1.1332
     EDDAV:  cpu time     22.4833: real time     22.7162
       DOS:  cpu time      0.0025: real time      0.0025
    --------------------------------------------
      LOOP:  cpu time     23.7950: real time     24.0335

 eigenvalue-minimisations  : 28672
 total energy-change (2. order) : 0.9648479E+02  (-0.3915357E+03)
 number of electron      20.0000000 magnetization       4.0000000
 augmentation part       20.0000000 magnetization       4.0000000

 Free energy of the ion-electron system (eV)
  ---------------------------------------------------
  alpha Z        PSCENC =        11.50394772
  Ewald energy   TEWEN  =      1545.19297831
  -Hartree energ DENC   =     -2158.32616599
  -exchange      EXHF   =         0.00000000
  -V(xc)+E(xc)   XCENC  =       -17.01245329
  PAW double counting   =       596.57894437     -539.99618860
  entropy T*S    EENTRO =        -0.00158755
  eigenvalues    EBANDS =       -65.70199106
  atomic energy  EATOM  =       724.24730435
  Solvation  Ediel_sol  =         0.00000000
  ---------------------------------------------------
  free energy    TOTEN  =        96.48478827 eV

  energy without entropy =       96.48637581  energy(sigma->0) =       96.48558204


--------------------------------------------------------------------------------------------------------




--------------------------------------- Iteration      1(   2)  ---------------------------------------


     EDDAV:  cpu time     25.8428: real time     26.1208
       DOS:  cpu time      0.0020: real time      0.0020
    --------------------------------------------
      LOOP:  cpu time     25.8448: real time     26.1228

 eigenvalue-minimisations  : 34480
 total energy-change (2. order) :-0.1074876E+03  (-0.9658092E+02)
 number of electron      20.0000000 magnetization       4.0000000
 augmentation part       20.0000000 magnetization       4.0000000

 Free energy of the ion-electron system (eV)
  ---------------------------------------------------
  alpha Z        PSCENC =        11.50394772
  Ewald energy   TEWEN  =      1545.19297831
  -Hartree energ DENC   =     -2158.32616599
  -exchange      EXHF   =         0.00000000
  -V(xc)+E(xc)   XCENC  =       -17.01245329
  PAW double counting   =       596.57894437     -539.99618860
  entropy T*S    EENTRO =        -0.00000000
  eigenvalues    EBANDS =      -173.19120837
  atomic energy  EATOM  =       724.24730435
  Solvation  Ediel_sol  =         0.00000000
  ---------------------------------------------------
  free energy    TOTEN  =       -11.00284150 eV

  energy without entropy =      -11.00284150  energy(sigma->0) =      -11.00284150


--------------------------------------------------------------------------------------------------------




--------------------------------------- Iteration      1(   3)  ---------------------------------------


     EDDAV:  cpu time     25.7481: real time     26.0054
       DOS:  cpu time      0.0020: real time      0.0020
    --------------------------------------------
      LOOP:  cpu time     25.7501: real time     26.0073

 eigenvalue-minimisations  : 34144
 total energy-change (2. order) :-0.5210262E+01  (-0.5151667E+01)
 number of electron      20.0000000 magnetization       4.0000000
 augmentation part       20.0000000 magnetization       4.0000000

 Free energy of the ion-electron system (eV)
  ---------------------------------------------------
  alpha Z        PSCENC =        11.50394772
  Ewald energy   TEWEN  =      1545.19297831
  -Hartree energ DENC   =     -2158.32616599
  -exchange      EXHF   =         0.00000000
  -V(xc)+E(xc)   XCENC  =       -17.01245329
  PAW double counting   =       596.57894437     -539.99618860
  entropy T*S    EENTRO =        -0.00000000
  eigenvalues    EBANDS =      -178.40147008
  atomic energy  EATOM  =       724.24730435
  Solvation  Ediel_sol  =         0.00000000
  ---------------------------------------------------
  free energy    TOTEN  =       -16.21310321 eV

  energy without entropy =      -16.21310321  energy(sigma->0) =      -16.21310321


--------------------------------------------------------------------------------------------------------




--------------------------------------- Iteration      1(   4)  ---------------------------------------


     EDDAV:  cpu time     25.3644: real time     25.6137
       DOS:  cpu time      0.0020: real time      0.0020
    --------------------------------------------
      LOOP:  cpu time     25.3664: real time     25.6157

 eigenvalue-minimisations  : 33568
 total energy-change (2. order) :-0.2512859E-01  (-0.2512383E-01)
 number of electron      20.0000000 magnetization       4.0000000
 augmentation part       20.0000000 magnetization       4.0000000

 Free energy of the ion-electron system (eV)
  ---------------------------------------------------
  alpha Z        PSCENC =        11.50394772
  Ewald energy   TEWEN  =      1545.19297831
  -Hartree energ DENC   =     -2158.32616599
  -exchange      EXHF   =         0.00000000
  -V(xc)+E(xc)   XCENC  =       -17.01245329
  PAW double counting   =       596.57894437     -539.99618860
  entropy T*S    EENTRO =        -0.00000000
  eigenvalues    EBANDS =      -178.42659868
  atomic energy  EATOM  =       724.24730435
  Solvation  Ediel_sol  =         0.00000000
  ---------------------------------------------------
  free energy    TOTEN  =       -16.23823181 eV

  energy without entropy =      -16.23823181  energy(sigma->0) =      -16.23823181


--------------------------------------------------------------------------------------------------------




--------------------------------------- Iteration      1(   5)  ---------------------------------------


     EDDAV:  cpu time     25.0268: real time     25.2692
       DOS:  cpu time      0.0020: real time      0.0020
    CHARGE:  cpu time      0.1850: real time      0.1859
    MIXING:  cpu time      0.0076: real time      0.0079
    --------------------------------------------
      LOOP:  cpu time     25.2214: real time     25.4649

 eigenvalue-minimisations  : 33088
 total energy-change (2. order) :-0.1015527E-03  (-0.1015504E-03)
 number of electron      20.0000002 magnetization       3.4780394
 augmentation part       -3.7329549 magnetization       3.4867793

 Broyden mixing:
  rms(total) = 0.68390E+00    rms(broyden)= 0.68390E+00
  rms(prec ) = 0.70002E+00
  weight for this iteration     100.00

 Free energy of the ion-electron system (eV)
  ---------------------------------------------------
  alpha Z        PSCENC =        11.50394772
  Ewald energy   TEWEN  =      1545.19297831
  -Hartree energ DENC   =     -2158.32616599
  -exchange      EXHF   =         0.00000000
  -V(xc)+E(xc)   XCENC  =       -17.01245329
  PAW double counting   =       596.57894437     -539.99618860
  entropy T*S    EENTRO =        -0.00000000
  eigenvalues    EBANDS =      -178.42670023
  atomic energy  EATOM  =       724.24730435
  Solvation  Ediel_sol  =         0.00000000
  ---------------------------------------------------
  free energy    TOTEN  =       -16.23833336 eV

  energy without entropy =      -16.23833336  energy(sigma->0) =      -16.23833336


--------------------------------------------------------------------------------------------------------




--------------------------------------- Iteration      1(   6)  ---------------------------------------


    POTLOK:  cpu time      0.1715: real time      0.1727
    SETDIJ:  cpu time      1.1168: real time      1.1202
     EDDAV:  cpu time     24.2545: real time     24.4930
       DOS:  cpu time      0.0020: real time      0.0020
    CHARGE:  cpu time      0.1772: real time      0.1785
    MIXING:  cpu time      0.0075: real time      0.0075
    --------------------------------------------
      LOOP:  cpu time     25.7293: real time     25.9739

 eigenvalue-minimisations  : 31792
 total energy-change (2. order) : 0.3956113E+01  (-0.3768954E+00)
 number of electron      20.0000001 magnetization       2.8760705
 augmentation part       -3.7305222 magnetization       2.9831646

 Broyden mixing:
  rms(total) = 0.44561E+00    rms(broyden)= 0.44561E+00
  rms(prec ) = 0.45488E+00
  weight for this iteration     100.00

 eigenvalues of (default mixing * dielectric matrix)
  average eigenvalue GAMMA=   1.0445
  1.0445

 Free energy of the ion-electron system (eV)
  ---------------------------------------------------
  alpha Z        PSCENC =        11.50394772
  Ewald energy   TEWEN  =      1545.19297831
  -Hartree energ DENC   =     -2164.51562415
  -exchange      EXHF   =         0.00000000
  -V(xc)+E(xc)   XCENC  =       -13.85801438
  PAW double counting   =       725.13412492     -668.76033016
  entropy T*S    EENTRO =        -0.00000000
  eigenvalues    EBANDS =      -171.22660728
  atomic energy  EATOM  =       724.24730435
  Solvation  Ediel_sol  =         0.00000000
  ---------------------------------------------------
  free energy    TOTEN  =       -12.28222067 eV

  energy without entropy =      -12.28222067  energy(sigma->0) =      -12.28222067


--------------------------------------------------------------------------------------------------------




--------------------------------------- Iteration      1(   7)  ---------------------------------------


    POTLOK:  cpu time      0.1705: real time      0.1720
    SETDIJ:  cpu time      1.1253: real time      1.1291
     EDDAV:  cpu time     23.8120: real time     24.0565
       DOS:  cpu time      0.0020: real time      0.0020
    CHARGE:  cpu time      0.1850: real time      0.1865
    MIXING:  cpu time      0.0074: real time      0.0076
    --------------------------------------------
      LOOP:  cpu time     25.3020: real time     25.5537

 eigenvalue-minimisations  : 30992
 total energy-change (2. order) : 0.4712869E+00  (-0.3803234E-01)
 number of electron      20.0000001 magnetization       2.0564122
 augmentation part       -3.7200201 magnetization       2.1664204

 Broyden mixing:
  rms(total) = 0.29842E+00    rms(broyden)= 0.29842E+00
  rms(prec ) = 0.30413E+00
  weight for this iteration     100.00

 eigenvalues of (default mixing * dielectric matrix)
  average eigenvalue GAMMA=   1.3895
  0.8534  1.9257

 Free energy of the ion-electron system (eV)
  ---------------------------------------------------
  alpha Z        PSCENC =        11.50394772
  Ewald energy   TEWEN  =      1545.19297831
  -Hartree energ DENC   =     -2171.14977243
  -exchange      EXHF   =         0.00000000
  -V(xc)+E(xc)   XCENC  =       -13.31079369
  PAW double counting   =       855.04784063     -798.79778221
  entropy T*S    EENTRO =        -0.00000000
  eigenvalues    EBANDS =      -164.54465647
  atomic energy  EATOM  =       724.24730435
  Solvation  Ediel_sol  =         0.00000000
  ---------------------------------------------------
  free energy    TOTEN  =       -11.81093379 eV

  energy without entropy =      -11.81093379  energy(sigma->0) =      -11.81093379


--------------------------------------------------------------------------------------------------------




--------------------------------------- Iteration      1(   8)  ---------------------------------------


    POTLOK:  cpu time      0.1700: real time      0.1714
    SETDIJ:  cpu time      1.1195: real time      1.1230
     EDDAV:  cpu time     24.6753: real time     24.9400
       DOS:  cpu time      0.0020: real time      0.0020
    CHARGE:  cpu time      0.1799: real time      0.1813
    MIXING:  cpu time      0.0078: real time      0.0079
    --------------------------------------------
      LOOP:  cpu time     26.1545: real time     26.4256

 eigenvalue-minimisations  : 32416
 total energy-change (2. order) :-0.7469408E+00  (-0.1181003E-01)
 number of electron      20.0000001 magnetization       1.6132308
 augmentation part       -3.7022947 magnetization       1.7183397

 Broyden mixing:
  rms(total) = 0.18739E+00    rms(broyden)= 0.18739E+00
  rms(prec ) = 0.18932E+00
  weight for this iteration     100.00

 eigenvalues of (default mixing * dielectric matrix)
  average eigenvalue GAMMA=   1.4290
  2.5589  1.0462  0.6819

 Free energy of the ion-electron system (eV)
  ---------------------------------------------------
  alpha Z        PSCENC =        11.50394772
  Ewald energy   TEWEN  =      1545.19297831
  -Hartree energ DENC   =     -2178.62368724
  -exchange      EXHF   =         0.00000000
  -V(xc)+E(xc)   XCENC  =       -13.66427154
  PAW double counting   =       979.53936717     -923.35473778
  entropy T*S    EENTRO =        -0.00000000
  eigenvalues    EBANDS =      -157.39877556
  atomic energy  EATOM  =       724.24730435
  Solvation  Ediel_sol  =         0.00000000
  ---------------------------------------------------
  free energy    TOTEN  =       -12.55787456 eV

  energy without entropy =      -12.55787456  energy(sigma->0) =      -12.55787456


--------------------------------------------------------------------------------------------------------




--------------------------------------- Iteration      1(   9)  ---------------------------------------


    POTLOK:  cpu time      0.1696: real time      0.1709
    SETDIJ:  cpu time      1.1152: real time      1.1186
     EDDAV:  cpu time     23.7744: real time     24.0143
       DOS:  cpu time      0.0020: real time      0.0020
    CHARGE:  cpu time      0.1829: real time      0.1842
    MIXING:  cpu time      0.0098: real time      0.0099
    --------------------------------------------
      LOOP:  cpu time     25.2539: real time     25.4999

 eigenvalue-minimisations  : 31040
 total energy-change (2. order) :-0.1003780E+01  (-0.1162831E-01)
 number of electron      20.0000001 magnetization       0.9581164
 augmentation part       -3.6897891 magnetization       1.0433938

 Broyden mixing:
  rms(total) = 0.14612E+00    rms(broyden)= 0.14612E+00
  rms(prec ) = 0.14736E+00
  weight for this iteration     100.00

 eigenvalues of (default mixing * dielectric matrix)
  average eigenvalue GAMMA=   1.4905
  2.6593  1.7553  0.8965  0.6509

 Free energy of the ion-electron system (eV)
  ---------------------------------------------------
  alpha Z        PSCENC =        11.50394772
  Ewald energy   TEWEN  =      1545.19297831
  -Hartree energ DENC   =     -2181.32555210
  -exchange      EXHF   =         0.00000000
  -V(xc)+E(xc)   XCENC  =       -14.26098295
  PAW double counting   =       999.01359173     -942.85596164
  entropy T*S    EENTRO =        -0.00000000
  eigenvalues    EBANDS =      -155.07698027
  atomic energy  EATOM  =       724.24730435
  Solvation  Ediel_sol  =         0.00000000
  ---------------------------------------------------
  free energy    TOTEN  =       -13.56165484 eV

  energy without entropy =      -13.56165484  energy(sigma->0) =      -13.56165484


--------------------------------------------------------------------------------------------------------




--------------------------------------- Iteration      1(  10)  ---------------------------------------


    POTLOK:  cpu time      0.1698: real time      0.1709
    SETDIJ:  cpu time      1.1121: real time      1.1153
     EDDAV:  cpu time     23.5641: real time     23.7922
       DOS:  cpu time      0.0020: real time      0.0020
    CHARGE:  cpu time      0.1767: real time      0.1779
    MIXING:  cpu time      0.0080: real time      0.0081
    --------------------------------------------
      LOOP:  cpu time     25.0327: real time     25.2664

 eigenvalue-minimisations  : 30528
 total energy-change (2. order) :-0.1719181E+01  (-0.3887081E-01)
 number of electron      20.0000001 magnetization       0.3186700
 augmentation part       -3.6754795 magnetization       0.3648303

 Broyden mixing:
  rms(total) = 0.88433E-01    rms(broyden)= 0.88433E-01
  rms(prec ) = 0.90098E-01
  weight for this iteration     100.00

 eigenvalues of (default mixing * dielectric matrix)
  average eigenvalue GAMMA=   1.9557
  4.7427  2.5670  1.0281  0.8122  0.6283

 Free energy of the ion-electron system (eV)
  ---------------------------------------------------
  alpha Z        PSCENC =        11.50394772
  Ewald energy   TEWEN  =      1545.19297831
  -Hartree energ DENC   =     -2183.43654031
  -exchange      EXHF   =         0.00000000
  -V(xc)+E(xc)   XCENC  =       -15.34353891
  PAW double counting   =       981.48611117     -925.29606461
  entropy T*S    EENTRO =        -0.00000000
  eigenvalues    EBANDS =      -153.63503348
  atomic energy  EATOM  =       724.24730435
  Solvation  Ediel_sol  =         0.00000000
  ---------------------------------------------------
  free energy    TOTEN  =       -15.28083576 eV

  energy without entropy =      -15.28083576  energy(sigma->0) =      -15.28083576


--------------------------------------------------------------------------------------------------------




--------------------------------------- Iteration      1(  11)  ---------------------------------------


    POTLOK:  cpu time      0.1690: real time      0.1709
    SETDIJ:  cpu time      1.1077: real time      1.1111
     EDDAV:  cpu time     24.0478: real time     24.2679
       DOS:  cpu time      0.0020: real time      0.0020
    CHARGE:  cpu time      0.1755: real time      0.1769
    MIXING:  cpu time      0.0078: real time      0.0078
    --------------------------------------------
      LOOP:  cpu time     25.5098: real time     25.7366

 eigenvalue-minimisations  : 31424
 total energy-change (2. order) :-0.1113062E+01  (-0.2042260E-01)
 number of electron      20.0000001 magnetization       0.1853500
 augmentation part       -3.6655244 magnetization       0.1998971

 Broyden mixing:
  rms(total) = 0.38019E-01    rms(broyden)= 0.38019E-01
  rms(prec ) = 0.44082E-01
  weight for this iteration     100.00

 eigenvalues of (default mixing * dielectric matrix)
  average eigenvalue GAMMA=   2.0234
  6.0386  2.5658  1.1769  0.9648  0.7687  0.6255

 Free energy of the ion-electron system (eV)
  ---------------------------------------------------
  alpha Z        PSCENC =        11.50394772
  Ewald energy   TEWEN  =      1545.19297831
  -Hartree energ DENC   =     -2184.29588620
  -exchange      EXHF   =         0.00000000
  -V(xc)+E(xc)   XCENC  =       -16.04323573
  PAW double counting   =       960.89310351     -904.67860612
  entropy T*S    EENTRO =        -0.00000000
  eigenvalues    EBANDS =      -153.21350337
  atomic energy  EATOM  =       724.24730435
  Solvation  Ediel_sol  =         0.00000000
  ---------------------------------------------------
  free energy    TOTEN  =       -16.39389752 eV

  energy without entropy =      -16.39389752  energy(sigma->0) =      -16.39389752


--------------------------------------------------------------------------------------------------------




--------------------------------------- Iteration      1(  12)  ---------------------------------------


    POTLOK:  cpu time      0.1694: real time      0.1707
    SETDIJ:  cpu time      1.1096: real time      1.1129
     EDDAV:  cpu time     23.7187: real time     23.9506
       DOS:  cpu time      0.0019: real time      0.0019
    CHARGE:  cpu time      0.1816: real time      0.1830
    MIXING:  cpu time      0.0085: real time      0.0085
    --------------------------------------------
      LOOP:  cpu time     25.1898: real time     25.4276

 eigenvalue-minimisations  : 30896
 total energy-change (2. order) :-0.1225809E+00  (-0.2120342E-02)
 number of electron      20.0000001 magnetization       0.0993065
 augmentation part       -3.6661080 magnetization       0.1060420

 Broyden mixing:
  rms(total) = 0.24177E-01    rms(broyden)= 0.24177E-01
  rms(prec ) = 0.30393E-01
  weight for this iteration     100.00

 eigenvalues of (default mixing * dielectric matrix)
  average eigenvalue GAMMA=   2.0174
  6.6914  2.5781  1.6186  1.0596  0.8387  0.7083  0.6268

 Free energy of the ion-electron system (eV)
  ---------------------------------------------------
  alpha Z        PSCENC =        11.50394772
  Ewald energy   TEWEN  =      1545.19297831
  -Hartree energ DENC   =     -2183.15247931
  -exchange      EXHF   =         0.00000000
  -V(xc)+E(xc)   XCENC  =       -16.14280029
  PAW double counting   =       957.13521456     -900.91785381
  entropy T*S    EENTRO =        -0.00000000
  eigenvalues    EBANDS =      -154.38278996
  atomic energy  EATOM  =       724.24730435
  Solvation  Ediel_sol  =         0.00000000
  ---------------------------------------------------
  free energy    TOTEN  =       -16.51647843 eV

  energy without entropy =      -16.51647843  energy(sigma->0) =      -16.51647843


--------------------------------------------------------------------------------------------------------




--------------------------------------- Iteration      1(  13)  ---------------------------------------


    POTLOK:  cpu time      0.1713: real time      0.1725
    SETDIJ:  cpu time      1.1062: real time      1.1097
     EDDAV:  cpu time     24.0036: real time     24.2495
       DOS:  cpu time      0.0020: real time      0.0021
    CHARGE:  cpu time      0.1766: real time      0.1782
    MIXING:  cpu time      0.0080: real time      0.0081
    --------------------------------------------
      LOOP:  cpu time     25.4678: real time     25.7200

 eigenvalue-minimisations  : 31280
 total energy-change (2. order) :-0.2067526E+00  (-0.5657708E-03)
 number of electron      20.0000001 magnetization       0.0552468
 augmentation part       -3.6697346 magnetization       0.0578055

 Broyden mixing:
  rms(total) = 0.14180E-01    rms(broyden)= 0.14180E-01
  rms(prec ) = 0.18173E-01
  weight for this iteration     100.00

 eigenvalues of (default mixing * dielectric matrix)
  average eigenvalue GAMMA=   1.9858
  7.0820  2.5371  2.1535  1.1521  0.9427  0.7750  0.6220  0.6220

 Free energy of the ion-electron system (eV)
  ---------------------------------------------------
  alpha Z        PSCENC =        11.50394772
  Ewald energy   TEWEN  =      1545.19297831
  -Hartree energ DENC   =     -2181.33725347
  -exchange      EXHF   =         0.00000000
  -V(xc)+E(xc)   XCENC  =       -16.38934931
  PAW double counting   =       954.61710309     -898.39835881
  entropy T*S    EENTRO =        -0.00000000
  eigenvalues    EBANDS =      -156.15960286
  atomic energy  EATOM  =       724.24730435
  Solvation  Ediel_sol  =         0.00000000
  ---------------------------------------------------
  free energy    TOTEN  =       -16.72323099 eV

  energy without entropy =      -16.72323099  energy(sigma->0) =      -16.72323099


--------------------------------------------------------------------------------------------------------




--------------------------------------- Iteration      1(  14)  ---------------------------------------


    POTLOK:  cpu time      0.1670: real time      0.1689
    SETDIJ:  cpu time      1.1077: real time      1.1110
     EDDAV:  cpu time     24.3521: real time     24.5887
       DOS:  cpu time      0.0019: real time      0.0019
    CHARGE:  cpu time      0.1803: real time      0.1820
    MIXING:  cpu time      0.0081: real time      0.0081
    --------------------------------------------
      LOOP:  cpu time     25.8171: real time     26.0606

 eigenvalue-minimisations  : 31888
 total energy-change (2. order) :-0.1790267E-01  (-0.1315937E-03)
 number of electron      20.0000001 magnetization       0.0343946
 augmentation part       -3.6715629 magnetization       0.0357348

 Broyden mixing:
  rms(total) = 0.76434E-02    rms(broyden)= 0.76434E-02
  rms(prec ) = 0.11079E-01
  weight for this iteration     100.00

 eigenvalues of (default mixing * dielectric matrix)
  average eigenvalue GAMMA=   1.9913
  7.2323  2.7065  2.7065  1.4132  1.0312  0.8294  0.7470  0.6276  0.6276

 Free energy of the ion-electron system (eV)
  ---------------------------------------------------
  alpha Z        PSCENC =        11.50394772
  Ewald energy   TEWEN  =      1545.19297831
  -Hartree energ DENC   =     -2180.25722392
  -exchange      EXHF   =         0.00000000
  -V(xc)+E(xc)   XCENC  =       -16.43218931
  PAW double counting   =       954.84060014     -898.62300069
  entropy T*S    EENTRO =        -0.00000000
  eigenvalues    EBANDS =      -157.21355024
  atomic energy  EATOM  =       724.24730435
  Solvation  Ediel_sol  =         0.00000000
  ---------------------------------------------------
  free energy    TOTEN  =       -16.74113365 eV

  energy without entropy =      -16.74113365  energy(sigma->0) =      -16.74113365


--------------------------------------------------------------------------------------------------------




--------------------------------------- Iteration      1(  15)  ---------------------------------------


    POTLOK:  cpu time      0.1652: real time      0.1663
    SETDIJ:  cpu time      1.1080: real time      1.1111
     EDDAV:  cpu time     23.8875: real time     24.1206
       DOS:  cpu time      0.0019: real time      0.0019
    CHARGE:  cpu time      0.1772: real time      0.1783
    MIXING:  cpu time      0.0086: real time      0.0086
    --------------------------------------------
      LOOP:  cpu time     25.3482: real time     25.5869

 eigenvalue-minimisations  : 31200
 total energy-change (2. order) :-0.7744156E-02  (-0.4583097E-04)
 number of electron      20.0000001 magnetization       0.0188354
 augmentation part       -3.6720861 magnetization       0.0196047

 Broyden mixing:
  rms(total) = 0.43809E-02    rms(broyden)= 0.43809E-02
  rms(prec ) = 0.72157E-02
  weight for this iteration     100.00

 eigenvalues of (default mixing * dielectric matrix)
  average eigenvalue GAMMA=   1.9743
  7.2956  2.9423  2.9423  1.6700  1.0354  1.0354  0.8237  0.7490  0.6246  0.6246

 Free energy of the ion-electron system (eV)
  ---------------------------------------------------
  alpha Z        PSCENC =        11.50394772
  Ewald energy   TEWEN  =      1545.19297831
  -Hartree energ DENC   =     -2179.45391289
  -exchange      EXHF   =         0.00000000
  -V(xc)+E(xc)   XCENC  =       -16.45626384
  PAW double counting   =       955.48700916     -899.27146996
  entropy T*S    EENTRO =        -0.00000000
  eigenvalues    EBANDS =      -157.99847067
  atomic energy  EATOM  =       724.24730435
  Solvation  Ediel_sol  =         0.00000000
  ---------------------------------------------------
  free energy    TOTEN  =       -16.74887781 eV

  energy without entropy =      -16.74887781  energy(sigma->0) =      -16.74887781


--------------------------------------------------------------------------------------------------------




--------------------------------------- Iteration      1(  16)  ---------------------------------------


    POTLOK:  cpu time      0.1640: real time      0.1653
    SETDIJ:  cpu time      1.1077: real time      1.1108
     EDDAV:  cpu time     24.0294: real time     24.2494
       DOS:  cpu time      0.0020: real time      0.0020
    CHARGE:  cpu time      0.1850: real time      0.1861
    MIXING:  cpu time      0.0084: real time      0.0084
    --------------------------------------------
      LOOP:  cpu time     25.4966: real time     25.7220

 eigenvalue-minimisations  : 31312
 total energy-change (2. order) :-0.6793979E-02  (-0.4141164E-04)
 number of electron      20.0000001 magnetization       0.0107223
 augmentation part       -3.6725994 magnetization       0.0109715

 Broyden mixing:
  rms(total) = 0.25312E-02    rms(broyden)= 0.25312E-02
  rms(prec ) = 0.42515E-02
  weight for this iteration     100.00

 eigenvalues of (default mixing * dielectric matrix)
  average eigenvalue GAMMA=   1.9981
  7.3865  3.1975  3.1975  2.2487  1.2601  1.0631  0.9005  0.7853  0.6897  0.6251
  0.6251

 Free energy of the ion-electron system (eV)
  ---------------------------------------------------
  alpha Z        PSCENC =        11.50394772
  Ewald energy   TEWEN  =      1545.19297831
  -Hartree energ DENC   =     -2178.53651860
  -exchange      EXHF   =         0.00000000
  -V(xc)+E(xc)   XCENC  =       -16.48044986
  PAW double counting   =       955.21885084     -899.00455006
  entropy T*S    EENTRO =        -0.00000000
  eigenvalues    EBANDS =      -158.89723448
  atomic energy  EATOM  =       724.24730435
  Solvation  Ediel_sol  =         0.00000000
  ---------------------------------------------------
  free energy    TOTEN  =       -16.75567179 eV

  energy without entropy =      -16.75567179  energy(sigma->0) =      -16.75567179


--------------------------------------------------------------------------------------------------------




--------------------------------------- Iteration      1(  17)  ---------------------------------------


    POTLOK:  cpu time      0.1664: real time      0.1684
    SETDIJ:  cpu time      1.1067: real time      1.1098
     EDDAV:  cpu time     23.8559: real time     24.0927
       DOS:  cpu time      0.0020: real time      0.0020
    CHARGE:  cpu time      0.1778: real time      0.1789
    MIXING:  cpu time      0.0087: real time      0.0087
    --------------------------------------------
      LOOP:  cpu time     25.3175: real time     25.5605

 eigenvalue-minimisations  : 31088
 total energy-change (2. order) :-0.2136381E-02  (-0.9828060E-05)
 number of electron      20.0000001 magnetization       0.0044864
 augmentation part       -3.6728672 magnetization       0.0046323

 Broyden mixing:
  rms(total) = 0.16734E-02    rms(broyden)= 0.16734E-02
  rms(prec ) = 0.28692E-02
  weight for this iteration     100.00

 eigenvalues of (default mixing * dielectric matrix)
  average eigenvalue GAMMA=   1.9923
  7.4140  3.4387  3.4387  2.4490  1.4664  1.0580  1.0580  0.8857  0.7775  0.6747
  0.6233  0.6233

 Free energy of the ion-electron system (eV)
  ---------------------------------------------------
  alpha Z        PSCENC =        11.50394772
  Ewald energy   TEWEN  =      1545.19297831
  -Hartree energ DENC   =     -2178.07283930
  -exchange      EXHF   =         0.00000000
  -V(xc)+E(xc)   XCENC  =       -16.48900303
  PAW double counting   =       955.09653061     -898.88235734
  entropy T*S    EENTRO =        -0.00000000
  eigenvalues    EBANDS =      -159.35436948
  atomic energy  EATOM  =       724.24730435
  Solvation  Ediel_sol  =         0.00000000
  ---------------------------------------------------
  free energy    TOTEN  =       -16.75780817 eV

  energy without entropy =      -16.75780817  energy(sigma->0) =      -16.75780817


--------------------------------------------------------------------------------------------------------




--------------------------------------- Iteration      1(  18)  ---------------------------------------


    POTLOK:  cpu time      0.1615: real time      0.1625
    SETDIJ:  cpu time      1.1071: real time      1.1102
     EDDAV:  cpu time     23.7114: real time     23.9479
       DOS:  cpu time      0.0027: real time      0.0028
    CHARGE:  cpu time      0.1757: real time      0.1771
    MIXING:  cpu time      0.0087: real time      0.0087
    --------------------------------------------
      LOOP:  cpu time     25.1672: real time     25.4092

 eigenvalue-minimisations  : 30896
 total energy-change (2. order) :-0.1414912E-02  (-0.7393148E-05)
 number of electron      20.0000001 magnetization       0.0019855
 augmentation part       -3.6730049 magnetization       0.0020886

 Broyden mixing:
  rms(total) = 0.93860E-03    rms(broyden)= 0.93860E-03
  rms(prec ) = 0.15862E-02
  weight for this iteration     100.00

 eigenvalues of (default mixing * dielectric matrix)
  average eigenvalue GAMMA=   2.0318
  7.4445  4.4720  3.2721  2.7007  1.8261  1.2477  1.0367  0.9127  0.8282  0.7634
  0.6186  0.6259  0.6641

 Free energy of the ion-electron system (eV)
  ---------------------------------------------------
  alpha Z        PSCENC =        11.50394772
  Ewald energy   TEWEN  =      1545.19297831
  -Hartree energ DENC   =     -2177.65470002
  -exchange      EXHF   =         0.00000000
  -V(xc)+E(xc)   XCENC  =       -16.49300368
  PAW double counting   =       955.40122289     -899.18708385
  entropy T*S    EENTRO =        -0.00000000
  eigenvalues    EBANDS =      -159.76988880
  atomic energy  EATOM  =       724.24730435
  Solvation  Ediel_sol  =         0.00000000
  ---------------------------------------------------
  free energy    TOTEN  =       -16.75922308 eV

  energy without entropy =      -16.75922308  energy(sigma->0) =      -16.75922308


--------------------------------------------------------------------------------------------------------




--------------------------------------- Iteration      1(  19)  ---------------------------------------


    POTLOK:  cpu time      0.1604: real time      0.1618
    SETDIJ:  cpu time      1.1050: real time      1.1086
     EDDAV:  cpu time     24.0562: real time     24.3020
       DOS:  cpu time      0.0020: real time      0.0020
    CHARGE:  cpu time      0.1779: real time      0.1794
    MIXING:  cpu time      0.0088: real time      0.0089
    --------------------------------------------
      LOOP:  cpu time     25.5103: real time     25.7628

 eigenvalue-minimisations  : 31504
 total energy-change (2. order) :-0.3209310E-03  (-0.2151890E-05)
 number of electron      20.0000001 magnetization       0.0007795
 augmentation part       -3.6732164 magnetization       0.0008129

 Broyden mixing:
  rms(total) = 0.59788E-03    rms(broyden)= 0.59788E-03
  rms(prec ) = 0.97562E-03
  weight for this iteration     100.00

 eigenvalues of (default mixing * dielectric matrix)
  average eigenvalue GAMMA=   2.0344
  7.4397  5.2306  3.1423  2.8113  2.0405  1.3735  1.0563  1.0563  0.8814  0.8259
  0.7267  0.6513  0.6288  0.6172

 Free energy of the ion-electron system (eV)
  ---------------------------------------------------
  alpha Z        PSCENC =        11.50394772
  Ewald energy   TEWEN  =      1545.19297831
  -Hartree energ DENC   =     -2177.40182428
  -exchange      EXHF   =         0.00000000
  -V(xc)+E(xc)   XCENC  =       -16.49630731
  PAW double counting   =       955.38223795     -899.16809347
  entropy T*S    EENTRO =        -0.00000000
  eigenvalues    EBANDS =      -160.01978728
  atomic energy  EATOM  =       724.24730435
  Solvation  Ediel_sol  =         0.00000000
  ---------------------------------------------------
  free energy    TOTEN  =       -16.75954401 eV

  energy without entropy =      -16.75954401  energy(sigma->0) =      -16.75954401


--------------------------------------------------------------------------------------------------------




--------------------------------------- Iteration      1(  20)  ---------------------------------------


    POTLOK:  cpu time      0.1605: real time      0.1624
    SETDIJ:  cpu time      1.1057: real time      1.1091
     EDDAV:  cpu time     23.4907: real time     23.7460
       DOS:  cpu time      0.0020: real time      0.0020
    CHARGE:  cpu time      0.1745: real time      0.1764
    MIXING:  cpu time      0.0089: real time      0.0090
    --------------------------------------------
      LOOP:  cpu time     24.9422: real time     25.2047

 eigenvalue-minimisations  : 30496
 total energy-change (2. order) :-0.1668435E-03  (-0.8063267E-06)
 number of electron      20.0000001 magnetization       0.0002137
 augmentation part       -3.6733338 magnetization       0.0002251

 Broyden mixing:
  rms(total) = 0.37048E-03    rms(broyden)= 0.37048E-03
  rms(prec ) = 0.56356E-03
  weight for this iteration     100.00

 eigenvalues of (default mixing * dielectric matrix)
  average eigenvalue GAMMA=   2.0731
  7.4177  6.0689  3.1381  2.8199  2.4952  1.7191  1.2164  1.0044  1.0044  0.8128
  0.8128  0.7068  0.6339  0.6222  0.6234

 Free energy of the ion-electron system (eV)
  ---------------------------------------------------
  alpha Z        PSCENC =        11.50394772
  Ewald energy   TEWEN  =      1545.19297831
  -Hartree energ DENC   =     -2177.25199832
  -exchange      EXHF   =         0.00000000
  -V(xc)+E(xc)   XCENC  =       -16.49787775
  PAW double counting   =       955.41601543     -899.20198429
  entropy T*S    EENTRO =        -0.00000000
  eigenvalues    EBANDS =      -160.16809631
  atomic energy  EATOM  =       724.24730435
  Solvation  Ediel_sol  =         0.00000000
  ---------------------------------------------------
  free energy    TOTEN  =       -16.75971085 eV

  energy without entropy =      -16.75971085  energy(sigma->0) =      -16.75971085


--------------------------------------------------------------------------------------------------------




--------------------------------------- Iteration      1(  21)  ---------------------------------------


    POTLOK:  cpu time      0.1606: real time      0.1620
    SETDIJ:  cpu time      1.1046: real time      1.1085
     EDDAV:  cpu time     24.0730: real time     24.3395
       DOS:  cpu time      0.0020: real time      0.0020
    CHARGE:  cpu time      0.1802: real time      0.1823
    MIXING:  cpu time      0.0090: real time      0.0090
    --------------------------------------------
      LOOP:  cpu time     25.5293: real time     25.8032

 eigenvalue-minimisations  : 31456
 total energy-change (2. order) :-0.7278695E-04  (-0.4607781E-06)
 number of electron      20.0000001 magnetization      -0.0000405
 augmentation part       -3.6733432 magnetization      -0.0000429

 Broyden mixing:
  rms(total) = 0.20703E-03    rms(broyden)= 0.20703E-03
  rms(prec ) = 0.29540E-03
  weight for this iteration     100.00

 eigenvalues of (default mixing * dielectric matrix)
  average eigenvalue GAMMA=   2.1113
  7.3415  6.9870  3.3239  2.8664  2.8664  1.8982  1.3510  1.0409  0.9756  0.9756
  0.8244  0.7627  0.7001  0.6305  0.6183  0.6183

 Free energy of the ion-electron system (eV)
  ---------------------------------------------------
  alpha Z        PSCENC =        11.50394772
  Ewald energy   TEWEN  =      1545.19297831
  -Hartree energ DENC   =     -2177.19427382
  -exchange      EXHF   =         0.00000000
  -V(xc)+E(xc)   XCENC  =       -16.49806830
  PAW double counting   =       955.42124550     -899.20729513
  entropy T*S    EENTRO =        -0.00000000
  eigenvalues    EBANDS =      -160.22562227
  atomic energy  EATOM  =       724.24730435
  Solvation  Ediel_sol  =         0.00000000
  ---------------------------------------------------
  free energy    TOTEN  =       -16.75978364 eV

  energy without entropy =      -16.75978364  energy(sigma->0) =      -16.75978364


--------------------------------------------------------------------------------------------------------




--------------------------------------- Iteration      1(  22)  ---------------------------------------


    POTLOK:  cpu time      0.1612: real time      0.1623
    SETDIJ:  cpu time      1.1214: real time      1.1251
     EDDAV:  cpu time     24.3355: real time     24.5976
       DOS:  cpu time      0.0020: real time      0.0020
    CHARGE:  cpu time      0.1778: real time      0.1790
    MIXING:  cpu time      0.0094: real time      0.0095
    --------------------------------------------
      LOOP:  cpu time     25.8073: real time     26.0754

 eigenvalue-minimisations  : 31936
 total energy-change (2. order) :-0.3753676E-04  (-0.1551363E-06)
 number of electron      20.0000001 magnetization      -0.0001512
 augmentation part       -3.6733387 magnetization      -0.0001477

 Broyden mixing:
  rms(total) = 0.11056E-03    rms(broyden)= 0.11056E-03
  rms(prec ) = 0.15966E-03
  weight for this iteration     100.00

 eigenvalues of (default mixing * dielectric matrix)
  average eigenvalue GAMMA=   2.1477
  7.4564  7.4564  3.9401  2.8571  2.8571  2.1466  1.5885  1.2038  1.0218  1.0218
  0.8508  0.8264  0.7282  0.6926  0.6167  0.6167  0.6293

 Free energy of the ion-electron system (eV)
  ---------------------------------------------------
  alpha Z        PSCENC =        11.50394772
  Ewald energy   TEWEN  =      1545.19297831
  -Hartree energ DENC   =     -2177.16755890
  -exchange      EXHF   =         0.00000000
  -V(xc)+E(xc)   XCENC  =       -16.49826489
  PAW double counting   =       955.37167695     -899.15772812
  entropy T*S    EENTRO =        -0.00000000
  eigenvalues    EBANDS =      -160.25217659
  atomic energy  EATOM  =       724.24730435
  Solvation  Ediel_sol  =         0.00000000
  ---------------------------------------------------
  free energy    TOTEN  =       -16.75982118 eV

  energy without entropy =      -16.75982118  energy(sigma->0) =      -16.75982118


--------------------------------------------------------------------------------------------------------




--------------------------------------- Iteration      1(  23)  ---------------------------------------


    POTLOK:  cpu time      0.1609: real time      0.1636
    SETDIJ:  cpu time      1.1062: real time      1.1102
     EDDAV:  cpu time     24.4007: real time     24.6511
       DOS:  cpu time      0.0020: real time      0.0020
    CHARGE:  cpu time      0.1752: real time      0.1764
    MIXING:  cpu time      0.0094: real time      0.0094
    --------------------------------------------
      LOOP:  cpu time     25.8543: real time     26.1128

 eigenvalue-minimisations  : 32016
 total energy-change (2. order) :-0.1676944E-04  (-0.5127641E-07)
 number of electron      20.0000001 magnetization      -0.0001069
 augmentation part       -3.6733356 magnetization      -0.0001072

 Broyden mixing:
  rms(total) = 0.59039E-04    rms(broyden)= 0.59039E-04
  rms(prec ) = 0.84698E-04
[...]
      5      -6.8729      1.00000
      6      -6.8729      1.00000
      7      -6.0542      1.00000
      8      -6.0542      1.00000
      9      -3.9808      1.00000
     10      -3.9808      1.00000
     11       0.3541      0.00000
     12       0.3541      0.00000
     13       2.1157      0.00000
     14       2.1157      0.00000
     15       2.8303      0.00000
     16       2.8303      0.00000
     17       4.4504      0.00000
     18       4.4504      0.00000
     19       5.0186      0.00000
     20       5.0186      0.00000
     21       5.7298      0.00000
     22       5.7299      0.00000
     23       6.1007      0.00000
     24       6.1007      0.00000
     25       6.3354      0.00000
     26       6.3354      0.00000
     27       6.5210      0.00000
     28       6.5211      0.00000
     29       7.0056      0.00000
     30       7.0056      0.00000
     31       7.4197      0.00000
     32       7.4197      0.00000
     33       7.4714      0.00000
     34       7.4714      0.00000
     35       7.6704      0.00000
     36       7.6705      0.00000
     37       8.2924      0.00000
     38       8.2924      0.00000
     39       8.9404      0.00000
     40       8.9405      0.00000
     41       9.3016      0.00000
     42       9.3016      0.00000
     43       9.6911      0.00000
     44       9.6911      0.00000
     45      10.2026      0.00000
     46      10.2027      0.00000
     47      10.7310      0.00000
     48      10.7310      0.00000
     49      11.5258      0.00000
     50      11.5258      0.00000
     51      11.9059      0.00000
     52      11.9059      0.00000
     53      11.9389      0.00000
     54      11.9389      0.00000
     55      12.7221      0.00000
     56      12.7221      0.00000
     57      13.0848      0.00000
     58      13.0848      0.00000
     59      13.5421      0.00000
     60      13.5421      0.00000
     61      14.0486      0.00000
     62      14.0486      0.00000
     63      14.7798      0.00000
     64      14.7798      0.00000
     65      15.5306      0.00000
     66      15.5307      0.00000
     67      15.8526      0.00000
     68      15.8526      0.00000
     69      16.0664      0.00000
     70      16.0665      0.00000
     71      16.8989      0.00000
     72      16.8990      0.00000
     73      17.1600      0.00000
     74      17.1600      0.00000
     75      17.3635      0.00000
     76      17.3635      0.00000
     77      17.9662      0.00000
     78      17.9662      0.00000
     79      18.9081      0.00000
     80      18.9081      0.00000
     81      20.0139      0.00000
     82      20.0139      0.00000
     83      20.2671      0.00000
     84      20.2671      0.00000
     85      20.5990      0.00000
     86      20.5991      0.00000
     87      20.8226      0.00000
     88      20.8226      0.00000
     89      21.0617      0.00000
     90      21.0617      0.00000
     91      21.1171      0.00000
     92      21.1171      0.00000
     93      21.2959      0.00000
     94      21.2960      0.00000
     95      21.3437      0.00000
     96      21.3437      0.00000
     97      21.7821      0.00000
     98      21.7821      0.00000
     99      21.8460      0.00000
    100      21.8460      0.00000
    101      21.9090      0.00000
    102      21.9090      0.00000
    103      22.2324      0.00000
    104      22.2325      0.00000
    105      22.4054      0.00000
    106      22.4054      0.00000
    107      22.4760      0.00000
    108      22.4760      0.00000
    109      23.5536      0.00000
    110      23.5536      0.00000
    111      23.7528      0.00000
    112      23.7528      0.00000
    113      24.1266      0.00000
    114      24.1266      0.00000
    115      24.4610      0.00000
    116      24.4610      0.00000
    117      24.5921      0.00000
    118      24.5921      0.00000
    119      24.9129      0.00000
    120      24.9129      0.00000
    121      25.1161      0.00000
    122      25.1161      0.00000
    123      25.2805      0.00000
    124      25.2805      0.00000
    125      25.4345      0.00000
    126      25.4345      0.00000
    127      25.8308      0.00000
    128      25.8310      0.00000
    129      26.2830      0.00000
    130      26.2830      0.00000
    131      26.4336      0.00000
    132      26.4337      0.00000
    133      26.5967      0.00000
    134      26.5968      0.00000
    135      26.6733      0.00000
    136      26.6734      0.00000
    137      26.9478      0.00000
    138      26.9478      0.00000
    139      27.0114      0.00000
    140      27.0114      0.00000
    141      27.0649      0.00000
    142      27.0649      0.00000
    143      27.1735      0.00000
    144      27.1736      0.00000
    145      27.5770      0.00000
    146      27.5770      0.00000
    147      27.8270      0.00000
    148      27.8271      0.00000
    149      27.9391      0.00000
    150      27.9391      0.00000
    151      27.9561      0.00000
    152      27.9561      0.00000
    153      28.0870      0.00000
    154      28.0870      0.00000
    155      28.1859      0.00000
    156      28.1859      0.00000
    157      28.5974      0.00000
    158      28.5974      0.00000
    159      29.1481      0.00000
    160      29.1481      0.00000
    161      29.6678      0.00000
    162      29.6678      0.00000
    163      29.9210      0.00000
    164      29.9211      0.00000
    165      30.1971      0.00000
    166      30.1971      0.00000
    167      30.2619      0.00000
    168      30.2619      0.00000
    169      30.9720      0.00000
    170      30.9720      0.00000
    171      31.2439      0.00000
    172      31.2439      0.00000
    173      31.3440      0.00000
    174      31.3440      0.00000
    175      31.6680      0.00000
    176      31.6680      0.00000
    177      31.8711      0.00000
    178      31.8711      0.00000
    179      32.2209      0.00000
    180      32.2209      0.00000
    181      32.5070      0.00000
    182      32.5070      0.00000
    183      32.8056      0.00000
    184      32.8056      0.00000
    185      33.1271      0.00000
    186      33.1272      0.00000
    187      33.1937      0.00000
    188      33.1937      0.00000
    189      33.3051      0.00000
    190      33.3051      0.00000
    191      33.3558      0.00000
    192      33.3558      0.00000
    193      34.2054      0.00000
    194      34.2055      0.00000
    195      34.3302      0.00000
    196      34.3302      0.00000
    197      35.1434      0.00000
    198      35.1434      0.00000
    199      35.4022      0.00000
    200      35.4023      0.00000
    201      35.4815      0.00000
    202      35.4815      0.00000
    203      35.7774      0.00000
    204      35.7775      0.00000
    205      36.0567      0.00000
    206      36.0568      0.00000
    207      36.3737      0.00000
    208      36.3737      0.00000
    209      36.5849      0.00000
    210      36.5849      0.00000
    211      36.9622      0.00000
    212      36.9623      0.00000
    213      37.1380      0.00000
    214      37.1380      0.00000
    215      37.3533      0.00000
    216      37.3533      0.00000
    217      37.5843      0.00000
    218      37.5843      0.00000
    219      38.0862      0.00000
    220      38.0863      0.00000
    221      38.2778      0.00000
    222      38.2778      0.00000
    223      38.3985      0.00000
    224      38.3986      0.00000


--------------------------------------------------------------------------------------------------------


 soft charge-density along one line, spin component            1
         0         1         2         3         4         5         6         7         8         9
 total charge-density along one line
 
 soft charge-density along one line, spin component            2
         0         1         2         3         4         5         6         7         8         9
 total charge-density along one line
 
 pseudopotential strength for first ion, spin component:            1
 16.261  20.340   0.042   0.053  -0.000   0.076   0.095  -0.000
 20.340  25.460   0.053   0.066  -0.000   0.096   0.119  -0.000
  0.042   0.053   3.515  -0.003  -0.000   6.009  -0.005  -0.000
  0.053   0.066  -0.003   3.513  -0.000  -0.005   6.005  -0.000
 -0.000  -0.000  -0.000  -0.000   3.516  -0.000  -0.000   6.011
  0.076   0.096   6.009  -0.005  -0.000  10.335  -0.009  -0.000
  0.095   0.119  -0.005   6.005  -0.000  -0.009  10.328  -0.000
 -0.000  -0.000  -0.000  -0.000   6.011  -0.000  -0.000  10.339
 -0.000  -0.000  -0.000  -0.000   0.007  -0.000  -0.000   0.013
 -0.007  -0.008   0.013   0.013  -0.000   0.024   0.024  -0.000
 -0.003  -0.004  -0.004   0.013   0.000  -0.007   0.025   0.000
 -0.000  -0.000  -0.000  -0.000   0.013  -0.000  -0.000   0.024
  0.001   0.002  -0.013   0.000  -0.000  -0.023   0.000  -0.000
 pseudopotential strength for first ion, spin component:            2
 16.261  20.340   0.042   0.053  -0.000   0.076   0.095  -0.000
 20.340  25.460   0.053   0.066  -0.000   0.096   0.119  -0.000
  0.042   0.053   3.515  -0.003  -0.000   6.009  -0.005  -0.000
  0.053   0.066  -0.003   3.513  -0.000  -0.005   6.005  -0.000
 -0.000  -0.000  -0.000  -0.000   3.516  -0.000  -0.000   6.011
  0.076   0.096   6.009  -0.005  -0.000  10.335  -0.009  -0.000
  0.095   0.119  -0.005   6.005  -0.000  -0.009  10.328  -0.000
 -0.000  -0.000  -0.000  -0.000   6.011  -0.000  -0.000  10.339
 -0.000  -0.000  -0.000  -0.000   0.007  -0.000  -0.000   0.013
 -0.007  -0.008   0.013   0.013  -0.000   0.024   0.024  -0.000
 -0.003  -0.004  -0.004   0.013   0.000  -0.007   0.025   0.000
 -0.000  -0.000  -0.000  -0.000   0.013  -0.000  -0.000   0.024
  0.001   0.002  -0.013   0.000  -0.000  -0.023   0.000  -0.000
 total augmentation occupancy for first ion, spin component:            1
  2.687  -0.651   0.352   0.400  -0.000  -0.066  -0.073  -0.000   0.000  -0.009  -0.014   0.000   0.009
 -0.651   0.614  -0.445  -0.550   0.000   0.071   0.087   0.000   0.000   0.002   0.017   0.000  -0.005
  0.352  -0.445   1.226   0.076   0.000  -0.198   0.000   0.000   0.000   0.051  -0.099   0.000   0.001
  0.400  -0.550   0.076   1.275   0.000   0.000  -0.199  -0.000   0.000  -0.016   0.111   0.000  -0.003
  0.000   0.000   0.000   0.000   1.240   0.000   0.000  -0.211   0.148   0.000   0.000   0.045   0.000
 -0.066   0.071  -0.198   0.000  -0.000   0.036  -0.002   0.000  -0.000  -0.009   0.017   0.000   0.000
 -0.073   0.087   0.000  -0.199   0.000  -0.002   0.035   0.000   0.000   0.003  -0.020  -0.000   0.001
  0.000   0.000   0.000   0.000  -0.211  -0.000   0.000   0.040  -0.026   0.000   0.000  -0.008  -0.000
  0.000   0.000   0.000   0.000   0.148   0.000   0.000  -0.026   0.030   0.000   0.000   0.003   0.000
 -0.009   0.002   0.051  -0.016   0.000  -0.009   0.003   0.000   0.000   0.010  -0.007   0.000   0.001
 -0.014   0.017  -0.099   0.111   0.000   0.017  -0.020   0.000  -0.000  -0.007   0.028  -0.000  -0.002
  0.000   0.000   0.000   0.000   0.045  -0.000   0.000  -0.008   0.003   0.000  -0.000   0.009   0.000
  0.009  -0.005   0.001  -0.003   0.000   0.000   0.001   0.000   0.000   0.001  -0.002   0.000   0.008
 total augmentation occupancy for first ion, spin component:            2
  0.000  -0.000  -0.000   0.000   0.000   0.000  -0.000   0.000   0.000   0.000  -0.000   0.000  -0.000
 -0.000   0.000  -0.000  -0.000   0.000   0.000  -0.000   0.000   0.000   0.000  -0.000   0.000  -0.000
 -0.000  -0.000   0.000  -0.000   0.000  -0.000   0.000   0.000   0.000   0.000   0.000   0.000   0.000
  0.000  -0.000  -0.000  -0.000   0.000   0.000   0.000   0.000   0.000  -0.000   0.000   0.000   0.000
  0.000   0.000   0.000   0.000   0.000   0.000   0.000  -0.000  -0.000   0.000   0.000   0.000   0.000
  0.000   0.000  -0.000   0.000   0.000   0.000  -0.000   0.000   0.000  -0.000  -0.000   0.000   0.000
 -0.000  -0.000   0.000   0.000   0.000  -0.000  -0.000   0.000  -0.000   0.000  -0.000   0.000  -0.000
  0.000   0.000   0.000   0.000  -0.000   0.000   0.000   0.000   0.000   0.000   0.000  -0.000   0.000
  0.000   0.000   0.000   0.000  -0.000   0.000  -0.000   0.000  -0.000   0.000   0.000  -0.000   0.000
  0.000   0.000   0.000  -0.000   0.000  -0.000   0.000   0.000   0.000   0.000  -0.000   0.000  -0.000
 -0.000  -0.000   0.000   0.000   0.000  -0.000  -0.000   0.000   0.000  -0.000   0.000   0.000   0.000
  0.000   0.000   0.000   0.000   0.000   0.000   0.000  -0.000  -0.000   0.000   0.000   0.000   0.000
 -0.000  -0.000   0.000   0.000   0.000   0.000  -0.000   0.000   0.000  -0.000   0.000   0.000   0.000


------------------------ aborting loop because EDIFF is reached ----------------------------------------





 total charge

# of ion       s       p       d       tot
------------------------------------------
    1        1.318   0.790   0.051   2.158
    2        1.318   0.790   0.051   2.158
    3        1.472   2.313   0.029   3.813
    4        1.472   2.313   0.029   3.813
--------------------------------------------------
tot          5.579   6.205   0.159  11.943



 magnetization (x)

# of ion       s       p       d       tot
------------------------------------------
    1        0.000   0.000   0.000   0.000
    2        0.000   0.000   0.000   0.000
    3       -0.000   0.000   0.000   0.000
    4       -0.000   0.000   0.000   0.000
--------------------------------------------------
tot          0.000   0.000   0.000   0.000
 
    CHARGE:  cpu time      0.1749: real time      0.1762
    FORLOC:  cpu time      0.0051: real time      0.0051
    FORNL :  cpu time      1.5461: real time      1.5573
    STRESS:  cpu time      4.9681: real time      5.0245
    FORCOR:  cpu time      0.1567: real time      0.1581
    FORHAR:  cpu time      0.0168: real time      0.0169
    MIXING:  cpu time      0.0100: real time      0.0100
    OFIELD:  cpu time      0.0000: real time      0.0000

  FORCE on cell =-STRESS in cart. coord.  units (eV):
  Direction    XX          YY          ZZ          XY          YZ          ZX
  --------------------------------------------------------------------------------------
  Alpha Z    11.50395    11.50395    11.50395
  Ewald    2033.99963  2005.81688 -2494.62362     0.00000     0.00000    -0.00000
  Hartree  2139.18705  2127.54323 -2089.59156    -0.00000     0.00000    -0.00000
  E(xc)     -70.25652   -70.27423   -70.89136    -0.00000    -0.00000     0.00000
  Local   -4422.92657 -4386.42372  4328.96236    -0.00000     0.00000    -0.00000
  n-local   120.12185   119.81519   120.87739     0.43086     0.00000     0.00000
  augment    -5.65229    -5.87481    -6.08123     0.00000    -0.00001     0.00000
  Kinetic   194.43016   198.24379   199.02587     3.34409    -0.00000     0.00000
  Fock        0.00000     0.00000     0.00000     0.00000     0.00000     0.00000
  -------------------------------------------------------------------------------------
  Total       0.40725     0.35027    -0.81819     0.00000     0.00000     0.00000
  in kB       1.77197     1.52404    -3.55997     0.00000     0.00000     0.00000
  external pressure =       -0.09 kB  Pullay stress =        0.00 kB


 VOLUME and BASIS-vectors are now :
 -----------------------------------------------------------------------------
  energy-cutoff  :      520.00
  volume of cell :      368.23
      direct lattice vectors                 reciprocal lattice vectors
     3.858100176  0.000000000  0.000000000     0.259194929  0.000000000  0.000000000
     0.000000000  4.526575088  0.000000000     0.000000000  0.220917577  0.000000000
     0.000000000  0.000000000 21.085176468     0.000000000  0.000000000  0.047426684

  length of vectors
     3.858100176  4.526575088 21.085176468     0.259194929  0.220917577  0.047426684


 FORCES acting on ions
    electron-ion (+dipol)            ewald-force                    non-local-force                 convergence-correction
 -----------------------------------------------------------------------------------------------
   0.384E-09 0.159E+02 0.177E+03   0.206E-08 -.186E+02 -.180E+03   -.278E-16 0.254E+01 0.364E+01   -.982E-14 -.996E-06 -.717E-05
   -.408E-08 0.159E+02 -.177E+03   -.206E-08 -.186E+02 0.180E+03   -.278E-16 0.254E+01 -.364E+01   0.781E-14 -.996E-06 0.718E-05
   -.197E-07 -.170E+02 0.212E+03   -.238E-08 0.186E+02 -.214E+03   -.278E-16 -.149E+01 0.185E+01   0.282E-13 0.106E-04 -.511E-04
   0.417E-09 -.170E+02 -.212E+03   0.238E-08 0.186E+02 0.214E+03   -.278E-16 -.149E+01 -.185E+01   -.156E-13 0.106E-04 0.511E-04
 -----------------------------------------------------------------------------------------------
   -.230E-07 -.210E+01 -.528E-04   -.337E-14 -.355E-14 -.284E-13   -.111E-15 0.210E+01 0.000E+00   0.107E-13 0.192E-04 0.135E-07
 
 
 POSITION                                       TOTAL-FORCE (eV/Angst)
 -----------------------------------------------------------------------------------
      0.96453      0.52346      1.36947         0.000000     -0.082563      0.271918
      2.89358      2.78675      4.17312         0.000000     -0.082563     -0.271918
      2.89358      2.24089      1.63362         0.000000      0.082563      0.023287
      0.96453      4.50417      3.90897        -0.000000      0.082563     -0.023287
 -----------------------------------------------------------------------------------
    total drift:                               -0.000000     -0.000323     -0.000053


--------------------------------------------------------------------------------------------------------



  FREE ENERGIE OF THE ION-ELECTRON SYSTEM (eV)
  ---------------------------------------------------
  free  energy   TOTEN  =       -16.75984728 eV

  energy  without entropy=      -16.75984728  energy(sigma->0) =      -16.75984728
 


--------------------------------------------------------------------------------------------------------


    POTLOK:  cpu time      1.2622: real time      1.2671


--------------------------------------------------------------------------------------------------------


 writing wavefunctions
     LOOP+:  cpu time    702.6604: real time    718.9941
    4ORBIT:  cpu time      0.0000: real time      0.0000



 total charge

# of ion       s       p       d       tot
------------------------------------------
    1        1.318   0.790   0.051   2.158
    2        1.318   0.790   0.051   2.158
    3        1.472   2.313   0.029   3.813
    4        1.472   2.313   0.029   3.813
--------------------------------------------------
tot          5.579   6.205   0.159  11.943



 magnetization (x)

# of ion       s       p       d       tot
------------------------------------------
    1        0.000   0.000   0.000   0.000
    2        0.000   0.000   0.000   0.000
    3       -0.000   0.000   0.000   0.000
    4       -0.000   0.000   0.000   0.000
--------------------------------------------------
tot          0.000   0.000   0.000   0.000
 

 total amount of memory used by VASP MPI-rank0   266237. kBytes
=======================================================================

   base      :      30000. kBytes
   nonl-proj :      67092. kBytes
   fftplans  :       3765. kBytes
   grid      :      21268. kBytes
   one-center:         64. kBytes
   wavefun   :     144048. kBytes
 
  
  
 General timing and accounting informations for this job:
 ========================================================
  
                  Total CPU time used (sec):      714.954
                            User time (sec):      699.824
                          System time (sec):       15.130
                         Elapsed time (sec):      732.297
  
                   Maximum memory used (kb):      430324.
                   Average memory used (kb):          N/A
  
                          Minor page faults:       333690
                          Major page faults:           62
                 Voluntary context switches:       128393
