 running  128 mpi-ranks, with    1 threads/rank, on    2 nodes
 distrk:  each k-point on   64 cores,    2 groups
 distr:  one band on    8 cores,    8 groups
 vasp.6.4.2 20Jul23 (build Oct 12 2023 10:31:02) complex                         
 POSCAR found type information on POSCAR GeSe
 POSCAR found :  2 types and      72 ions
 Reading from existing POTCAR
 -----------------------------------------------------------------------------
|                                                                             |
|           W    W    AA    RRRRR   N    N  II  N    N   GGGG   !!!           |
|           W    W   A  A   R    R  NN   N  II  NN   N  G    G  !!!           |
|           W    W  A    A  R    R  N N  N  II  N N  N  G       !!!           |
|           W WW W  AAAAAA  RRRRR   N  N N  II  N  N N  G  GGG   !            |
|           WW  WW  A    A  R   R   N   NN  II  N   NN  G    G                |
|           W    W  A    A  R    R  N    N  II  N    N   GGGG   !!!           |
|                                                                             |
|     You use a magnetic or noncollinear calculation, but did not specify     |
|     the initial magnetic moment with the MAGMOM tag. Note that a            |
|     default of 1 will be used for all atoms. This ferromagnetic setup       |
|     may break the symmetry of the crystal, in particular it may rule        |
|     out finding an antiferromagnetic solution. Thence, we recommend         |
|     setting the initial magnetic moment manually or verifying carefully     |
|     that this magnetic setup is desired.                                    |
|                                                                             |
 -----------------------------------------------------------------------------

 scaLAPACK will be used
 Reading from existing POTCAR
 -----------------------------------------------------------------------------
|                                                                             |
|               ----> ADVICE to this user running VASP <----                  |
|                                                                             |
|     You have a (more or less) 'large supercell' and for larger cells it     |
|     might be more efficient to use real-space projection operators.         |
|     Therefore, try LREAL= Auto in the INCAR file.                           |
|     Mind: For very accurate calculation, you might also keep the            |
|     reciprocal projection scheme (i.e. LREAL=.FALSE.).                      |
|                                                                             |
 -----------------------------------------------------------------------------

 LDA part: xc-table for Pade appr. of Perdew
 -----------------------------------------------------------------------------
|                                                                             |
|           W    W    AA    RRRRR   N    N  II  N    N   GGGG   !!!           |
|           W    W   A  A   R    R  NN   N  II  NN   N  G    G  !!!           |
|           W    W  A    A  R    R  N N  N  II  N N  N  G       !!!           |
|           W WW W  AAAAAA  RRRRR   N  N N  II  N  N N  G  GGG   !            |
|           WW  WW  A    A  R   R   N   NN  II  N   NN  G    G                |
|           W    W  A    A  R    R  N    N  II  N    N   GGGG   !!!           |
|                                                                             |
|     The number of bands has been changed from the values supplied in        |
|     the INCAR file. This is a result of running the parallel version.       |
|     The orbitals not found in the WAVECAR file will be initialized with     |
|     random numbers, which is usually adequate. For correlated               |
|     calculations, however, you should redo the groundstate calculation.     |
|     I found NBANDS = 220. Now, NBANDS = 224.                                |
|                                                                             |
 -----------------------------------------------------------------------------

 POSCAR, INCAR and KPOINTS ok, starting setup
 FFT: planning ... GRIDC
 FFT: planning ... GRID_SOFT
 FFT: planning ... GRID
 WAVECAR not read
 WARNING: random wavefunctions but no delay for mixing, default for NELMDL
 entering main loop
       N       E                     dE             d eps       ncg     rms          rms(c)
DAV:   1     0.181914158377E+04    0.18191E+04   -0.14188E+05  7168   0.135E+03
DAV:   2    -0.661260433897E+02   -0.18853E+04   -0.18107E+04  8536   0.205E+02
DAV:   3    -0.281707343826E+03   -0.21558E+03   -0.20994E+03  8544   0.691E+01
DAV:   4    -0.289455956580E+03   -0.77486E+01   -0.76675E+01  8864   0.129E+01
DAV:   5    -0.289711030188E+03   -0.25507E+00   -0.25438E+00  9024   0.205E+00    0.293E+01
DAV:   6    -0.289284115730E+03    0.42691E+00   -0.26473E+01  7848   0.766E+00    0.174E+01
DAV:   7    -0.296800003016E+03   -0.75159E+01   -0.88948E+00  7944   0.457E+00    0.908E+00
DAV:   8    -0.299955127116E+03   -0.31551E+01   -0.17701E+00  8216   0.229E+00    0.328E+00
DAV:   9    -0.300312956786E+03   -0.35783E+00   -0.41062E-01  9016   0.101E+00    0.147E+00
DAV:  10    -0.300414835510E+03   -0.10188E+00   -0.93066E-02  8208   0.461E-01    0.726E-01
DAV:  11    -0.300445458462E+03   -0.30623E-01   -0.33537E-02  8680   0.276E-01    0.286E-01
DAV:  12    -0.300449036444E+03   -0.35780E-02   -0.47419E-03  8752   0.119E-01    0.104E-01
DAV:  13    -0.300449167381E+03   -0.13094E-03   -0.51467E-04  9672   0.358E-02    0.416E-02
DAV:  14    -0.300449182698E+03   -0.15317E-04   -0.81255E-05  8312   0.183E-02    0.154E-02
DAV:  15    -0.300449186278E+03   -0.35799E-05   -0.14529E-05  8536   0.890E-03    0.718E-03
DAV:  16    -0.300449187101E+03   -0.82360E-06   -0.14958E-06  4784   0.272E-03
   1 F= -.30044919E+03 E0= -.30044919E+03  d E =-.147534E-12  mag=     0.0004
