 vasp.6.4.2 20Jul23 (build Oct 12 2023 10:31:02) complex                         
 executed on              LinuxNV date 2025.05.28  17:40:04
 running  128 mpi-ranks, with    1 threads/rank, on    2 nodes
 distrk:  each k-point on   64 cores,    2 groups
 distr:  one band on NCORE=   4 cores,   16 groups


--------------------------------------------------------------------------------------------------------


 INCAR:
   ENCUT = 360.000000
   SIGMA = 0.050000
   EDIFF = 1.00e-06
   ALGO = Normal
   GGA = PE
   PREC = Normal
   SYSTEM = ./
   ICHARG = 2
   ISMEAR = 0
   ISPIN = 1
   ISTART = 0
   ISYM = 0
   KPAR = 2
   LMAXMIX = 4
   NELM = 100
   NPAR = 16
   LASPH = .TRUE.
   LCHARG = .FALSE.
   LWAVE = .FALSE.

 POTCAR:    PAW_PBE Ge 05Jan2001                  
 POTCAR:    PAW_PBE Se 06Sep2000                  
 POTCAR:    PAW_PBE Ge 05Jan2001                  
   VRHFIN =Ge: s2p2                                                                                 
   LEXCH  = PE                                                                                      
   EATOM  =   104.9960 eV,    7.7170 Ry                                                             
                                                                                                    
   TITEL  = PAW_PBE Ge 05Jan2001                                                                    
   LULTRA =        F    use ultrasoft PP ?                                                          
   IUNSCR =        1    unscreen: 0-lin 1-nonlin 2-no                                               
   RPACOR =    2.170    partial core radius                                                         
   POMASS =   72.610; ZVAL   =    4.000    mass and valenz                                          
   RCORE  =    2.300    outmost cutoff radius                                                       
   RWIGS  =    2.300; RWIGS  =    1.217    wigner-seitz radius (au A)                               
   ENMAX  =  173.807; ENMIN  =  130.355 eV                                                          
   ICORE  =        3    local potential                                                             
   LCOR   =        T    correct aug charges                                                         
   LPAW   =        T    paw PP                                                                      
   EAUG   =  385.843                                                                                
   DEXC   =    0.000                                                                                
   RMAX   =    2.342    core radius for proj-oper                                                   
   RAUG   =    1.300    factor for augmentation sphere                                              
   RDEP   =    2.318    radius for radial grids                                                     
   RDEPT  =    2.103    core radius for aug-charge                                                  
                                                                                                    
   Atomic configuration                                                                             
   10 entries                                                                                       
     n  l   j            E        occ.                                                              
     1  0  0.50    -10959.8463   2.0000                                                             
     2  0  0.50     -1371.6056   2.0000                                                             
     2  1  1.50     -1198.4791   6.0000                                                             
     3  0  0.50      -168.4733   2.0000                                                             
     3  1  1.50      -115.6019   6.0000                                                             
     3  2  2.50       -29.3106  10.0000                                                             
     4  0  0.50       -11.7309   2.0000                                                             
     4  1  0.50        -3.8952   2.0000                                                             
     4  2  1.50        -4.0817   0.0000                                                             
     4  3  2.50        -4.0817   0.0000                                                             
   Description                                                                                      
     l       E           TYP  RCUT    TYP  RCUT                                                     
     0    -11.7309493     23  2.300                                                                 
     0     -7.4578696     23  2.300                                                                 
     1     -3.8952261     23  2.300                                                                 
     1      6.1178114     23  2.300                                                                 
     2     -4.0817478     23  2.300                                                                 
     3     -1.3605826      7  2.300                                                                 
  local pseudopotential read in
  partial core-charges read in
  partial kinetic energy density read in
  atomic valenz-charges read in
  non local Contribution for L=            0  read in
    real space projection operators read in
  non local Contribution for L=            0  read in
    real space projection operators read in
  non local Contribution for L=            1  read in
    real space projection operators read in
  non local Contribution for L=            1  read in
    real space projection operators read in
  non local Contribution for L=            2  read in
    real space projection operators read in
    PAW grid and wavefunctions read in
 
   number of l-projection  operators is LMAX  =            5
   number of lm-projection operators is LMMAX =           13
 
 POTCAR:    PAW_PBE Se 06Sep2000                  
   VRHFIN =Se: s2p4                                                                                 
   LEXCH  = PE                                                                                      
   EATOM  =   257.1286 eV,   18.8984 Ry                                                             
                                                                                                    
   TITEL  = PAW_PBE Se 06Sep2000                                                                    
   LULTRA =        F    use ultrasoft PP ?                                                          
   IUNSCR =        1    unscreen: 0-lin 1-nonlin 2-no                                               
   RPACOR =    1.900    partial core radius                                                         
   POMASS =   78.960; ZVAL   =    6.000    mass and valenz                                          
   RCORE  =    2.100    outmost cutoff radius                                                       
   RWIGS  =    2.200; RWIGS  =    1.164    wigner-seitz radius (au A)                               
   ENMAX  =  211.555; ENMIN  =  158.666 eV                                                          
   ICORE  =        3    local potential                                                             
   LCOR   =        T    correct aug charges                                                         
   LPAW   =        T    paw PP                                                                      
   EAUG   =  446.842                                                                                
   DEXC   =    0.000                                                                                
   RMAX   =    2.147    core radius for proj-oper                                                   
   RAUG   =    1.300    factor for augmentation sphere                                              
   RDEP   =    2.177    radius for radial grids                                                     
   RDEPT  =    1.928    core radius for aug-charge                                                  
                                                                                                    
   Atomic configuration                                                                             
   10 entries                                                                                       
     n  l   j            E        occ.                                                              
     1  0  0.50    -12503.4787   2.0000                                                             
     2  0  0.50     -1606.9547   2.0000                                                             
     2  1  1.50     -1413.3140   6.0000                                                             
     3  0  0.50      -213.4885   2.0000                                                             
     3  1  1.50      -152.9538   6.0000                                                             
     3  2  2.50       -53.1221  10.0000                                                             
     4  0  0.50       -17.2865   2.0000                                                             
     4  1  0.50        -6.5110   4.0000                                                             
     4  2  2.50        -6.8029   0.0000                                                             
     4  3  2.50        -6.8029   0.0000                                                             
   Description                                                                                      
     l       E           TYP  RCUT    TYP  RCUT                                                     
     0    -17.2865377     23  2.100                                                                 
     0    -15.3094411     23  2.100                                                                 
     1     -6.5110275     23  2.100                                                                 
     1     -0.0695192     23  2.100                                                                 
     2     -6.8029130     23  2.100                                                                 
     3     -1.3605826      7  2.100                                                                 
  local pseudopotential read in
  partial core-charges read in
  partial kinetic energy density read in
  atomic valenz-charges read in
  non local Contribution for L=            0  read in
    real space projection operators read in
  non local Contribution for L=            0  read in
    real space projection operators read in
  non local Contribution for L=            1  read in
    real space projection operators read in
  non local Contribution for L=            1  read in
    real space projection operators read in
  non local Contribution for L=            2  read in
    real space projection operators read in
    PAW grid and wavefunctions read in
 
   number of l-projection  operators is LMAX  =            5
   number of lm-projection operators is LMMAX =           13
 
  PAW_PBE Ge 05Jan2001                  :
 energy of atom  1       EATOM= -104.9960
 kinetic energy error for atom=    0.0005 (will be added to EATOM!!)
  PAW_PBE Se 06Sep2000                  :
 energy of atom  2       EATOM= -257.1286
 kinetic energy error for atom=    0.0030 (will be added to EATOM!!)
 
 
 POSCAR: Ge Se
  positions in cartesian coordinates
  No initial velocities read in
 exchange correlation table for  LEXCH =        8
   RHO(1)=    0.500       N(1)  =     2000
   RHO(2)=  100.500       N(2)  =     4000
 


--------------------------------------------------------------------------------------------------------


 ion  position               nearest neighbor table
   1  0.110  0.250  0.124-   6 2.58   6 2.58   5 2.60
   2  0.610  0.750  0.376-   5 2.58   5 2.58   6 2.60
   3  0.890  0.750  0.876-   8 2.58   8 2.58   7 2.60
   4  0.390  0.250  0.624-   7 2.58   7 2.58   8 2.60
   5  0.994  0.250  0.352-   2 2.58   2 2.58   1 2.60
   6  0.494  0.750  0.148-   1 2.58   1 2.58   2 2.60
   7  0.006  0.750  0.648-   4 2.58   4 2.58   3 2.60
   8  0.506  0.250  0.852-   3 2.58   3 2.58   4 2.60
 

IMPORTANT INFORMATION: All symmetrisations will be switched off!
NOSYMM: (Re-)initialisation of all symmetry stuff for point group C_1.


----------------------------------------------------------------------------------------

                                     Primitive cell                                     

  volume of cell :     190.5320

  direct lattice vectors                    reciprocal lattice vectors
     4.500000000  0.000000000  0.000000000     0.222222222  0.000000000  0.000000000
     0.000000000  3.800000000  0.000000000     0.000000000  0.263157895  0.000000000
     0.000000000  0.000000000 11.142221000     0.000000000  0.000000000  0.089748713

  length of vectors
     4.500000000  3.800000000 11.142221000     0.222222222  0.263157895  0.089748713

  position of ions in fractional coordinates (direct lattice)
     0.110434742  0.250000000  0.123595334
     0.610434742  0.750000000  0.376404666
     0.889565258  0.750000000  0.876404666
     0.389565258  0.250000000  0.623595334
     0.994373662  0.250000000  0.352310061
     0.494373662  0.750000000  0.147689939
     0.005626338  0.750000000  0.647689939
     0.505626338  0.250000000  0.852310061

  ion indices of the primitive-cell ions
   primitive index   ion index
                 1           1
                 2           2
                 3           3
                 4           4
                 5           5
                 6           6
                 7           7
                 8           8

----------------------------------------------------------------------------------------

 
 
 KPOINTS: KPOINTS created by Atomic Simulation Env

Automatic generation of k-mesh.
 Grid dimensions read from file:
 generate k-points for:    6    6    2

 Generating k-lattice:

  Cartesian coordinates                     Fractional coordinates (reciprocal lattice)
     0.037037037  0.000000000  0.000000000     0.166666667  0.000000000  0.000000000
     0.000000000  0.043859649  0.000000000     0.000000000  0.166666667  0.000000000
     0.000000000  0.000000000  0.044874357     0.000000000  0.000000000  0.500000000

  Length of vectors
     0.037037037  0.043859649  0.044874357

  Shift w.r.t. Gamma in fractional coordinates (k-lattice)
     0.000000000  0.000000000  0.000000000

 
 Subroutine IBZKPT returns following result:
 ===========================================
 
 Found     40 irreducible k-points:
 
 Following reciprocal coordinates:
            Coordinates               Weight
  0.000000  0.000000  0.000000      1.000000
  0.166667  0.000000  0.000000      2.000000
  0.333333  0.000000  0.000000      2.000000
  0.500000  0.000000  0.000000      1.000000
  0.000000  0.166667  0.000000      2.000000
  0.166667  0.166667  0.000000      2.000000
 -0.166667  0.166667  0.000000      2.000000
  0.333333  0.166667  0.000000      2.000000
 -0.333333  0.166667  0.000000      2.000000
  0.500000  0.166667  0.000000      2.000000
  0.000000  0.333333  0.000000      2.000000
  0.166667  0.333333  0.000000      2.000000
 -0.166667  0.333333  0.000000      2.000000
  0.333333  0.333333  0.000000      2.000000
 -0.333333  0.333333  0.000000      2.000000
  0.500000  0.333333  0.000000      2.000000
  0.000000  0.500000  0.000000      1.000000
  0.166667  0.500000  0.000000      2.000000
  0.333333  0.500000  0.000000      2.000000
  0.500000  0.500000  0.000000      1.000000
  0.000000  0.000000  0.500000      1.000000
  0.166667  0.000000  0.500000      2.000000
  0.333333  0.000000  0.500000      2.000000
  0.500000  0.000000  0.500000      1.000000
  0.000000  0.166667  0.500000      2.000000
  0.166667  0.166667  0.500000      2.000000
 -0.166667  0.166667  0.500000      2.000000
  0.333333  0.166667  0.500000      2.000000
 -0.333333  0.166667  0.500000      2.000000
  0.500000  0.166667  0.500000      2.000000
  0.000000  0.333333  0.500000      2.000000
  0.166667  0.333333  0.500000      2.000000
 -0.166667  0.333333  0.500000      2.000000
  0.333333  0.333333  0.500000      2.000000
 -0.333333  0.333333  0.500000      2.000000
  0.500000  0.333333  0.500000      2.000000
  0.000000  0.500000  0.500000      1.000000
  0.166667  0.500000  0.500000      2.000000
  0.333333  0.500000  0.500000      2.000000
  0.500000  0.500000  0.500000      1.000000
 
 Following cartesian coordinates:
            Coordinates               Weight
  0.000000  0.000000  0.000000      1.000000
  0.037037  0.000000  0.000000      2.000000
  0.074074  0.000000  0.000000      2.000000
  0.111111  0.000000  0.000000      1.000000
  0.000000  0.043860  0.000000      2.000000
  0.037037  0.043860  0.000000      2.000000
 -0.037037  0.043860  0.000000      2.000000
  0.074074  0.043860  0.000000      2.000000
 -0.074074  0.043860  0.000000      2.000000
  0.111111  0.043860  0.000000      2.000000
  0.000000  0.087719  0.000000      2.000000
  0.037037  0.087719  0.000000      2.000000
 -0.037037  0.087719  0.000000      2.000000
  0.074074  0.087719  0.000000      2.000000
 -0.074074  0.087719  0.000000      2.000000
  0.111111  0.087719  0.000000      2.000000
  0.000000  0.131579  0.000000      1.000000
  0.037037  0.131579  0.000000      2.000000
  0.074074  0.131579  0.000000      2.000000
  0.111111  0.131579  0.000000      1.000000
  0.000000  0.000000  0.044874      1.000000
  0.037037  0.000000  0.044874      2.000000
  0.074074  0.000000  0.044874      2.000000
  0.111111  0.000000  0.044874      1.000000
  0.000000  0.043860  0.044874      2.000000
  0.037037  0.043860  0.044874      2.000000
 -0.037037  0.043860  0.044874      2.000000
  0.074074  0.043860  0.044874      2.000000
 -0.074074  0.043860  0.044874      2.000000
  0.111111  0.043860  0.044874      2.000000
  0.000000  0.087719  0.044874      2.000000
  0.037037  0.087719  0.044874      2.000000
 -0.037037  0.087719  0.044874      2.000000
  0.074074  0.087719  0.044874      2.000000
 -0.074074  0.087719  0.044874      2.000000
  0.111111  0.087719  0.044874      2.000000
  0.000000  0.131579  0.044874      1.000000
  0.037037  0.131579  0.044874      2.000000
  0.074074  0.131579  0.044874      2.000000
  0.111111  0.131579  0.044874      1.000000
 


--------------------------------------------------------------------------------------------------------




 Dimension of arrays:
   k-points           NKPTS =     40   k-points in BZ     NKDIM =     40   number of bands    NBANDS=     32
   number of dos      NEDOS =    301   number of ions     NIONS =      8
   non local maximal  LDIM  =      5   non local SUM 2l+1 LMDIM =     13
   total plane-waves  NPLWV =  23328
   max r-space proj   IRMAX =      1   max aug-charges    IRDMAX=   6853
   dimension x,y,z NGX =    24 NGY =   18 NGZ =   54
   dimension x,y,z NGXF=    48 NGYF=   36 NGZF=  108
   support grid    NGXF=    48 NGYF=   36 NGZF=  108
   ions per type =               4   4
   NGX,Y,Z   is equivalent  to a cutoff of   8.87,  7.87,  8.06 a.u.
   NGXF,Y,Z  is equivalent  to a cutoff of  17.73, 15.75, 16.11 a.u.

 SYSTEM =  ./                                      
 POSCAR =  Ge Se                                   

 Startparameter for this run:
   NWRITE =      2    write-flag & timer
   PREC   = normal    normal or accurate (medium, high low for compatibility)
   ISTART =      0    job   : 0-new  1-cont  2-samecut
   ICHARG =      2    charge: 1-file 2-atom 10-const
   ISPIN  =      1    spin polarized calculation?
   LNONCOLLINEAR =      F non collinear calculations
   LSORBIT =      F    spin-orbit coupling
   INIWAV =      1    electr: 0-lowe 1-rand  2-diag
   LASPH  =      T    aspherical Exc in radial PAW
 Electronic Relaxation 1
   ENCUT  =  360.0 eV  26.46 Ry    5.14 a.u.   6.96  5.88 17.24*2*pi/ulx,y,z
   ENINI  =  360.0     initial cutoff
   ENAUG  =  446.8 eV  augmentation charge cutoff
   NELM   =    100;   NELMIN=  2; NELMDL= -5     # of ELM steps 
   EDIFF  = 0.1E-05   stopping-criterion for ELM
   LREAL  =      F    real-space projection
   NLSPLINE    = F    spline interpolate recip. space projectors
   LCOMPAT=      F    compatible to vasp.4.4
   GGA_COMPAT  = T    GGA compatible to vasp.4.4-vasp.4.6
   LMAXPAW     = -100 max onsite density
   LMAXMIX     =    4 max onsite mixed and CHGCAR
   VOSKOWN=      0    Vosko Wilk Nusair interpolation
   ROPT   =    0.00000   0.00000
 Ionic relaxation
   EDIFFG = 0.1E-04   stopping-criterion for IOM
   NSW    =      0    number of steps for IOM
   NBLOCK =      1;   KBLOCK =      1    inner block; outer block 
   IBRION =     -1    ionic relax: 0-MD 1-quasi-New 2-CG
   NFREE  =      0    steps in history (QN), initial steepest desc. (CG)
   ISIF   =      2    stress and relaxation
   IWAVPR =     10    prediction:  0-non 1-charg 2-wave 3-comb
   ISYM   =      0    0-nonsym 1-usesym 2-fastsym
   LCORR  =      T    Harris-Foulkes like correction to forces

   POTIM  = 0.5000    time-step for ionic-motion
   TEIN   =    0.0    initial temperature
   TEBEG  =    0.0;   TEEND  =   0.0 temperature during run
   SMASS  =  -3.00    Nose mass-parameter (am)
   estimated Nose-frequenzy (Omega)   =  0.10E-29 period in steps = 0.13E+47 mass=  -0.463E-27a.u.
   SCALEE = 1.0000    scale energy and forces
   NPACO  =    256;   APACO  = 10.0  distance and # of slots for P.C.
   PSTRESS=    0.0 pullay stress

  Mass of Ions in am
   POMASS =  72.61 78.96
  Ionic Valenz
   ZVAL   =   4.00  6.00
  Atomic Wigner-Seitz radii
   RWIGS  =  -1.00 -1.00
  virtual crystal weights 
   VCA    =   1.00  1.00
   NELECT =      40.0000    total number of electrons
   NUPDOWN=      -1.0000    fix difference up-down

 DOS related values:
   EMIN   =  10.00;   EMAX   =-10.00  energy-range for DOS
   EFERMI =   0.00;   METHOD = LEGACY      
   ISMEAR =     0;   SIGMA  =   0.05  broadening in eV -4-tet -1-fermi 0-gaus

 Electronic relaxation 2 (details)
   IALGO  =     38    algorithm
   LDIAG  =      T    sub-space diagonalisation (order eigenvalues)
   LSUBROT=      F    optimize rotation matrix (better conditioning)
   TURBO    =      0    0=normal 1=particle mesh
   IRESTART =      0    0=no restart 2=restart with 2 vectors
   NREBOOT  =      0    no. of reboots
   NMIN     =      0    reboot dimension
   EREF     =   0.00    reference energy to select bands
   IMIX   =      4    mixing-type and parameters
     AMIX     =   0.40;   BMIX     =  1.00
     AMIX_MAG =   1.60;   BMIX_MAG =  1.00
     AMIN     =   0.10
     WC   =   100.;   INIMIX=   1;  MIXPRE=   1;  MAXMIX= -45

 Intra band minimization:
   WEIMIN = 0.0000     energy-eigenvalue tresh-hold
   EBREAK =  0.78E-08  absolut break condition
   DEPER  =   0.30     relativ break condition  

   TIME   =   0.40     timestep for ELM

  volume/ion in A,a.u.               =      23.82       160.72
  Fermi-wavevector in a.u.,A,eV,Ry     =   0.972984  1.838672 12.880597  0.946697
  Thomas-Fermi vector in A             =   2.103326
 
 Write flags
   LWAVE        =      F    write WAVECAR
   LDOWNSAMPLE  =      F    k-point downsampling of WAVECAR
   LCHARG       =      F    write CHGCAR
   LVTOT        =      F    write LOCPOT, total local potential
   LVHAR        =      F    write LOCPOT, Hartree potential only
   LELF         =      F    write electronic localiz. function (ELF)
   LORBIT       =      0    0 simple, 1 ext, 2 COOP (PROOUT), +10 PAW based schemes


 Dipole corrections
   LMONO  =      F    monopole corrections only (constant potential shift)
   LDIPOL =      F    correct potential (dipole corrections)
   IDIPOL =      0    1-x, 2-y, 3-z, 4-all directions 
   EPSILON=  1.0000000 bulk dielectric constant

 Exchange correlation treatment:
   GGA     =    PE    GGA type
   LEXCH   =     8    internal setting for exchange type
   LIBXC   =     F    Libxc                    
   VOSKOWN =     0    Vosko Wilk Nusair interpolation
   LHFCALC =     F    Hartree Fock is set to
   LHFONE  =     F    Hartree Fock one center treatment
   AEXX    =    0.0000 exact exchange contribution

 Linear response parameters
   LEPSILON=     F    determine dielectric tensor
   LRPA    =     F    only Hartree local field effects (RPA)
   LNABLA  =     F    use nabla operator in PAW spheres
   LVEL    =     F    velocity operator in full k-point grid
   CSHIFT  =0.1000    complex shift for real part using Kramers Kronig
   OMEGAMAX=  -1.0    maximum frequency
   DEG_THRESHOLD= 0.2000000E-02 threshold for treating states as degnerate
   RTIME   =   -0.100 relaxation time in fs
  (WPLASMAI=    0.000 imaginary part of plasma frequency in eV, 0.658/RTIME)
   DFIELD  = 0.0000000 0.0000000 0.0000000 field for delta impulse in time
 
  Optional k-point grid parameters
   LKPOINTS_OPT  =     F    use optional k-point grid
   KPOINTS_OPT_MODE=     1    mode for optional k-point grid
 
 Orbital magnetization related:
   ORBITALMAG=     F  switch on orbital magnetization
   LCHIMAG   =     F  perturbation theory with respect to B field
   DQ        =  0.001000  dq finite difference perturbation B field
   LLRAUG    =     F  two centre corrections for induced B field
   LBONE     =     F  B-component reconstruction in AE one-centre
   LVGVCALC  =     T  calculate vGv susceptibility
   LVGVAPPL  =     F  apply vGv susceptibility instead of pGv for G=0

 Random number generation:
   RANDOM_GENERATOR = DEFAULT
   PCG_SEED         = not used


--------------------------------------------------------------------------------------------------------


 Static calculation
 charge density and potential will be updated during run
 non-spin polarized calculation
 Variant of blocked Davidson
 Davidson routine will perform the subspace rotation
 perform sub-space diagonalisation
    after iterative eigenvector-optimisation
 modified Broyden-mixing scheme, WC =      100.0
 initial mixing is a Kerker type mixing with AMIX =  0.4000 and BMIX =      1.0000
 Hartree-type preconditioning will be used
 using additional bands            12
 reciprocal scheme for non local part
 use partial core corrections
 calculate Harris-corrections to forces 
   (improved forces if not selfconsistent)
 use gradient corrections 
 use of overlap-Matrix (Vanderbilt PP)
 Gauss-broadening in eV      SIGMA  =   0.05


--------------------------------------------------------------------------------------------------------


  energy-cutoff  :      360.00
  volume of cell :      190.53
      direct lattice vectors                 reciprocal lattice vectors
     4.500000000  0.000000000  0.000000000     0.222222222  0.000000000  0.000000000
     0.000000000  3.800000000  0.000000000     0.000000000  0.263157895  0.000000000
     0.000000000  0.000000000 11.142221000     0.000000000  0.000000000  0.089748713

  length of vectors
     4.500000000  3.800000000 11.142221000     0.222222222  0.263157895  0.089748713


 
 k-points in units of 2pi/SCALE and weight: KPOINTS created by Atomic Simulation Env
   0.00000000  0.00000000  0.00000000       0.014
   0.03703704  0.00000000  0.00000000       0.028
   0.07407407  0.00000000  0.00000000       0.028
   0.11111111  0.00000000  0.00000000       0.014
   0.00000000  0.04385965  0.00000000       0.028
   0.03703704  0.04385965  0.00000000       0.028
  -0.03703704  0.04385965  0.00000000       0.028
   0.07407407  0.04385965  0.00000000       0.028
  -0.07407407  0.04385965  0.00000000       0.028
   0.11111111  0.04385965  0.00000000       0.028
   0.00000000  0.08771930  0.00000000       0.028
   0.03703704  0.08771930  0.00000000       0.028
  -0.03703704  0.08771930  0.00000000       0.028
   0.07407407  0.08771930  0.00000000       0.028
  -0.07407407  0.08771930  0.00000000       0.028
   0.11111111  0.08771930  0.00000000       0.028
   0.00000000  0.13157895  0.00000000       0.014
   0.03703704  0.13157895  0.00000000       0.028
   0.07407407  0.13157895  0.00000000       0.028
   0.11111111  0.13157895  0.00000000       0.014
   0.00000000  0.00000000  0.04487436       0.014
   0.03703704  0.00000000  0.04487436       0.028
   0.07407407  0.00000000  0.04487436       0.028
   0.11111111  0.00000000  0.04487436       0.014
   0.00000000  0.04385965  0.04487436       0.028
   0.03703704  0.04385965  0.04487436       0.028
  -0.03703704  0.04385965  0.04487436       0.028
   0.07407407  0.04385965  0.04487436       0.028
  -0.07407407  0.04385965  0.04487436       0.028
   0.11111111  0.04385965  0.04487436       0.028
   0.00000000  0.08771930  0.04487436       0.028
   0.03703704  0.08771930  0.04487436       0.028
  -0.03703704  0.08771930  0.04487436       0.028
   0.07407407  0.08771930  0.04487436       0.028
  -0.07407407  0.08771930  0.04487436       0.028
   0.11111111  0.08771930  0.04487436       0.028
   0.00000000  0.13157895  0.04487436       0.014
   0.03703704  0.13157895  0.04487436       0.028
   0.07407407  0.13157895  0.04487436       0.028
   0.11111111  0.13157895  0.04487436       0.014
 
 k-points in reciprocal lattice and weights: KPOINTS created by Atomic Simulation Env
   0.00000000  0.00000000  0.00000000       0.014
   0.16666667  0.00000000  0.00000000       0.028
   0.33333333  0.00000000  0.00000000       0.028
   0.50000000  0.00000000  0.00000000       0.014
   0.00000000  0.16666667  0.00000000       0.028
   0.16666667  0.16666667  0.00000000       0.028
  -0.16666667  0.16666667  0.00000000       0.028
   0.33333333  0.16666667  0.00000000       0.028
  -0.33333333  0.16666667  0.00000000       0.028
   0.50000000  0.16666667  0.00000000       0.028
   0.00000000  0.33333333  0.00000000       0.028
   0.16666667  0.33333333  0.00000000       0.028
  -0.16666667  0.33333333  0.00000000       0.028
   0.33333333  0.33333333  0.00000000       0.028
  -0.33333333  0.33333333  0.00000000       0.028
   0.50000000  0.33333333  0.00000000       0.028
   0.00000000  0.50000000  0.00000000       0.014
   0.16666667  0.50000000  0.00000000       0.028
   0.33333333  0.50000000  0.00000000       0.028
   0.50000000  0.50000000  0.00000000       0.014
   0.00000000  0.00000000  0.50000000       0.014
   0.16666667  0.00000000  0.50000000       0.028
   0.33333333  0.00000000  0.50000000       0.028
   0.50000000  0.00000000  0.50000000       0.014
   0.00000000  0.16666667  0.50000000       0.028
   0.16666667  0.16666667  0.50000000       0.028
  -0.16666667  0.16666667  0.50000000       0.028
   0.33333333  0.16666667  0.50000000       0.028
  -0.33333333  0.16666667  0.50000000       0.028
   0.50000000  0.16666667  0.50000000       0.028
   0.00000000  0.33333333  0.50000000       0.028
   0.16666667  0.33333333  0.50000000       0.028
  -0.16666667  0.33333333  0.50000000       0.028
   0.33333333  0.33333333  0.50000000       0.028
  -0.33333333  0.33333333  0.50000000       0.028
   0.50000000  0.33333333  0.50000000       0.028
   0.00000000  0.50000000  0.50000000       0.014
   0.16666667  0.50000000  0.50000000       0.028
   0.33333333  0.50000000  0.50000000       0.028
   0.50000000  0.50000000  0.50000000       0.014
 
 position of ions in fractional coordinates (direct lattice) 
   0.11043474  0.25000000  0.12359533
   0.61043474  0.75000000  0.37640467
   0.88956526  0.75000000  0.87640467
   0.38956526  0.25000000  0.62359533
   0.99437366  0.25000000  0.35231006
   0.49437366  0.75000000  0.14768994
   0.00562634  0.75000000  0.64768994
   0.50562634  0.25000000  0.85231006
 
 position of ions in cartesian coordinates  (Angst):
   0.49695634  0.95000000  1.37712652
   2.74695634  2.85000000  4.19398398
   4.00304366  2.85000000  9.76509448
   1.75304366  0.95000000  6.94823702
   4.47468148  0.95000000  3.92551656
   2.22468148  2.85000000  1.64559394
   0.02531852  2.85000000  7.21670444
   2.27531852  0.95000000  9.49662706
 


--------------------------------------------------------------------------------------------------------


 k-point   1 :   0.0000 0.0000 0.0000  plane waves:    2925
 k-point   2 :   0.1667 0.0000 0.0000  plane waves:    2944
 k-point   3 :   0.3333 0.0000 0.0000  plane waves:    2952
 k-point   4 :   0.5000 0.0000 0.0000  plane waves:    2946
 k-point   5 :   0.0000 0.1667 0.0000  plane waves:    2938
 k-point   6 :   0.1667 0.1667 0.0000  plane waves:    2945
 k-point   7 :  -0.1667 0.1667 0.0000  plane waves:    2945
 k-point   8 :   0.3333 0.1667 0.0000  plane waves:    2954
 k-point   9 :  -0.3333 0.1667 0.0000  plane waves:    2954
 k-point  10 :   0.5000 0.1667 0.0000  plane waves:    2964
 k-point  11 :   0.0000 0.3333 0.0000  plane waves:    2952
 k-point  12 :   0.1667 0.3333 0.0000  plane waves:    2958
 k-point  13 :  -0.1667 0.3333 0.0000  plane waves:    2958
 k-point  14 :   0.3333 0.3333 0.0000  plane waves:    2968
 k-point  15 :  -0.3333 0.3333 0.0000  plane waves:    2968
 k-point  16 :   0.5000 0.3333 0.0000  plane waves:    2974
 k-point  17 :   0.0000 0.5000 0.0000  plane waves:    2944
 k-point  18 :   0.1667 0.5000 0.0000  plane waves:    2966
 k-point  19 :   0.3333 0.5000 0.0000  plane waves:    2966
 k-point  20 :   0.5000 0.5000 0.0000  plane waves:    2952
 k-point  21 :   0.0000 0.0000 0.5000  plane waves:    2926
 k-point  22 :   0.1667 0.0000 0.5000  plane waves:    2938
 k-point  23 :   0.3333 0.0000 0.5000  plane waves:    2954
 k-point  24 :   0.5000 0.0000 0.5000  plane waves:    2980
 k-point  25 :   0.0000 0.1667 0.5000  plane waves:    2936
 k-point  26 :   0.1667 0.1667 0.5000  plane waves:    2936
 k-point  27 :  -0.1667 0.1667 0.5000  plane waves:    2936
 k-point  28 :   0.3333 0.1667 0.5000  plane waves:    2960
 k-point  29 :  -0.3333 0.1667 0.5000  plane waves:    2960
 k-point  30 :   0.5000 0.1667 0.5000  plane waves:    2972
 k-point  31 :   0.0000 0.3333 0.5000  plane waves:    2940
 k-point  32 :   0.1667 0.3333 0.5000  plane waves:    2960
 k-point  33 :  -0.1667 0.3333 0.5000  plane waves:    2960
 k-point  34 :   0.3333 0.3333 0.5000  plane waves:    2964
 k-point  35 :  -0.3333 0.3333 0.5000  plane waves:    2964
 k-point  36 :   0.5000 0.3333 0.5000  plane waves:    2968
 k-point  37 :   0.0000 0.5000 0.5000  plane waves:    2972
 k-point  38 :   0.1667 0.5000 0.5000  plane waves:    2976
 k-point  39 :   0.3333 0.5000 0.5000  plane waves:    2956
 k-point  40 :   0.5000 0.5000 0.5000  plane waves:    2944

 maximum and minimum number of plane-waves per node :       758      710

 maximum number of plane-waves:      2980
 maximum index in each direction: 
   IXMAX=    7   IYMAX=    5   IZMAX=   17
   IXMIN=   -7   IYMIN=   -6   IZMIN=  -17


 parallel 3D FFT for wavefunctions:
    minimum data exchange during FFTs selected (reduces bandwidth)
 parallel 3D FFT for charge:
    minimum data exchange during FFTs selected (reduces bandwidth)


 total amount of memory used by VASP MPI-rank0    38146. kBytes
=======================================================================

   base      :      30000. kBytes
   nonl-proj :       6352. kBytes
   fftplans  :        320. kBytes
   grid      :        455. kBytes
   one-center:         16. kBytes
   wavefun   :       1003. kBytes
 
     INWAV:  cpu time      0.0000: real time      0.0001
 Broyden mixing: mesh for mixing (old mesh)
   NGX = 13   NGY = 11   NGZ = 35
  (NGX  = 48   NGY  = 36   NGZ  =108)
  gives a total of   5005 points

 initial charge density was supplied:
 charge density of overlapping atoms calculated
 number of electron      40.0000000 magnetization 
 keeping initial charge density in first step


--------------------------------------------------------------------------------------------------------


 Maximum index for augmentation-charges           341 (set IRDMAX)


--------------------------------------------------------------------------------------------------------


 First call to EWALD:  gamma=   0.308
 Maximum number of real-space cells 3x 4x 2
 Maximum number of reciprocal cells 2x 2x 5

    FEWALD:  cpu time      0.0008: real time      0.0008


--------------------------------------- Ionic step        1  -------------------------------------------




--------------------------------------- Iteration      1(   1)  ---------------------------------------


    POTLOK:  cpu time      0.0058: real time      0.0061
    SETDIJ:  cpu time      0.1375: real time      0.1380
     EDDAV:  cpu time      0.2689: real time      0.2717
       DOS:  cpu time      0.0012: real time      0.0012
    --------------------------------------------
      LOOP:  cpu time      0.4134: real time      0.4169

 eigenvalue-minimisations  :  2560
 total energy-change (2. order) : 0.1284785E+03  (-0.1283643E+04)
 number of electron      40.0000000 magnetization 
 augmentation part       40.0000000 magnetization 

 Free energy of the ion-electron system (eV)
  ---------------------------------------------------
  alpha Z        PSCENC =        88.93229116
  Ewald energy   TEWEN  =     -1428.32931747
  -Hartree energ DENC   =      -124.78330071
  -exchange      EXHF   =         0.00000000
  -V(xc)+E(xc)   XCENC  =       -33.21950093
  PAW double counting   =      1193.78262552    -1080.73714043
  entropy T*S    EENTRO =        -0.00250286
  eigenvalues    EBANDS =        64.35075061
  atomic energy  EATOM  =      1448.48460880
  Solvation  Ediel_sol  =         0.00000000
  ---------------------------------------------------
  free energy    TOTEN  =       128.47851369 eV

  energy without entropy =      128.48101654  energy(sigma->0) =      128.47976511


--------------------------------------------------------------------------------------------------------




--------------------------------------- Iteration      1(   2)  ---------------------------------------


     EDDAV:  cpu time      0.3224: real time      0.3253
       DOS:  cpu time      0.0006: real time      0.0006
    --------------------------------------------
      LOOP:  cpu time      0.3230: real time      0.3259

 eigenvalue-minimisations  :  3744
 total energy-change (2. order) :-0.1543382E+03  (-0.1498205E+03)
 number of electron      40.0000000 magnetization 
 augmentation part       40.0000000 magnetization 

 Free energy of the ion-electron system (eV)
  ---------------------------------------------------
  alpha Z        PSCENC =        88.93229116
  Ewald energy   TEWEN  =     -1428.32931747
  -Hartree energ DENC   =      -124.78330071
  -exchange      EXHF   =         0.00000000
  -V(xc)+E(xc)   XCENC  =       -33.21950093
  PAW double counting   =      1193.78262552    -1080.73714043
  entropy T*S    EENTRO =        -0.00000000
  eigenvalues    EBANDS =       -89.98993210
  atomic energy  EATOM  =      1448.48460880
  Solvation  Ediel_sol  =         0.00000000
  ---------------------------------------------------
  free energy    TOTEN  =       -25.85966616 eV

  energy without entropy =      -25.85966616  energy(sigma->0) =      -25.85966616


--------------------------------------------------------------------------------------------------------




--------------------------------------- Iteration      1(   3)  ---------------------------------------


     EDDAV:  cpu time      0.2909: real time      0.2937
       DOS:  cpu time      0.0006: real time      0.0006
    --------------------------------------------
      LOOP:  cpu time      0.2915: real time      0.2943

 eigenvalue-minimisations  :  3152
 total energy-change (2. order) :-0.8252603E+01  (-0.8235551E+01)
 number of electron      40.0000000 magnetization 
 augmentation part       40.0000000 magnetization 

 Free energy of the ion-electron system (eV)
  ---------------------------------------------------
  alpha Z        PSCENC =        88.93229116
  Ewald energy   TEWEN  =     -1428.32931747
  -Hartree energ DENC   =      -124.78330071
  -exchange      EXHF   =         0.00000000
  -V(xc)+E(xc)   XCENC  =       -33.21950093
  PAW double counting   =      1193.78262552    -1080.73714043
  entropy T*S    EENTRO =        -0.00000000
  eigenvalues    EBANDS =       -98.24253537
  atomic energy  EATOM  =      1448.48460880
  Solvation  Ediel_sol  =         0.00000000
  ---------------------------------------------------
  free energy    TOTEN  =       -34.11226943 eV

  energy without entropy =      -34.11226943  energy(sigma->0) =      -34.11226943


--------------------------------------------------------------------------------------------------------




--------------------------------------- Iteration      1(   4)  ---------------------------------------


     EDDAV:  cpu time      0.3077: real time      0.3111
       DOS:  cpu time      0.0005: real time      0.0005
    --------------------------------------------
      LOOP:  cpu time      0.3083: real time      0.3117

 eigenvalue-minimisations  :  3280
 total energy-change (2. order) :-0.5371351E-01  (-0.5370336E-01)
 number of electron      40.0000000 magnetization 
 augmentation part       40.0000000 magnetization 

 Free energy of the ion-electron system (eV)
  ---------------------------------------------------
  alpha Z        PSCENC =        88.93229116
  Ewald energy   TEWEN  =     -1428.32931747
  -Hartree energ DENC   =      -124.78330071
  -exchange      EXHF   =         0.00000000
  -V(xc)+E(xc)   XCENC  =       -33.21950093
  PAW double counting   =      1193.78262552    -1080.73714043
  entropy T*S    EENTRO =        -0.00000000
  eigenvalues    EBANDS =       -98.29624888
  atomic energy  EATOM  =      1448.48460880
  Solvation  Ediel_sol  =         0.00000000
  ---------------------------------------------------
  free energy    TOTEN  =       -34.16598294 eV

  energy without entropy =      -34.16598294  energy(sigma->0) =      -34.16598294


--------------------------------------------------------------------------------------------------------




--------------------------------------- Iteration      1(   5)  ---------------------------------------


     EDDAV:  cpu time      0.2935: real time      0.2964
       DOS:  cpu time      0.0006: real time      0.0006
    CHARGE:  cpu time      0.0041: real time      0.0041
    MIXING:  cpu time      0.0008: real time      0.0008
    --------------------------------------------
      LOOP:  cpu time      0.2990: real time      0.3019

 eigenvalue-minimisations  :  3152
 total energy-change (2. order) :-0.3185086E-03  (-0.3184984E-03)
 number of electron      39.9999972 magnetization 
 augmentation part       -7.3994563 magnetization 

 Broyden mixing:
  rms(total) = 0.65484E+00    rms(broyden)= 0.65483E+00
  rms(prec ) = 0.73417E+00
  weight for this iteration     100.00

 Free energy of the ion-electron system (eV)
  ---------------------------------------------------
  alpha Z        PSCENC =        88.93229116
  Ewald energy   TEWEN  =     -1428.32931747
  -Hartree energ DENC   =      -124.78330071
  -exchange      EXHF   =         0.00000000
  -V(xc)+E(xc)   XCENC  =       -33.21950093
  PAW double counting   =      1193.78262552    -1080.73714043
  entropy T*S    EENTRO =        -0.00000000
  eigenvalues    EBANDS =       -98.29656739
  atomic energy  EATOM  =      1448.48460880
  Solvation  Ediel_sol  =         0.00000000
  ---------------------------------------------------
  free energy    TOTEN  =       -34.16630145 eV

  energy without entropy =      -34.16630145  energy(sigma->0) =      -34.16630145


--------------------------------------------------------------------------------------------------------




--------------------------------------- Iteration      1(   6)  ---------------------------------------


    POTLOK:  cpu time      0.0053: real time      0.0055
    SETDIJ:  cpu time      0.1392: real time      0.1398
     EDDAV:  cpu time      0.2935: real time      0.2962
       DOS:  cpu time      0.0008: real time      0.0008
    CHARGE:  cpu time      0.0048: real time      0.0048
    MIXING:  cpu time      0.0010: real time      0.0010
    --------------------------------------------
      LOOP:  cpu time      0.4445: real time      0.4481

 eigenvalue-minimisations  :  3104
 total energy-change (2. order) : 0.3629337E+00  (-0.7205386E-01)
 number of electron      39.9999973 magnetization 
 augmentation part       -7.3455895 magnetization 

 Broyden mixing:
  rms(total) = 0.41211E+00    rms(broyden)= 0.41211E+00
  rms(prec ) = 0.43352E+00
  weight for this iteration     100.00

 eigenvalues of (default mixing * dielectric matrix)
  average eigenvalue GAMMA=   2.2385
  2.2385

 Free energy of the ion-electron system (eV)
  ---------------------------------------------------
  alpha Z        PSCENC =        88.93229116
  Ewald energy   TEWEN  =     -1428.32931747
  -Hartree energ DENC   =      -130.40905350
  -exchange      EXHF   =         0.00000000
  -V(xc)+E(xc)   XCENC  =       -32.62409144
  PAW double counting   =      1462.90669400    -1350.18800850
  entropy T*S    EENTRO =        -0.00000000
  eigenvalues    EBANDS =       -92.57649083
  atomic energy  EATOM  =      1448.48460880
  Solvation  Ediel_sol  =         0.00000000
  ---------------------------------------------------
  free energy    TOTEN  =       -33.80336777 eV

  energy without entropy =      -33.80336777  energy(sigma->0) =      -33.80336777


--------------------------------------------------------------------------------------------------------




--------------------------------------- Iteration      1(   7)  ---------------------------------------


    POTLOK:  cpu time      0.0071: real time      0.0074
    SETDIJ:  cpu time      0.1393: real time      0.1401
     EDDAV:  cpu time      0.2808: real time      0.2834
       DOS:  cpu time      0.0006: real time      0.0006
    CHARGE:  cpu time      0.0040: real time      0.0040
    MIXING:  cpu time      0.0005: real time      0.0005
    --------------------------------------------
      LOOP:  cpu time      0.4323: real time      0.4360

 eigenvalue-minimisations  :  2976
 total energy-change (2. order) : 0.1313267E-01  (-0.2305516E-01)
 number of electron      39.9999973 magnetization 
 augmentation part       -7.3321266 magnetization 

 Broyden mixing:
  rms(total) = 0.12445E+00    rms(broyden)= 0.12445E+00
  rms(prec ) = 0.13298E+00
  weight for this iteration     100.00

 eigenvalues of (default mixing * dielectric matrix)
  average eigenvalue GAMMA=   1.7990
  1.2034  2.3946

 Free energy of the ion-electron system (eV)
  ---------------------------------------------------
  alpha Z        PSCENC =        88.93229116
  Ewald energy   TEWEN  =     -1428.32931747
  -Hartree energ DENC   =      -133.05248756
  -exchange      EXHF   =         0.00000000
  -V(xc)+E(xc)   XCENC  =       -32.13484285
  PAW double counting   =      1806.93139435    -1694.47136700
  entropy T*S    EENTRO =        -0.00000000
  eigenvalues    EBANDS =       -90.15051453
  atomic energy  EATOM  =      1448.48460880
  Solvation  Ediel_sol  =         0.00000000
  ---------------------------------------------------
  free energy    TOTEN  =       -33.79023510 eV

  energy without entropy =      -33.79023510  energy(sigma->0) =      -33.79023510


--------------------------------------------------------------------------------------------------------




--------------------------------------- Iteration      1(   8)  ---------------------------------------


    POTLOK:  cpu time      0.0051: real time      0.0054
    SETDIJ:  cpu time      0.1389: real time      0.1395
     EDDAV:  cpu time      0.2697: real time      0.2722
       DOS:  cpu time      0.0006: real time      0.0006
    CHARGE:  cpu time      0.0039: real time      0.0039
    MIXING:  cpu time      0.0005: real time      0.0005
    --------------------------------------------
      LOOP:  cpu time      0.4187: real time      0.4221

 eigenvalue-minimisations  :  2928
 total energy-change (2. order) : 0.1912339E-02  (-0.2295552E-02)
 number of electron      39.9999973 magnetization 
 augmentation part       -7.3406988 magnetization 

 Broyden mixing:
  rms(total) = 0.17994E-01    rms(broyden)= 0.17994E-01
  rms(prec ) = 0.21591E-01
  weight for this iteration     100.00

 eigenvalues of (default mixing * dielectric matrix)
  average eigenvalue GAMMA=   1.7112
  2.5190  1.3073  1.3073

 Free energy of the ion-electron system (eV)
  ---------------------------------------------------
  alpha Z        PSCENC =        88.93229116
  Ewald energy   TEWEN  =     -1428.32931747
  -Hartree energ DENC   =      -133.05509234
  -exchange      EXHF   =         0.00000000
  -V(xc)+E(xc)   XCENC  =       -32.00679452
  PAW double counting   =      1940.68063757    -1828.28037054
  entropy T*S    EENTRO =        -0.00000000
  eigenvalues    EBANDS =       -90.21428541
  atomic energy  EATOM  =      1448.48460880
  Solvation  Ediel_sol  =         0.00000000
  ---------------------------------------------------
  free energy    TOTEN  =       -33.78832276 eV

  energy without entropy =      -33.78832276  energy(sigma->0) =      -33.78832276


--------------------------------------------------------------------------------------------------------




--------------------------------------- Iteration      1(   9)  ---------------------------------------


    POTLOK:  cpu time      0.0050: real time      0.0052
    SETDIJ:  cpu time      0.1370: real time      0.1376
     EDDAV:  cpu time      0.2948: real time      0.2978
       DOS:  cpu time      0.0006: real time      0.0006
    CHARGE:  cpu time      0.0038: real time      0.0039
    MIXING:  cpu time      0.0005: real time      0.0005
    --------------------------------------------
      LOOP:  cpu time      0.4417: real time      0.4456

 eigenvalue-minimisations  :  3184
 total energy-change (2. order) :-0.2571720E-03  (-0.3459960E-03)
 number of electron      39.9999973 magnetization 
 augmentation part       -7.3389853 magnetization 

 Broyden mixing:
  rms(total) = 0.63962E-02    rms(broyden)= 0.63961E-02
  rms(prec ) = 0.70544E-02
  weight for this iteration     100.00

 eigenvalues of (default mixing * dielectric matrix)
  average eigenvalue GAMMA=   1.7139
  2.2521  2.2521  1.1757  1.1757

 Free energy of the ion-electron system (eV)
  ---------------------------------------------------
  alpha Z        PSCENC =        88.93229116
  Ewald energy   TEWEN  =     -1428.32931747
  -Hartree energ DENC   =      -133.38572493
  -exchange      EXHF   =         0.00000000
  -V(xc)+E(xc)   XCENC  =       -31.96825620
  PAW double counting   =      1955.15507727    -1842.76484015
  entropy T*S    EENTRO =        -0.00000000
  eigenvalues    EBANDS =       -89.91241842
  atomic energy  EATOM  =      1448.48460880
  Solvation  Ediel_sol  =         0.00000000
  ---------------------------------------------------
  free energy    TOTEN  =       -33.78857993 eV

  energy without entropy =      -33.78857993  energy(sigma->0) =      -33.78857993


--------------------------------------------------------------------------------------------------------




--------------------------------------- Iteration      1(  10)  ---------------------------------------


    POTLOK:  cpu time      0.0086: real time      0.0089
    SETDIJ:  cpu time      0.1334: real time      0.1340
     EDDAV:  cpu time      0.2499: real time      0.2513
       DOS:  cpu time      0.0003: real time      0.0003
    CHARGE:  cpu time      0.0030: real time      0.0030
    MIXING:  cpu time      0.0003: real time      0.0003
    --------------------------------------------
      LOOP:  cpu time      0.3955: real time      0.3977

 eigenvalue-minimisations  :  3152
 total energy-change (2. order) :-0.6555934E-04  (-0.2219134E-04)
 number of electron      39.9999973 magnetization 
 augmentation part       -7.3389146 magnetization 

 Broyden mixing:
  rms(total) = 0.23880E-02    rms(broyden)= 0.23880E-02
  rms(prec ) = 0.28806E-02
  weight for this iteration     100.00

 eigenvalues of (default mixing * dielectric matrix)
  average eigenvalue GAMMA=   1.7478
  2.7057  2.3628  1.1782  1.2461  1.2461

 Free energy of the ion-electron system (eV)
  ---------------------------------------------------
  alpha Z        PSCENC =        88.93229116
  Ewald energy   TEWEN  =     -1428.32931747
  -Hartree energ DENC   =      -133.40497699
  -exchange      EXHF   =         0.00000000
  -V(xc)+E(xc)   XCENC  =       -31.96686678
  PAW double counting   =      1948.50157118    -1836.10633527
  entropy T*S    EENTRO =        -0.00000000
  eigenvalues    EBANDS =       -89.89962012
  atomic energy  EATOM  =      1448.48460880
  Solvation  Ediel_sol  =         0.00000000
  ---------------------------------------------------
  free energy    TOTEN  =       -33.78864549 eV

  energy without entropy =      -33.78864549  energy(sigma->0) =      -33.78864549


--------------------------------------------------------------------------------------------------------




--------------------------------------- Iteration      1(  11)  ---------------------------------------


    POTLOK:  cpu time      0.0034: real time      0.0036
    SETDIJ:  cpu time      0.1365: real time      0.1368
     EDDAV:  cpu time      0.1838: real time      0.1846
       DOS:  cpu time      0.0003: real time      0.0003
    CHARGE:  cpu time      0.0031: real time      0.0031
    MIXING:  cpu time      0.0004: real time      0.0004
    --------------------------------------------
      LOOP:  cpu time      0.3275: real time      0.3289

 eigenvalue-minimisations  :  2848
 total energy-change (2. order) :-0.2511835E-04  (-0.3541621E-05)
 number of electron      39.9999973 magnetization 
 augmentation part       -7.3391377 magnetization 

 Broyden mixing:
  rms(total) = 0.12151E-02    rms(broyden)= 0.12151E-02
  rms(prec ) = 0.13277E-02
  weight for this iteration     100.00

 eigenvalues of (default mixing * dielectric matrix)
  average eigenvalue GAMMA=   1.7023
  2.4785  2.2380  2.2380  1.1850  1.1850  0.8895

 Free energy of the ion-electron system (eV)
  ---------------------------------------------------
  alpha Z        PSCENC =        88.93229116
  Ewald energy   TEWEN  =     -1428.32931747
  -Hartree energ DENC   =      -133.42774736
  -exchange      EXHF   =         0.00000000
  -V(xc)+E(xc)   XCENC  =       -31.96057561
  PAW double counting   =      1950.16254799    -1837.76774667
  entropy T*S    EENTRO =        -0.00000000
  eigenvalues    EBANDS =       -89.88273145
  atomic energy  EATOM  =      1448.48460880
  Solvation  Ediel_sol  =         0.00000000
  ---------------------------------------------------
  free energy    TOTEN  =       -33.78867061 eV

  energy without entropy =      -33.78867061  energy(sigma->0) =      -33.78867061


--------------------------------------------------------------------------------------------------------




--------------------------------------- Iteration      1(  12)  ---------------------------------------


    POTLOK:  cpu time      0.0035: real time      0.0037
    SETDIJ:  cpu time      0.1362: real time      0.1367
     EDDAV:  cpu time      0.2050: real time      0.2059
       DOS:  cpu time      0.0003: real time      0.0003
    --------------------------------------------
      LOOP:  cpu time      0.3450: real time      0.3466

 eigenvalue-minimisations  :  3392
 total energy-change (2. order) :-0.1232488E-07  (-0.4474132E-06)
 number of electron      39.9999973 magnetization 
 augmentation part       -7.3391377 magnetization 

 Free energy of the ion-electron system (eV)
  ---------------------------------------------------
  alpha Z        PSCENC =        88.93229116
  Ewald energy   TEWEN  =     -1428.32931747
  -Hartree energ DENC   =      -133.43941148
  -exchange      EXHF   =         0.00000000
  -V(xc)+E(xc)   XCENC  =       -31.95978289
  PAW double counting   =      1949.39779198    -1837.00276690
  entropy T*S    EENTRO =        -0.00000000
  eigenvalues    EBANDS =       -89.87208383
  atomic energy  EATOM  =      1448.48460880
  Solvation  Ediel_sol  =         0.00000000
  ---------------------------------------------------
  free energy    TOTEN  =       -33.78867062 eV

  energy without entropy =      -33.78867062  energy(sigma->0) =      -33.78867062


--------------------------------------------------------------------------------------------------------




 average (electrostatic) potential at core
  the test charge radii are     1.1631  1.0808
  (the norm of the test charge is              1.0000)
       1 -33.3371       2 -33.3371       3 -33.3371       4 -33.3371       5 -54.8477
       6 -54.8477       7 -54.8477       8 -54.8477
 
 
 
 E-fermi :   3.6276     XC(G=0):  -9.3750     alpha+bet : -8.8597

 Fermi energy:         3.6276467322

 k-point     1 :       0.0000    0.0000    0.0000
  band No.  band energies     occupation 
      1     -10.9256      2.00000
      2     -10.6068      2.00000
      3      -9.6356      2.00000
      4      -9.1457      2.00000
      5      -4.5788      2.00000
      6      -4.0174      2.00000
      7      -2.4968      2.00000
      8      -2.0468      2.00000
      9      -1.7750      2.00000
     10      -0.3620      2.00000
     11      -0.1537      2.00000
     12      -0.0729      2.00000
     13       0.3586      2.00000
     14       0.7349      2.00000
     15       1.4810      2.00000
     16       1.5678      2.00000
     17       2.1242      2.00000
     18       2.2648      2.00000
     19       2.5861      2.00000
     20       3.4108      2.00000
     21       4.0287      0.00000
     22       5.9684      0.00000
     23       6.1810      0.00000
     24       6.1935      0.00000
     25       6.4822      0.00000
     26       6.6311      0.00000
     27       7.0420      0.00000
     28       7.6685      0.00000
     29       8.3993      0.00000
     30       8.7993      0.00000
     31       8.8136      0.00000
     32       9.2884      0.00000

 k-point     2 :       0.1667    0.0000    0.0000
  band No.  band energies     occupation 
      1     -10.8059      2.00000
      2     -10.4940      2.00000
      3      -9.6423      2.00000
      4      -9.1994      2.00000
      5      -4.9390      2.00000
      6      -4.1628      2.00000
      7      -3.2430      2.00000
      8      -2.5663      2.00000
      9      -1.5920      2.00000
     10      -0.0114      2.00000
     11       0.5027      2.00000
     12       0.5048      2.00000
     13       0.5072      2.00000
     14       0.8660      2.00000
     15       1.6158      2.00000
     16       1.9352      2.00000
     17       2.1152      2.00000
     18       2.1460      2.00000
     19       2.7078      2.00000
     20       3.2527      2.00000
     21       4.1502      0.00000
     22       5.5475      0.00000
     23       6.1078      0.00000
     24       6.1735      0.00000
     25       6.3429      0.00000
     26       6.5270      0.00000
     27       7.0427      0.00000
     28       7.3019      0.00000
     29       7.7515      0.00000
     30       8.1974      0.00000
     31       8.7349      0.00000
     32       8.8183      0.00000

 k-point     3 :       0.3333    0.0000    0.0000
  band No.  band energies     occupation 
      1     -10.4787      2.00000
      2     -10.1847      2.00000
      3      -9.7451      2.00000
      4      -9.4039      2.00000
      5      -5.3314      2.00000
      6      -4.3781      2.00000
      7      -4.3519      2.00000
      8      -3.4356      2.00000
      9      -1.1140      2.00000
     10       0.4202      2.00000
     11       0.8958      2.00000
     12       1.2172      2.00000
     13       1.3110      2.00000
     14       1.4102      2.00000
     15       1.6423      2.00000
     16       1.8781      2.00000
     17       1.9900      2.00000
     18       2.8363      2.00000
     19       2.9575      2.00000
     20       3.4031      2.00000
     21       4.6039      0.00000
     22       4.7398      0.00000
     23       5.1221      0.00000
     24       5.7844      0.00000
     25       5.8645      0.00000
     26       6.4251      0.00000
     27       6.6376      0.00000
     28       6.7978      0.00000
     29       6.9760      0.00000
     30       7.6921      0.00000
     31       8.0040      0.00000
     32       9.1960      0.00000

 k-point     4 :       0.5000    0.0000    0.0000
  band No.  band energies     occupation 
      1     -10.0582      2.00000
      2     -10.0582      2.00000
      3      -9.7721      2.00000
      4      -9.7721      2.00000
      5      -5.1566      2.00000
      6      -5.1566      2.00000
      7      -4.1229      2.00000
      8      -4.1229      2.00000
      9      -0.3414      2.00000
     10      -0.3414      2.00000
     11       1.3819      2.00000
     12       1.3819      2.00000
     13       1.6518      2.00000
     14       1.6518      2.00000
     15       1.9359      2.00000
     16       1.9359      2.00000
     17       2.5311      2.00000
     18       2.5311      2.00000
     19       3.1295      2.00000
     20       3.1295      2.00000
     21       4.8395      0.00000
     22       4.8395      0.00000
     23       5.4121      0.00000
     24       5.4121      0.00000
     25       5.8649      0.00000
     26       5.8649      0.00000
     27       5.8780      0.00000
     28       5.8780      0.00000
     29       6.9142      0.00000
     30       6.9142      0.00000
     31       8.9686      0.00000
     32       8.9686      0.00000

 k-point     5 :       0.0000    0.1667    0.0000
  band No.  band energies     occupation 
      1     -10.7255      2.00000
      2     -10.4217      2.00000
      3      -9.5084      2.00000
      4      -9.0782      2.00000
      5      -4.7704      2.00000
      6      -4.2756      2.00000
      7      -2.7623      2.00000
      8      -2.7058      2.00000
      9      -1.5984      2.00000
     10      -0.1917      2.00000
     11      -0.1360      2.00000
     12       0.0233      2.00000
     13       0.3167      2.00000
     14       0.3567      2.00000
     15       1.4701      2.00000
     16       1.5103      2.00000
     17       1.7027      2.00000
     18       2.5679      2.00000
     19       2.6272      2.00000
     20       3.1564      2.00000
     21       4.2245      0.00000
     22       5.5282      0.00000
     23       6.0538      0.00000
     24       6.3184      0.00000
     25       6.6993      0.00000
     26       6.9199      0.00000
     27       7.1805      0.00000
     28       7.2867      0.00000
     29       7.4349      0.00000
     30       8.3665      0.00000
     31       8.5416      0.00000
     32       8.6016      0.00000

 k-point     6 :       0.1667    0.1667    0.0000
  band No.  band energies     occupation 
      1     -10.6110      2.00000
      2     -10.3148      2.00000
      3      -9.5169      2.00000
      4      -9.1261      2.00000
      5      -4.9868      2.00000
      6      -4.2921      2.00000
      7      -3.3391      2.00000
      8      -2.9097      2.00000
      9      -1.4280      2.00000
     10      -0.6918      2.00000
     11      -0.4192      2.00000
     12       0.2850      2.00000
     13       0.8706      2.00000
     14       1.0679      2.00000
     15       1.2634      2.00000
     16       1.4486      2.00000
     17       2.2416      2.00000
     18       2.2692      2.00000
     19       2.8083      2.00000
     20       3.1132      2.00000
     21       4.3456      0.00000
     22       5.3199      0.00000
     23       5.6767      0.00000
     24       5.8374      0.00000
     25       6.5270      0.00000
     26       6.8491      0.00000
     27       7.3335      0.00000
     28       7.4082      0.00000
     29       7.8510      0.00000
     30       8.0142      0.00000
     31       8.1800      0.00000
     32       9.0164      0.00000

 k-point     7 :      -0.1667    0.1667    0.0000
  band No.  band energies     occupation 
      1     -10.6110      2.00000
      2     -10.3148      2.00000
      3      -9.5169      2.00000
      4      -9.1261      2.00000
      5      -4.9868      2.00000
      6      -4.2921      2.00000
      7      -3.3391      2.00000
      8      -2.9097      2.00000
      9      -1.4280      2.00000
     10      -0.6918      2.00000
     11      -0.4192      2.00000
     12       0.2850      2.00000
     13       0.8706      2.00000
     14       1.0679      2.00000
     15       1.2634      2.00000
     16       1.4486      2.00000
     17       2.2416      2.00000
     18       2.2692      2.00000
     19       2.8083      2.00000
     20       3.1132      2.00000
     21       4.3456      0.00000
     22       5.3199      0.00000
     23       5.6767      0.00000
     24       5.8374      0.00000
     25       6.5270      0.00000
     26       6.8491      0.00000
     27       7.3335      0.00000
     28       7.4082      0.00000
     29       7.8510      0.00000
     30       8.0142      0.00000
     31       8.1800      0.00000
     32       9.0164      0.00000

 k-point     8 :       0.3333    0.1667    0.0000
  band No.  band energies     occupation 
      1     -10.3005      2.00000
      2     -10.0240      2.00000
      3      -9.6160      2.00000
      4      -9.3084      2.00000
      5      -5.2258      2.00000
      6      -4.3063      2.00000
      7      -4.2944      2.00000
      8      -3.4973      2.00000
      9      -0.9405      2.00000
     10      -0.6720      2.00000
     11      -0.3706      2.00000
     12       0.4280      2.00000
     13       0.5500      2.00000
     14       0.9924      2.00000
     15       1.4248      2.00000
     16       1.9860      2.00000
     17       2.3713      2.00000
     18       2.4217      2.00000
     19       2.8068      2.00000
     20       2.9543      2.00000
     21       4.6182      0.00000
     22       5.2993      0.00000
     23       5.8052      0.00000
     24       5.9278      0.00000
     25       6.1327      0.00000
     26       6.5155      0.00000
     27       6.9873      0.00000
     28       7.7593      0.00000
     29       7.8222      0.00000
     30       8.0215      0.00000
     31       8.3732      0.00000
     32       9.0085      0.00000

 k-point     9 :      -0.3333    0.1667    0.0000
  band No.  band energies     occupation 
      1     -10.3005      2.00000
      2     -10.0240      2.00000
      3      -9.6160      2.00000
      4      -9.3084      2.00000
      5      -5.2258      2.00000
      6      -4.3063      2.00000
      7      -4.2944      2.00000
      8      -3.4973      2.00000
      9      -0.9405      2.00000
     10      -0.6720      2.00000
     11      -0.3706      2.00000
     12       0.4280      2.00000
     13       0.5500      2.00000
     14       0.9924      2.00000
     15       1.4248      2.00000
     16       1.9860      2.00000
     17       2.3713      2.00000
     18       2.4217      2.00000
     19       2.8068      2.00000
     20       2.9543      2.00000
     21       4.6182      0.00000
     22       5.2993      0.00000
     23       5.8052      0.00000
     24       5.9278      0.00000
     25       6.1327      0.00000
     26       6.5155      0.00000
     27       6.9873      0.00000
     28       7.7593      0.00000
     29       7.8222      0.00000
     30       8.0215      0.00000
     31       8.3732      0.00000
     32       9.0085      0.00000

 k-point    10 :       0.5000    0.1667    0.0000
  band No.  band energies     occupation 
      1      -9.9069      2.00000
      2      -9.9069      2.00000
      3      -9.6421      2.00000
      4      -9.6421      2.00000
      5      -5.0135      2.00000
      6      -5.0135      2.00000
      7      -4.0568      2.00000
      8      -4.0568      2.00000
      9      -0.3921      2.00000
     10      -0.3921      2.00000
     11      -0.0152      2.00000
     12      -0.0152      2.00000
     13       0.3395      2.00000
     14       0.3395      2.00000
     15       1.7594      2.00000
     16       1.7594      2.00000
     17       2.5007      2.00000
     18       2.5007      2.00000
     19       2.9338      2.00000
     20       2.9338      2.00000
     21       4.9051      0.00000
     22       4.9051      0.00000
     23       5.9634      0.00000
     24       5.9634      0.00000
     25       6.6828      0.00000
     26       6.6828      0.00000
     27       7.2341      0.00000
     28       7.2341      0.00000
     29       7.7466      0.00000
     30       7.7466      0.00000
     31       8.7090      0.00000
     32       8.7090      0.00000

 k-point    11 :       0.0000    0.3333    0.0000
  band No.  band energies     occupation 
      1     -10.1756      2.00000
      2      -9.9317      2.00000
      3      -9.2818      2.00000
      4      -9.0645      2.00000
      5      -5.1864      2.00000
      6      -4.7395      2.00000
      7      -4.0493      2.00000
      8      -3.6492      2.00000
      9      -0.9867      2.00000
     10      -0.1464      2.00000
     11       0.1143      2.00000
     12       0.4716      2.00000
     13       0.5868      2.00000
     14       0.6816      2.00000
     15       1.2392      2.00000
     16       1.6368      2.00000
     17       1.8170      2.00000
     18       2.3248      2.00000
     19       2.5193      2.00000
     20       2.6279      2.00000
     21       4.2481      0.00000
     22       4.6356      0.00000
     23       4.8920      0.00000
     24       5.4215      0.00000
     25       5.4934      0.00000
     26       6.0123      0.00000
     27       6.0894      0.00000
     28       6.8714      0.00000
     29       7.1584      0.00000
     30       7.3785      0.00000
     31       7.6766      0.00000
     32       8.5116      0.00000

 k-point    12 :       0.1667    0.3333    0.0000
  band No.  band energies     occupation 
      1     -10.0813      2.00000
      2      -9.8472      2.00000
      3      -9.2857      2.00000
      4      -9.0810      2.00000
      5      -5.1486      2.00000
      6      -4.6332      2.00000
      7      -4.0560      2.00000
      8      -3.7615      2.00000
      9      -1.0125      2.00000
     10      -0.8695      2.00000
     11      -0.6789      2.00000
     12       0.0082      2.00000
     13       0.7353      2.00000
     14       1.0901      2.00000
     15       1.1379      2.00000
     16       1.4692      2.00000
     17       1.5924      2.00000
     18       2.3103      2.00000
     19       2.3771      2.00000
     20       2.4443      2.00000
     21       4.3406      0.00000
     22       4.9837      0.00000
     23       5.1644      0.00000
     24       5.4015      0.00000
     25       6.0015      0.00000
     26       6.5706      0.00000
     27       7.0033      0.00000
     28       7.3499      0.00000
     29       7.5638      0.00000
     30       7.5852      0.00000
     31       8.3761      0.00000
     32       8.6960      0.00000

 k-point    13 :      -0.1667    0.3333    0.0000
  band No.  band energies     occupation 
      1     -10.0813      2.00000
      2      -9.8472      2.00000
      3      -9.2857      2.00000
      4      -9.0810      2.00000
      5      -5.1486      2.00000
      6      -4.6332      2.00000
      7      -4.0560      2.00000
      8      -3.7615      2.00000
      9      -1.0125      2.00000
     10      -0.8695      2.00000
     11      -0.6789      2.00000
     12       0.0082      2.00000
     13       0.7353      2.00000
     14       1.0901      2.00000
     15       1.1379      2.00000
     16       1.4692      2.00000
     17       1.5924      2.00000
     18       2.3103      2.00000
     19       2.3771      2.00000
     20       2.4443      2.00000
     21       4.3406      0.00000
     22       4.9837      0.00000
     23       5.1644      0.00000
     24       5.4015      0.00000
     25       6.0015      0.00000
     26       6.5706      0.00000
     27       7.0033      0.00000
     28       7.3499      0.00000
     29       7.5638      0.00000
     30       7.5852      0.00000
     31       8.3761      0.00000
     32       8.6960      0.00000

 k-point    14 :       0.3333    0.3333    0.0000
  band No.  band energies     occupation 
      1      -9.8341      2.00000
      2      -9.6265      2.00000
      3      -9.3470      2.00000
      4      -9.1656      2.00000
      5      -5.0190      2.00000
      6      -4.3782      2.00000
      7      -4.2912      2.00000
      8      -3.9373      2.00000
      9      -1.5938      2.00000
     10      -1.1739      2.00000
     11      -0.8415      2.00000
     12      -0.4911      2.00000
     13      -0.1157      2.00000
     14       0.5136      2.00000
     15       0.7153      2.00000
     16       1.1349      2.00000
     17       1.4856      2.00000
     18       1.8781      2.00000
     19       2.2363      2.00000
     20       2.4972      2.00000
     21       4.4481      0.00000
     22       6.1012      0.00000
     23       6.4333      0.00000
     24       6.6723      0.00000
     25       6.6758      0.00000
     26       7.1080      0.00000
     27       7.5690      0.00000
     28       8.1056      0.00000
     29       8.3943      0.00000
     30       8.5235      0.00000
     31       8.6302      0.00000
     32       9.7456      0.00000

 k-point    15 :      -0.3333    0.3333    0.0000
  band No.  band energies     occupation 
      1      -9.8341      2.00000
      2      -9.6265      2.00000
      3      -9.3470      2.00000
      4      -9.1656      2.00000
      5      -5.0190      2.00000
      6      -4.3782      2.00000
      7      -4.2912      2.00000
      8      -3.9373      2.00000
      9      -1.5938      2.00000
     10      -1.1739      2.00000
     11      -0.8415      2.00000
     12      -0.4911      2.00000
     13      -0.1157      2.00000
     14       0.5136      2.00000
     15       0.7153      2.00000
     16       1.1349      2.00000
     17       1.4856      2.00000
     18       1.8781      2.00000
     19       2.2363      2.00000
     20       2.4972      2.00000
     21       4.4481      0.00000
     22       6.1012      0.00000
     23       6.4333      0.00000
     24       6.6723      0.00000
     25       6.6758      0.00000
     26       7.1080      0.00000
     27       7.5690      0.00000
     28       8.1056      0.00000
     29       8.3943      0.00000
     30       8.5235      0.00000
     31       8.6302      0.00000
     32       9.7455      0.00000

 k-point    16 :       0.5000    0.3333    0.0000
  band No.  band energies     occupation 
      1      -9.5429      2.00000
      2      -9.5429      2.00000
      3      -9.3623      2.00000
      4      -9.3623      2.00000
      5      -4.7265      2.00000
      6      -4.7265      2.00000
      7      -4.1141      2.00000
      8      -4.1141      2.00000
      9      -1.4713      2.00000
     10      -1.4713      2.00000
     11      -0.9218      2.00000
     12      -0.9218      2.00000
     13      -0.0227      2.00000
     14      -0.0227      2.00000
     15       0.8392      2.00000
     16       0.8392      2.00000
     17       1.3136      2.00000
     18       1.3136      2.00000
     19       2.3280      2.00000
     20       2.3280      2.00000
     21       5.4179      0.00000
     22       5.4179      0.00000
     23       7.2251      0.00000
     24       7.2251      0.00000
     25       7.8064      0.00000
     26       7.8064      0.00000
     27       8.0922      0.00000
     28       8.0922      0.00000
     29       8.5211      0.00000
     30       8.5211      0.00000
     31       9.5069      0.00000
     32       9.5070      0.00000

 k-point    17 :       0.0000    0.5000    0.0000
  band No.  band energies     occupation 
      1      -9.4806      2.00000
      2      -9.4806      2.00000
      3      -9.4010      2.00000
      4      -9.4010      2.00000
      5      -5.0726      2.00000
      6      -5.0726      2.00000
      7      -4.5583      2.00000
      8      -4.5583      2.00000
      9      -0.1787      2.00000
     10      -0.1787      2.00000
     11       0.5595      2.00000
     12       0.5595      2.00000
     13       0.9140      2.00000
     14       0.9140      2.00000
     15       1.4554      2.00000
     16       1.4554      2.00000
     17       1.9123      2.00000
     18       1.9123      2.00000
     19       2.1739      2.00000
     20       2.1739      2.00000
     21       4.4495      0.00000
     22       4.4495      0.00000
     23       4.6341      0.00000
     24       4.6341      0.00000
     25       5.2933      0.00000
     26       5.2933      0.00000
     27       5.7737      0.00000
     28       5.7737      0.00000
     29       6.6686      0.00000
     30       6.6686      0.00000
     31       7.9943      0.00000
     32       7.9943      0.00000

 k-point    18 :       0.1667    0.5000    0.0000
  band No.  band energies     occupation 
      1      -9.4338      2.00000
      2      -9.4338      2.00000
      3      -9.3635      2.00000
      4      -9.3635      2.00000
      5      -4.9630      2.00000
      6      -4.9630      2.00000
      7      -4.5119      2.00000
      8      -4.5119      2.00000
      9      -0.4986      2.00000
     10      -0.4986      2.00000
     11      -0.1076      2.00000
     12      -0.1076      2.00000
     13       0.4241      2.00000
     14       0.4241      2.00000
     15       1.0369      2.00000
     16       1.0369      2.00000
     17       1.6808      2.00000
     18       1.6808      2.00000
     19       2.4461      2.00000
     20       2.4461      2.00000
     21       4.3775      0.00000
     22       4.3775      0.00000
     23       5.4495      0.00000
     24       5.4495      0.00000
     25       6.3649      0.00000
     26       6.3649      0.00000
     27       6.6589      0.00000
     28       6.6589      0.00000
     29       7.3979      0.00000
     30       7.3979      0.00000
     31       7.7154      0.00000
     32       7.7154      0.00000

 k-point    19 :       0.3333    0.5000    0.0000
  band No.  band energies     occupation 
      1      -9.3325      2.00000
      2      -9.3325      2.00000
      3      -9.2883      2.00000
      4      -9.2883      2.00000
      5      -4.7025      2.00000
      6      -4.7025      2.00000
      7      -4.4330      2.00000
      8      -4.4330      2.00000
      9      -1.2596      2.00000
     10      -1.2596      2.00000
     11      -0.8067      2.00000
     12      -0.8067      2.00000
     13      -0.2155      2.00000
     14      -0.2155      2.00000
     15       0.4739      2.00000
     16       0.4739      2.00000
     17       1.2507      2.00000
     18       1.2507      2.00000
     19       2.1879      2.00000
     20       2.1879      2.00000
     21       5.4365      0.00000
     22       5.4365      0.00000
     23       6.8273      0.00000
     24       6.8273      0.00000
     25       7.3997      0.00000
     26       7.3997      0.00000
     27       7.6792      0.00000
     28       7.6792      0.00000
     29       8.0888      0.00000
     30       8.0888      0.00000
     31       9.3160      0.00000
     32       9.3160      0.00000

 k-point    20 :       0.5000    0.5000    0.0000
  band No.  band energies     occupation 
      1      -9.2736      2.00000
      2      -9.2736      2.00000
      3      -9.2547      2.00000
      4      -9.2547      2.00000
      5      -4.5281      2.00000
      6      -4.5281      2.00000
      7      -4.4196      2.00000
      8      -4.4196      2.00000
      9      -1.5475      2.00000
     10      -1.5475      2.00000
     11      -1.1665      2.00000
     12      -1.1665      2.00000
     13      -0.3935      2.00000
     14      -0.3935      2.00000
     15       0.0241      2.00000
     16       0.0241      2.00000
     17       1.3610      2.00000
     18       1.3610      2.00000
[...]
     32       7.6297      0.00000

 k-point    32 :       0.1667    0.3333    0.5000
  band No.  band energies     occupation 
      1      -9.9815      2.00000
      2      -9.9815      2.00000
      3      -9.1652      2.00000
      4      -9.1652      2.00000
      5      -4.9245      2.00000
      6      -4.9245      2.00000
      7      -3.9052      2.00000
      8      -3.9052      2.00000
      9      -0.9180      2.00000
     10      -0.9180      2.00000
     11      -0.1163      2.00000
     12      -0.1163      2.00000
     13       0.6165      2.00000
     14       0.6165      2.00000
     15       1.3767      2.00000
     16       1.3767      2.00000
     17       1.6531      2.00000
     18       1.6531      2.00000
     19       2.5411      2.00000
     20       2.5411      2.00000
     21       5.1014      0.00000
     22       5.1014      0.00000
     23       5.3252      0.00000
     24       5.3252      0.00000
     25       6.4150      0.00000
     26       6.4150      0.00000
     27       6.7355      0.00000
     28       6.7355      0.00000
     29       7.4482      0.00000
     30       7.4482      0.00000
     31       8.3297      0.00000
     32       8.3297      0.00000

 k-point    33 :      -0.1667    0.3333    0.5000
  band No.  band energies     occupation 
      1      -9.9815      2.00000
      2      -9.9815      2.00000
      3      -9.1652      2.00000
      4      -9.1652      2.00000
      5      -4.9245      2.00000
      6      -4.9245      2.00000
      7      -3.9052      2.00000
      8      -3.9052      2.00000
      9      -0.9180      2.00000
     10      -0.9180      2.00000
     11      -0.1163      2.00000
     12      -0.1163      2.00000
     13       0.6165      2.00000
     14       0.6165      2.00000
     15       1.3767      2.00000
     16       1.3767      2.00000
     17       1.6531      2.00000
     18       1.6531      2.00000
     19       2.5411      2.00000
     20       2.5411      2.00000
     21       5.1014      0.00000
     22       5.1014      0.00000
     23       5.3252      0.00000
     24       5.3252      0.00000
     25       6.4150      0.00000
     26       6.4150      0.00000
     27       6.7355      0.00000
     28       6.7355      0.00000
     29       7.4482      0.00000
     30       7.4482      0.00000
     31       8.3297      0.00000
     32       8.3297      0.00000

 k-point    34 :       0.3333    0.3333    0.5000
  band No.  band energies     occupation 
      1      -9.7502      2.00000
      2      -9.7502      2.00000
      3      -9.2367      2.00000
      4      -9.2367      2.00000
      5      -4.7752      2.00000
      6      -4.7752      2.00000
      7      -4.0575      2.00000
      8      -4.0575      2.00000
      9      -1.4000      2.00000
     10      -1.4000      2.00000
     11      -0.5919      2.00000
     12      -0.5919      2.00000
     13       0.1776      2.00000
     14       0.1776      2.00000
     15       0.8990      2.00000
     16       0.8990      2.00000
     17       1.5799      2.00000
     18       1.5799      2.00000
     19       2.3827      2.00000
     20       2.3827      2.00000
     21       5.6653      0.00000
     22       5.6653      0.00000
     23       6.3165      0.00000
     24       6.3165      0.00000
     25       6.5884      0.00000
     26       6.5884      0.00000
     27       7.7496      0.00000
     28       7.7496      0.00000
     29       8.1443      0.00000
     30       8.1443      0.00000
     31       9.6392      0.00000
     32       9.6392      0.00000

 k-point    35 :      -0.3333    0.3333    0.5000
  band No.  band energies     occupation 
      1      -9.7502      2.00000
      2      -9.7502      2.00000
      3      -9.2367      2.00000
      4      -9.2367      2.00000
      5      -4.7752      2.00000
      6      -4.7752      2.00000
      7      -4.0575      2.00000
      8      -4.0575      2.00000
      9      -1.4000      2.00000
     10      -1.4000      2.00000
     11      -0.5919      2.00000
     12      -0.5919      2.00000
     13       0.1776      2.00000
     14       0.1776      2.00000
     15       0.8990      2.00000
     16       0.8990      2.00000
     17       1.5799      2.00000
     18       1.5799      2.00000
     19       2.3827      2.00000
     20       2.3827      2.00000
     21       5.6653      0.00000
     22       5.6653      0.00000
     23       6.3165      0.00000
     24       6.3165      0.00000
     25       6.5884      0.00000
     26       6.5884      0.00000
     27       7.7496      0.00000
     28       7.7496      0.00000
     29       8.1443      0.00000
     30       8.1443      0.00000
     31       9.6392      0.00000
     32       9.6392      0.00000

 k-point    36 :       0.5000    0.3333    0.5000
  band No.  band energies     occupation 
      1      -9.5395      2.00000
      2      -9.5395      2.00000
      3      -9.3665      2.00000
      4      -9.3665      2.00000
      5      -4.6828      2.00000
      6      -4.6828      2.00000
      7      -4.1733      2.00000
      8      -4.1733      2.00000
      9      -1.2530      2.00000
     10      -1.2530      2.00000
     11      -1.2169      2.00000
     12      -1.2169      2.00000
     13       0.3403      2.00000
     14       0.3403      2.00000
     15       0.4266      2.00000
     16       0.4266      2.00000
     17       1.7180      2.00000
     18       1.7180      2.00000
     19       2.0105      2.00000
     20       2.0105      2.00000
     21       5.9157      0.00000
     22       5.9157      0.00000
     23       6.5875      0.00000
     24       6.5875      0.00000
     25       7.5906      0.00000
     26       7.5906      0.00000
     27       7.6659      0.00000
     28       7.6659      0.00000
     29       9.2352      0.00000
     30       9.2352      0.00000
     31       9.3830      0.00000
     32       9.3830      0.00000

 k-point    37 :       0.0000    0.5000    0.5000
  band No.  band energies     occupation 
      1      -9.4417      2.00000
      2      -9.4417      2.00000
      3      -9.4417      2.00000
      4      -9.4417      2.00000
      5      -4.8325      2.00000
      6      -4.8325      2.00000
      7      -4.8325      2.00000
      8      -4.8325      2.00000
      9       0.2917      2.00000
     10       0.2917      2.00000
     11       0.2917      2.00000
     12       0.2917      2.00000
     13       1.1578      2.00000
     14       1.1578      2.00000
     15       1.1578      2.00000
     16       1.1578      2.00000
     17       1.8372      2.00000
     18       1.8372      2.00000
     19       1.8372      2.00000
     20       1.8372      2.00000
     21       4.8282      0.00000
     22       4.8282      0.00000
     23       4.8282      0.00000
     24       4.8282      0.00000
     25       5.5053      0.00000
     26       5.5053      0.00000
     27       5.5053      0.00000
     28       5.5053      0.00000
     29       7.0867      0.00000
     30       7.0867      0.00000
     31       7.0867      0.00000
     32       7.0867      0.00000

 k-point    38 :       0.1667    0.5000    0.5000
  band No.  band energies     occupation 
      1      -9.3993      2.00000
      2      -9.3993      2.00000
      3      -9.3993      2.00000
      4      -9.3993      2.00000
      5      -4.7507      2.00000
      6      -4.7507      2.00000
      7      -4.7507      2.00000
      8      -4.7507      2.00000
      9      -0.2731      2.00000
     10      -0.2731      2.00000
     11      -0.2731      2.00000
     12      -0.2731      2.00000
     13       0.7565      2.00000
     14       0.7565      2.00000
     15       0.7565      2.00000
     16       0.7565      2.00000
     17       1.8792      2.00000
     18       1.8792      2.00000
     19       1.8792      2.00000
     20       1.8792      2.00000
     21       5.1933      0.00000
     22       5.1933      0.00000
     23       5.1933      0.00000
     24       5.1933      0.00000
     25       6.5632      0.00000
     26       6.5632      0.00000
     27       6.5632      0.00000
     28       6.5632      0.00000
     29       7.1945      0.00000
     30       7.1945      0.00000
     31       7.1945      0.00000
     32       7.1945      0.00000

 k-point    39 :       0.3333    0.5000    0.5000
  band No.  band energies     occupation 
      1      -9.3106      2.00000
      2      -9.3106      2.00000
      3      -9.3106      2.00000
      4      -9.3106      2.00000
      5      -4.5737      2.00000
      6      -4.5737      2.00000
      7      -4.5737      2.00000
      8      -4.5737      2.00000
      9      -1.0012      2.00000
     10      -1.0012      2.00000
     11      -1.0012      2.00000
     12      -1.0012      2.00000
     13      -0.0391      2.00000
     14      -0.0391      2.00000
     15      -0.0391      2.00000
     16      -0.0391      2.00000
     17       1.8860      2.00000
     18       1.8860      2.00000
     19       1.8860      2.00000
     20       1.8860      2.00000
     21       6.0271      0.00000
     22       6.0271      0.00000
     23       6.0271      0.00000
     24       6.0271      0.00000
     25       7.1836      0.00000
     26       7.1836      0.00000
     27       7.1836      0.00000
     28       7.1836      0.00000
     29       8.9193      0.00000
     30       8.9193      0.00000
     31       8.9193      0.00000
     32       8.9193      0.00000

 k-point    40 :       0.5000    0.5000    0.5000
  band No.  band energies     occupation 
      1      -9.2642      2.00000
      2      -9.2642      2.00000
      3      -9.2642      2.00000
      4      -9.2642      2.00000
      5      -4.4785      2.00000
      6      -4.4785      2.00000
      7      -4.4785      2.00000
      8      -4.4785      2.00000
      9      -1.2293      2.00000
     10      -1.2293      2.00000
     11      -1.2293      2.00000
     12      -1.2293      2.00000
     13      -0.4831      2.00000
     14      -0.4831      2.00000
     15      -0.4831      2.00000
     16      -0.4831      2.00000
     17       1.9430      2.00000
     18       1.9430      2.00000
     19       1.9430      2.00000
     20       1.9430      2.00000
     21       5.9151      0.00000
     22       5.9151      0.00000
     23       5.9151      0.00000
     24       5.9151      0.00000
     25       8.1689      0.00000
     26       8.1689      0.00000
     27       8.1689      0.00000
     28       8.1689      0.00000
     29       9.9635      0.00000
     30       9.9635      0.00000
     31       9.9635      0.00000
     32       9.9635      0.00000


--------------------------------------------------------------------------------------------------------


 soft charge-density along one line, spin component            1
         0         1         2         3         4         5         6         7         8         9
 total charge-density along one line
 
 pseudopotential strength for first ion, spin component:            1
 14.476  18.059  -0.000   0.046   0.041  -0.000   0.082   0.075
 18.059  22.544  -0.000   0.058   0.052  -0.000   0.104   0.094
 -0.000  -0.000   3.219   0.000  -0.000   5.479   0.000  -0.000
  0.046   0.058   0.000   3.216  -0.003   0.000   5.474  -0.005
  0.041   0.052  -0.000  -0.003   3.217  -0.000  -0.005   5.476
 -0.000  -0.000   5.479   0.000  -0.000   9.384   0.000  -0.000
  0.082   0.104   0.000   5.474  -0.005   0.000   9.375  -0.009
  0.075   0.094  -0.000  -0.005   5.476  -0.000  -0.009   9.379
 -0.000  -0.000   0.007   0.000  -0.000   0.013   0.000  -0.000
  0.000   0.000   0.012  -0.000   0.000   0.022  -0.000   0.000
 -0.003  -0.004   0.000   0.012  -0.004   0.000   0.022  -0.007
 -0.006  -0.008   0.000   0.013   0.012   0.000   0.023   0.021
 -0.002  -0.002   0.000  -0.000   0.012   0.000  -0.000   0.022
 total augmentation occupancy for first ion, spin component:            1
  2.749  -0.714   0.000   0.367   0.353  -0.000  -0.067  -0.068  -0.000  -0.000  -0.009  -0.006  -0.009
 -0.714   0.669  -0.000  -0.479  -0.446   0.000   0.075   0.072   0.000   0.000   0.008   0.003   0.005
  0.000  -0.000   1.276   0.000  -0.000  -0.222  -0.000   0.000   0.149   0.039  -0.000  -0.000   0.000
  0.367  -0.479   0.000   1.297   0.087   0.000  -0.211  -0.004   0.000   0.000   0.099  -0.016   0.004
  0.353  -0.446  -0.000   0.087   1.275   0.000  -0.004  -0.211   0.000  -0.000  -0.100   0.045   0.002
 -0.000   0.000  -0.222   0.000   0.000   0.043   0.000  -0.000  -0.026  -0.007   0.000   0.000  -0.000
 -0.067   0.075  -0.000  -0.211  -0.004   0.000   0.039  -0.001  -0.000  -0.000  -0.017   0.003  -0.001
 -0.068   0.072   0.000  -0.004  -0.211  -0.000  -0.001   0.039   0.000   0.000   0.017  -0.008  -0.001
 -0.000   0.000   0.149   0.000   0.000  -0.026  -0.000   0.000   0.033   0.004  -0.000  -0.000   0.000
 -0.000   0.000   0.039   0.000  -0.000  -0.007  -0.000   0.000   0.004   0.011   0.000   0.000  -0.000
 -0.009   0.008  -0.000   0.099  -0.100   0.000  -0.017   0.017  -0.000   0.000   0.031  -0.008   0.002
 -0.006   0.003  -0.000  -0.016   0.045   0.000   0.003  -0.008  -0.000   0.000  -0.008   0.012  -0.001
 -0.009   0.005   0.000   0.004   0.002  -0.000  -0.001  -0.001   0.000  -0.000   0.002  -0.001   0.009


------------------------ aborting loop because EDIFF is reached ----------------------------------------


    CHARGE:  cpu time      0.0032: real time      0.0032
    FORLOC:  cpu time      0.0002: real time      0.0002
    FORNL :  cpu time      0.0208: real time      0.0209
    STRESS:  cpu time      0.1865: real time      0.1871
    FORCOR:  cpu time      0.0037: real time      0.0037
    FORHAR:  cpu time      0.0008: real time      0.0008
    MIXING:  cpu time      0.0010: real time      0.0010
    OFIELD:  cpu time      0.0000: real time      0.0000

  FORCE on cell =-STRESS in cart. coord.  units (eV):
  Direction    XX          YY          ZZ          XY          YZ          ZX
  --------------------------------------------------------------------------------------
  Alpha Z    88.93229    88.93229    88.93229
  Ewald    -478.91800  -435.65417  -513.75891    -0.00000     0.00000    -0.00000
  Hartree    43.37483    63.99831    26.07285    -0.00000    -0.00000    -0.00000
  E(xc)    -141.37473  -141.38042  -141.62929    -0.00000    -0.00000    -0.00000
  Local    -136.53933  -194.99278   -88.97040     0.00000     0.00000     0.00000
  n-local   240.82018   241.21176   241.85921     0.00000    -0.00000     0.00000
  augment   -11.74167   -11.39482   -12.13049    -0.00000     0.00000    -0.00000
  Kinetic   396.83453   392.03292   400.00828     0.00000    -0.00000     0.00000
  Fock        0.00000     0.00000     0.00000     0.00000     0.00000     0.00000
  -------------------------------------------------------------------------------------
  Total       1.38811     2.75308     0.38354     0.00000     0.00000     0.00000
  in kB      11.67257    23.15057     3.22520     0.00001     0.00000     0.00000
  external pressure =       12.68 kB  Pullay stress =        0.00 kB


 VOLUME and BASIS-vectors are now :
 -----------------------------------------------------------------------------
  energy-cutoff  :      360.00
  volume of cell :      190.53
      direct lattice vectors                 reciprocal lattice vectors
     4.500000000  0.000000000  0.000000000     0.222222222  0.000000000  0.000000000
     0.000000000  3.800000000  0.000000000     0.000000000  0.263157895  0.000000000
     0.000000000  0.000000000 11.142221000     0.000000000  0.000000000  0.089748713

  length of vectors
     4.500000000  3.800000000 11.142221000     0.222222222  0.263157895  0.089748713


 FORCES acting on ions
    electron-ion (+dipol)            ewald-force                    non-local-force                 convergence-correction
 -----------------------------------------------------------------------------------------------
   0.159E+02 -.195E-05 0.270E+02   -.184E+02 0.109E-14 -.299E+02   0.249E+01 0.584E-06 0.290E+01   -.373E-04 0.151E-05 -.134E-02
   0.159E+02 -.291E-05 -.270E+02   -.184E+02 -.336E-15 0.299E+02   0.249E+01 0.123E-05 -.290E+01   -.376E-04 0.172E-05 0.134E-02
   -.159E+02 0.270E-05 -.270E+02   0.184E+02 -.984E-15 0.299E+02   -.249E+01 -.101E-05 -.290E+01   0.373E-04 -.199E-05 0.134E-02
   -.159E+02 0.219E-05 0.270E+02   0.184E+02 -.444E-15 -.299E+02   -.249E+01 -.748E-06 0.290E+01   0.371E-04 -.135E-05 -.134E-02
   -.148E+02 0.105E-04 -.257E+02   0.163E+02 -.246E-15 0.273E+02   -.150E+01 -.391E-05 -.155E+01   0.129E-03 -.668E-05 0.248E-02
   -.148E+02 0.978E-05 0.257E+02   0.163E+02 -.184E-14 -.273E+02   -.150E+01 -.421E-05 0.155E+01   0.132E-03 -.655E-05 -.247E-02
   0.148E+02 -.102E-04 0.257E+02   -.163E+02 0.307E-14 -.273E+02   0.150E+01 0.405E-05 0.155E+01   -.129E-03 0.620E-05 -.248E-02
   0.148E+02 -.121E-04 -.257E+02   -.163E+02 -.128E-14 0.273E+02   0.150E+01 0.493E-05 -.155E+01   -.130E-03 0.811E-05 0.247E-02
 -----------------------------------------------------------------------------------------------
   -.709E-06 -.209E-05 0.268E-05   0.000E+00 -.969E-15 0.711E-14   -.253E-06 0.913E-06 -.117E-05   0.800E-06 0.977E-06 -.143E-05
 
 
 POSITION                                       TOTAL-FORCE (eV/Angst)
 -----------------------------------------------------------------------------------
      0.49696      0.95000      1.37713        -0.034414      0.000000      0.018749
      2.74696      2.85000      4.19398        -0.034415      0.000000     -0.018750
      4.00304      2.85000      9.76509         0.034415     -0.000000     -0.018749
      1.75304      0.95000      6.94824         0.034415      0.000000      0.018750
      4.47468      0.95000      3.92552         0.053681     -0.000000     -0.013578
      2.22468      2.85000      1.64559         0.053682     -0.000001      0.013579
      0.02532      2.85000      7.21670        -0.053681      0.000000      0.013578
      2.27532      0.95000      9.49663        -0.053681      0.000001     -0.013579
 -----------------------------------------------------------------------------------
    total drift:                               -0.000000     -0.000000      0.000000


--------------------------------------------------------------------------------------------------------



  FREE ENERGIE OF THE ION-ELECTRON SYSTEM (eV)
  ---------------------------------------------------
  free  energy   TOTEN  =       -33.78867062 eV

  energy  without entropy=      -33.78867062  energy(sigma->0) =      -33.78867062
 


--------------------------------------------------------------------------------------------------------


    POTLOK:  cpu time      0.1136: real time      0.1139


--------------------------------------------------------------------------------------------------------


     LOOP+:  cpu time      4.8816: real time      4.9192
    4ORBIT:  cpu time      0.0000: real time      0.0000

 total amount of memory used by VASP MPI-rank0    38146. kBytes
=======================================================================

   base      :      30000. kBytes
   nonl-proj :       6352. kBytes
   fftplans  :        320. kBytes
   grid      :        455. kBytes
   one-center:         16. kBytes
   wavefun   :       1003. kBytes
 
  
  
 General timing and accounting informations for this job:
 ========================================================
  
                  Total CPU time used (sec):        5.653
                            User time (sec):        5.371
                          System time (sec):        0.281
                         Elapsed time (sec):        7.149
  
                   Maximum memory used (kb):      190340.
                   Average memory used (kb):          N/A
  
                          Minor page faults:        23332
                          Major page faults:           46
                 Voluntary context switches:         3721
