 running  128 mpi-ranks, with    1 threads/rank, on    2 nodes
 distrk:  each k-point on   64 cores,    2 groups
 distr:  one band on    4 cores,   16 groups
 vasp.6.4.2 20Jul23 (build Oct 12 2023 10:31:02) complex                         
 POSCAR found type information on POSCAR GeSe
 POSCAR found :  2 types and       8 ions
 Reading from existing POTCAR
 scaLAPACK will be used
 Reading from existing POTCAR
 LDA part: xc-table for Pade appr. of Perdew
 POSCAR, INCAR and KPOINTS ok, starting setup
 FFT: planning ... GRIDC
 FFT: planning ... GRID_SOFT
 FFT: planning ... GRID
 WAVECAR not read
 entering main loop
       N       E                     dE             d eps       ncg     rms          rms(c)
DAV:   1     0.132470875432E+03    0.13247E+03   -0.12675E+04  2560   0.766E+02
DAV:   2    -0.249485736481E+02   -0.15742E+03   -0.15284E+03  3728   0.138E+02
DAV:   3    -0.340824273474E+02   -0.91339E+01   -0.91126E+01  3200   0.385E+01
DAV:   4    -0.341472264100E+02   -0.64799E-01   -0.64793E-01  3216   0.374E+00
DAV:   5    -0.341476360225E+02   -0.40961E-03   -0.40961E-03  3200   0.290E-01    0.615E+00
DAV:   6    -0.336683824031E+02    0.47925E+00   -0.10250E+00  3040   0.334E+00    0.383E+00
DAV:   7    -0.336588711057E+02    0.95113E-02   -0.25418E-01  3040   0.177E+00    0.147E+00
DAV:   8    -0.336582392519E+02    0.63185E-03   -0.25227E-02  2992   0.609E-01    0.177E-01
DAV:   9    -0.336583012601E+02   -0.62008E-04   -0.41904E-03  3072   0.273E-01    0.692E-02
DAV:  10    -0.336584150746E+02   -0.11381E-03   -0.42630E-04  3024   0.906E-02    0.236E-02
DAV:  11    -0.336584357084E+02   -0.20634E-04   -0.40437E-05  2800   0.291E-02    0.131E-02
DAV:  12    -0.336584356593E+02    0.49065E-07   -0.77298E-06  3200   0.117E-02
   1 F= -.33658436E+02 E0= -.33658436E+02  d E =-.279097E-15
