 running  160 mpi-ranks, with    1 threads/rank, on   10 nodes
 distrk:  each k-point on   80 cores,    2 groups
 distr:  one band on    5 cores,   16 groups
 vasp.6.4.2 20Jul23 (build Oct 12 2023 10:31:02) complex                         
 POSCAR found type information on POSCAR GeSe
 POSCAR found :  2 types and       8 ions
 Reading from existing POTCAR
 scaLAPACK will be used
 Reading from existing POTCAR
 LDA part: xc-table for Pade appr. of Perdew
 POSCAR, INCAR and KPOINTS ok, starting setup
 FFT: planning ... GRIDC
 FFT: planning ... GRID_SOFT
 FFT: planning ... GRID
 WAVECAR not read
 entering main loop
       N       E                     dE             d eps       ncg     rms          rms(c)
DAV:   1     0.163413956617E+03    0.16341E+03   -0.15894E+04  2560   0.104E+03
DAV:   2    -0.222761366797E+02   -0.18569E+03   -0.18024E+03  3664   0.156E+02
DAV:   3    -0.336901197400E+02   -0.11414E+02   -0.11381E+02  3280   0.444E+01
DAV:   4    -0.337815721505E+02   -0.91452E-01   -0.91433E-01  3264   0.449E+00
DAV:   5    -0.337821720988E+02   -0.59995E-03   -0.59994E-03  3264   0.371E-01    0.657E+00
DAV:   6    -0.334186264854E+02    0.36355E+00   -0.76260E-01  3328   0.290E+00    0.413E+00
DAV:   7    -0.334079705606E+02    0.10656E-01   -0.21260E-01  3008   0.166E+00    0.127E+00
DAV:   8    -0.334066643379E+02    0.13062E-02   -0.20763E-02  2960   0.552E-01    0.174E-01
DAV:   9    -0.334070591206E+02   -0.39478E-03   -0.28192E-03  3296   0.240E-01    0.664E-02
DAV:  10    -0.334071870940E+02   -0.12797E-03   -0.25329E-04  3312   0.697E-02    0.229E-02
DAV:  11    -0.334072172821E+02   -0.30188E-04   -0.37994E-05  3040   0.275E-02    0.108E-02
DAV:  12    -0.334072191562E+02   -0.18741E-05   -0.56155E-06  3488   0.103E-02    0.367E-03
DAV:  13    -0.334072195189E+02   -0.36273E-06   -0.13407E-06  2112   0.529E-03
   1 F= -.33407220E+02 E0= -.33407212E+02  d E =-.143356E-04
