 running  128 mpi-ranks, with    1 threads/rank, on    2 nodes
 distrk:  each k-point on   64 cores,    2 groups
 distr:  one band on    4 cores,   16 groups
 vasp.6.4.2 20Jul23 (build Oct 12 2023 10:31:02) complex                         
 POSCAR found type information on POSCAR GeSe
 POSCAR found :  2 types and       8 ions
 Reading from existing POTCAR
 scaLAPACK will be used
 Reading from existing POTCAR
 LDA part: xc-table for Pade appr. of Perdew
 POSCAR, INCAR and KPOINTS ok, starting setup
 FFT: planning ... GRIDC
 FFT: planning ... GRID_SOFT
 FFT: planning ... GRID
 WAVECAR not read
 entering main loop
       N       E                     dE             d eps       ncg     rms          rms(c)
DAV:   1     0.130519468519E+03    0.13052E+03   -0.12812E+04  2560   0.773E+02
DAV:   2    -0.256290932912E+02   -0.15615E+03   -0.15150E+03  3744   0.139E+02
DAV:   3    -0.341133658771E+02   -0.84843E+01   -0.84673E+01  3216   0.377E+01
DAV:   4    -0.341698472324E+02   -0.56481E-01   -0.56475E-01  3200   0.352E+00
DAV:   5    -0.341701976935E+02   -0.35046E-03   -0.35046E-03  3168   0.271E-01    0.655E+00
DAV:   6    -0.337976014945E+02    0.37260E+00   -0.75225E-01  3104   0.294E+00    0.413E+00
DAV:   7    -0.337827442021E+02    0.14857E-01   -0.23176E-01  2832   0.172E+00    0.128E+00
DAV:   8    -0.337812168798E+02    0.15273E-02   -0.21908E-02  3024   0.563E-01    0.186E-01
DAV:   9    -0.337815103529E+02   -0.29347E-03   -0.36862E-03  3056   0.260E-01    0.660E-02
DAV:  10    -0.337816031685E+02   -0.92816E-04   -0.26752E-04  3216   0.692E-02    0.239E-02
DAV:  11    -0.337816308835E+02   -0.27715E-04   -0.38882E-05  2816   0.281E-02    0.124E-02
DAV:  12    -0.337816314959E+02   -0.61234E-06   -0.54403E-06  3392   0.101E-02
   1 F= -.33781631E+02 E0= -.33781631E+02  d E =-.337867E-14
