 running  128 mpi-ranks, with    1 threads/rank, on    2 nodes
 distrk:  each k-point on   64 cores,    2 groups
 distr:  one band on    8 cores,    8 groups
 vasp.6.4.2 20Jul23 (build Oct 12 2023 10:31:02) complex                         
 POSCAR found type information on POSCAR GeSe
 POSCAR found :  2 types and      72 ions
 Reading from existing POTCAR
 -----------------------------------------------------------------------------
|                                                                             |
|           W    W    AA    RRRRR   N    N  II  N    N   GGGG   !!!           |
|           W    W   A  A   R    R  NN   N  II  NN   N  G    G  !!!           |
|           W    W  A    A  R    R  N N  N  II  N N  N  G       !!!           |
|           W WW W  AAAAAA  RRRRR   N  N N  II  N  N N  G  GGG   !            |
|           WW  WW  A    A  R   R   N   NN  II  N   NN  G    G                |
|           W    W  A    A  R    R  N    N  II  N    N   GGGG   !!!           |
|                                                                             |
|     You use a magnetic or noncollinear calculation, but did not specify     |
|     the initial magnetic moment with the MAGMOM tag. Note that a            |
|     default of 1 will be used for all atoms. This ferromagnetic setup       |
|     may break the symmetry of the crystal, in particular it may rule        |
|     out finding an antiferromagnetic solution. Thence, we recommend         |
|     setting the initial magnetic moment manually or verifying carefully     |
|     that this magnetic setup is desired.                                    |
|                                                                             |
 -----------------------------------------------------------------------------

 scaLAPACK will be used
 Reading from existing POTCAR
 -----------------------------------------------------------------------------
|                                                                             |
|               ----> ADVICE to this user running VASP <----                  |
|                                                                             |
|     You have a (more or less) 'large supercell' and for larger cells it     |
|     might be more efficient to use real-space projection operators.         |
|     Therefore, try LREAL= Auto in the INCAR file.                           |
|     Mind: For very accurate calculation, you might also keep the            |
|     reciprocal projection scheme (i.e. LREAL=.FALSE.).                      |
|                                                                             |
 -----------------------------------------------------------------------------

 LDA part: xc-table for Pade appr. of Perdew
 -----------------------------------------------------------------------------
|                                                                             |
|           W    W    AA    RRRRR   N    N  II  N    N   GGGG   !!!           |
|           W    W   A  A   R    R  NN   N  II  NN   N  G    G  !!!           |
|           W    W  A    A  R    R  N N  N  II  N N  N  G       !!!           |
|           W WW W  AAAAAA  RRRRR   N  N N  II  N  N N  G  GGG   !            |
|           WW  WW  A    A  R   R   N   NN  II  N   NN  G    G                |
|           W    W  A    A  R    R  N    N  II  N    N   GGGG   !!!           |
|                                                                             |
|     The number of bands has been changed from the values supplied in        |
|     the INCAR file. This is a result of running the parallel version.       |
|     The orbitals not found in the WAVECAR file will be initialized with     |
|     random numbers, which is usually adequate. For correlated               |
|     calculations, however, you should redo the groundstate calculation.     |
|     I found NBANDS = 220. Now, NBANDS = 224.                                |
|                                                                             |
 -----------------------------------------------------------------------------

 POSCAR, INCAR and KPOINTS ok, starting setup
 FFT: planning ... GRIDC
 FFT: planning ... GRID_SOFT
 FFT: planning ... GRID
 WAVECAR not read
 WARNING: random wavefunctions but no delay for mixing, default for NELMDL
 entering main loop
       N       E                     dE             d eps       ncg     rms          rms(c)
DAV:   1     0.181388332872E+04    0.18139E+04   -0.14146E+05  7168   0.135E+03
DAV:   2    -0.650518865303E+02   -0.18789E+04   -0.18040E+04  8504   0.205E+02
DAV:   3    -0.282053140213E+03   -0.21700E+03   -0.21120E+03  8576   0.691E+01
DAV:   4    -0.290024683184E+03   -0.79715E+01   -0.78831E+01  8784   0.131E+01
DAV:   5    -0.290322296581E+03   -0.29761E+00   -0.29686E+00  9088   0.213E+00    0.291E+01
DAV:   6    -0.290039032148E+03    0.28326E+00   -0.26756E+01  7944   0.760E+00    0.172E+01
DAV:   7    -0.297260033773E+03   -0.72210E+01   -0.86658E+00  8016   0.447E+00    0.910E+00
DAV:   8    -0.300486014261E+03   -0.32260E+01   -0.17115E+00  8176   0.222E+00    0.333E+00
DAV:   9    -0.300869942598E+03   -0.38393E+00   -0.42535E-01  9040   0.101E+00    0.148E+00
DAV:  10    -0.300980572841E+03   -0.11063E+00   -0.10002E-01  8144   0.474E-01    0.731E-01
DAV:  11    -0.301012410664E+03   -0.31838E-01   -0.36435E-02  8904   0.281E-01    0.285E-01
DAV:  12    -0.301015755674E+03   -0.33450E-02   -0.46295E-03  8520   0.119E-01    0.103E-01
DAV:  13    -0.301015868387E+03   -0.11271E-03   -0.60102E-04  9864   0.378E-02    0.407E-02
DAV:  14    -0.301015884208E+03   -0.15822E-04   -0.87474E-05  8232   0.182E-02    0.158E-02
DAV:  15    -0.301015886924E+03   -0.27160E-05   -0.13448E-05  8600   0.793E-03    0.750E-03
DAV:  16    -0.301015887620E+03   -0.69627E-06   -0.14445E-06  4896   0.256E-03
   1 F= -.30101589E+03 E0= -.30101589E+03  d E =-.844399E-12  mag=     0.0004
