 running  128 mpi-ranks, with    1 threads/rank, on    2 nodes
 distrk:  each k-point on   64 cores,    2 groups
 distr:  one band on    8 cores,    8 groups
 vasp.6.4.2 20Jul23 (build Oct 12 2023 10:31:02) complex                         
 POSCAR found type information on POSCAR GeSe
 POSCAR found :  2 types and      72 ions
 Reading from existing POTCAR
 -----------------------------------------------------------------------------
|                                                                             |
|           W    W    AA    RRRRR   N    N  II  N    N   GGGG   !!!           |
|           W    W   A  A   R    R  NN   N  II  NN   N  G    G  !!!           |
|           W    W  A    A  R    R  N N  N  II  N N  N  G       !!!           |
|           W WW W  AAAAAA  RRRRR   N  N N  II  N  N N  G  GGG   !            |
|           WW  WW  A    A  R   R   N   NN  II  N   NN  G    G                |
|           W    W  A    A  R    R  N    N  II  N    N   GGGG   !!!           |
|                                                                             |
|     You use a magnetic or noncollinear calculation, but did not specify     |
|     the initial magnetic moment with the MAGMOM tag. Note that a            |
|     default of 1 will be used for all atoms. This ferromagnetic setup       |
|     may break the symmetry of the crystal, in particular it may rule        |
|     out finding an antiferromagnetic solution. Thence, we recommend         |
|     setting the initial magnetic moment manually or verifying carefully     |
|     that this magnetic setup is desired.                                    |
|                                                                             |
 -----------------------------------------------------------------------------

 scaLAPACK will be used
 Reading from existing POTCAR
 -----------------------------------------------------------------------------
|                                                                             |
|               ----> ADVICE to this user running VASP <----                  |
|                                                                             |
|     You have a (more or less) 'large supercell' and for larger cells it     |
|     might be more efficient to use real-space projection operators.         |
|     Therefore, try LREAL= Auto in the INCAR file.                           |
|     Mind: For very accurate calculation, you might also keep the            |
|     reciprocal projection scheme (i.e. LREAL=.FALSE.).                      |
|                                                                             |
 -----------------------------------------------------------------------------

 LDA part: xc-table for Pade appr. of Perdew
 -----------------------------------------------------------------------------
|                                                                             |
|           W    W    AA    RRRRR   N    N  II  N    N   GGGG   !!!           |
|           W    W   A  A   R    R  NN   N  II  NN   N  G    G  !!!           |
|           W    W  A    A  R    R  N N  N  II  N N  N  G       !!!           |
|           W WW W  AAAAAA  RRRRR   N  N N  II  N  N N  G  GGG   !            |
|           WW  WW  A    A  R   R   N   NN  II  N   NN  G    G                |
|           W    W  A    A  R    R  N    N  II  N    N   GGGG   !!!           |
|                                                                             |
|     The number of bands has been changed from the values supplied in        |
|     the INCAR file. This is a result of running the parallel version.       |
|     The orbitals not found in the WAVECAR file will be initialized with     |
|     random numbers, which is usually adequate. For correlated               |
|     calculations, however, you should redo the groundstate calculation.     |
|     I found NBANDS = 220. Now, NBANDS = 224.                                |
|                                                                             |
 -----------------------------------------------------------------------------

 POSCAR, INCAR and KPOINTS ok, starting setup
 FFT: planning ... GRIDC
 FFT: planning ... GRID_SOFT
 FFT: planning ... GRID
 WAVECAR not read
 WARNING: random wavefunctions but no delay for mixing, default for NELMDL
 entering main loop
       N       E                     dE             d eps       ncg     rms          rms(c)
DAV:   1     0.181615164428E+04    0.18162E+04   -0.14186E+05  7168   0.135E+03
DAV:   2    -0.649007142293E+02   -0.18811E+04   -0.18054E+04  8520   0.205E+02
DAV:   3    -0.281938793974E+03   -0.21704E+03   -0.21123E+03  8624   0.692E+01
DAV:   4    -0.289711373513E+03   -0.77726E+01   -0.76886E+01  8728   0.130E+01
DAV:   5    -0.290004378901E+03   -0.29301E+00   -0.29225E+00  9072   0.213E+00    0.292E+01
DAV:   6    -0.289601742211E+03    0.40264E+00   -0.26685E+01  7968   0.765E+00    0.173E+01
DAV:   7    -0.296949839580E+03   -0.73481E+01   -0.86341E+00  8056   0.447E+00    0.910E+00
DAV:   8    -0.300177091018E+03   -0.32273E+01   -0.17236E+00  8160   0.225E+00    0.334E+00
DAV:   9    -0.300556036166E+03   -0.37895E+00   -0.42229E-01  9096   0.100E+00    0.148E+00
DAV:  10    -0.300664240346E+03   -0.10820E+00   -0.96186E-02  8168   0.468E-01    0.729E-01
DAV:  11    -0.300695990608E+03   -0.31750E-01   -0.36460E-02  8944   0.282E-01    0.289E-01
DAV:  12    -0.300699310122E+03   -0.33195E-02   -0.44844E-03  8568   0.118E-01    0.110E-01
DAV:  13    -0.300699442138E+03   -0.13202E-03   -0.66087E-04  9784   0.396E-02    0.449E-02
DAV:  14    -0.300699458889E+03   -0.16751E-04   -0.91831E-05  8344   0.189E-02    0.173E-02
DAV:  15    -0.300699461864E+03   -0.29751E-05   -0.16403E-05  8576   0.848E-03    0.781E-03
DAV:  16    -0.300699462498E+03   -0.63397E-06   -0.15566E-06  4952   0.276E-03
   1 F= -.30069946E+03 E0= -.30069946E+03  d E =-.889320E-11  mag=     0.0004
