 vasp.6.4.2 20Jul23 (build Oct 12 2023 10:31:02) complex                         
 executed on              LinuxNV date 2025.05.18  23:44:39
 running  160 mpi-ranks, with    1 threads/rank, on   10 nodes
 distrk:  each k-point on   80 cores,    2 groups
 distr:  one band on NCORE=   5 cores,   16 groups


--------------------------------------------------------------------------------------------------------


 INCAR:
   ENCUT = 360.000000
   SIGMA = 0.050000
   EDIFF = 1.00e-06
   ALGO = Normal
   GGA = PE
   PREC = Normal
   SYSTEM = ./
   ICHARG = 2
   ISMEAR = 0
   ISPIN = 1
   ISTART = 0
   ISYM = 0
   KPAR = 2
   LMAXMIX = 4
   NELM = 100
   NPAR = 16
   LASPH = .TRUE.
   LCHARG = .FALSE.
   LWAVE = .FALSE.

 POTCAR:    PAW_PBE Ge 05Jan2001                  
 POTCAR:    PAW_PBE Se 06Sep2000                  
 POTCAR:    PAW_PBE Ge 05Jan2001                  
   VRHFIN =Ge: s2p2                                                                                 
   LEXCH  = PE                                                                                      
   EATOM  =   104.9960 eV,    7.7170 Ry                                                             
                                                                                                    
   TITEL  = PAW_PBE Ge 05Jan2001                                                                    
   LULTRA =        F    use ultrasoft PP ?                                                          
   IUNSCR =        1    unscreen: 0-lin 1-nonlin 2-no                                               
   RPACOR =    2.170    partial core radius                                                         
   POMASS =   72.610; ZVAL   =    4.000    mass and valenz                                          
   RCORE  =    2.300    outmost cutoff radius                                                       
   RWIGS  =    2.300; RWIGS  =    1.217    wigner-seitz radius (au A)                               
   ENMAX  =  173.807; ENMIN  =  130.355 eV                                                          
   ICORE  =        3    local potential                                                             
   LCOR   =        T    correct aug charges                                                         
   LPAW   =        T    paw PP                                                                      
   EAUG   =  385.843                                                                                
   DEXC   =    0.000                                                                                
   RMAX   =    2.342    core radius for proj-oper                                                   
   RAUG   =    1.300    factor for augmentation sphere                                              
   RDEP   =    2.318    radius for radial grids                                                     
   RDEPT  =    2.103    core radius for aug-charge                                                  
                                                                                                    
   Atomic configuration                                                                             
   10 entries                                                                                       
     n  l   j            E        occ.                                                              
     1  0  0.50    -10959.8463   2.0000                                                             
     2  0  0.50     -1371.6056   2.0000                                                             
     2  1  1.50     -1198.4791   6.0000                                                             
     3  0  0.50      -168.4733   2.0000                                                             
     3  1  1.50      -115.6019   6.0000                                                             
     3  2  2.50       -29.3106  10.0000                                                             
     4  0  0.50       -11.7309   2.0000                                                             
     4  1  0.50        -3.8952   2.0000                                                             
     4  2  1.50        -4.0817   0.0000                                                             
     4  3  2.50        -4.0817   0.0000                                                             
   Description                                                                                      
     l       E           TYP  RCUT    TYP  RCUT                                                     
     0    -11.7309493     23  2.300                                                                 
     0     -7.4578696     23  2.300                                                                 
     1     -3.8952261     23  2.300                                                                 
     1      6.1178114     23  2.300                                                                 
     2     -4.0817478     23  2.300                                                                 
     3     -1.3605826      7  2.300                                                                 
  local pseudopotential read in
  partial core-charges read in
  partial kinetic energy density read in
  atomic valenz-charges read in
  non local Contribution for L=            0  read in
    real space projection operators read in
  non local Contribution for L=            0  read in
    real space projection operators read in
  non local Contribution for L=            1  read in
    real space projection operators read in
  non local Contribution for L=            1  read in
    real space projection operators read in
  non local Contribution for L=            2  read in
    real space projection operators read in
    PAW grid and wavefunctions read in
 
   number of l-projection  operators is LMAX  =            5
   number of lm-projection operators is LMMAX =           13
 
 POTCAR:    PAW_PBE Se 06Sep2000                  
   VRHFIN =Se: s2p4                                                                                 
   LEXCH  = PE                                                                                      
   EATOM  =   257.1286 eV,   18.8984 Ry                                                             
                                                                                                    
   TITEL  = PAW_PBE Se 06Sep2000                                                                    
   LULTRA =        F    use ultrasoft PP ?                                                          
   IUNSCR =        1    unscreen: 0-lin 1-nonlin 2-no                                               
   RPACOR =    1.900    partial core radius                                                         
   POMASS =   78.960; ZVAL   =    6.000    mass and valenz                                          
   RCORE  =    2.100    outmost cutoff radius                                                       
   RWIGS  =    2.200; RWIGS  =    1.164    wigner-seitz radius (au A)                               
   ENMAX  =  211.555; ENMIN  =  158.666 eV                                                          
   ICORE  =        3    local potential                                                             
   LCOR   =        T    correct aug charges                                                         
   LPAW   =        T    paw PP                                                                      
   EAUG   =  446.842                                                                                
   DEXC   =    0.000                                                                                
   RMAX   =    2.147    core radius for proj-oper                                                   
   RAUG   =    1.300    factor for augmentation sphere                                              
   RDEP   =    2.177    radius for radial grids                                                     
   RDEPT  =    1.928    core radius for aug-charge                                                  
                                                                                                    
   Atomic configuration                                                                             
   10 entries                                                                                       
     n  l   j            E        occ.                                                              
     1  0  0.50    -12503.4787   2.0000                                                             
     2  0  0.50     -1606.9547   2.0000                                                             
     2  1  1.50     -1413.3140   6.0000                                                             
     3  0  0.50      -213.4885   2.0000                                                             
     3  1  1.50      -152.9538   6.0000                                                             
     3  2  2.50       -53.1221  10.0000                                                             
     4  0  0.50       -17.2865   2.0000                                                             
     4  1  0.50        -6.5110   4.0000                                                             
     4  2  2.50        -6.8029   0.0000                                                             
     4  3  2.50        -6.8029   0.0000                                                             
   Description                                                                                      
     l       E           TYP  RCUT    TYP  RCUT                                                     
     0    -17.2865377     23  2.100                                                                 
     0    -15.3094411     23  2.100                                                                 
     1     -6.5110275     23  2.100                                                                 
     1     -0.0695192     23  2.100                                                                 
     2     -6.8029130     23  2.100                                                                 
     3     -1.3605826      7  2.100                                                                 
  local pseudopotential read in
  partial core-charges read in
  partial kinetic energy density read in
  atomic valenz-charges read in
  non local Contribution for L=            0  read in
    real space projection operators read in
  non local Contribution for L=            0  read in
    real space projection operators read in
  non local Contribution for L=            1  read in
    real space projection operators read in
  non local Contribution for L=            1  read in
    real space projection operators read in
  non local Contribution for L=            2  read in
    real space projection operators read in
    PAW grid and wavefunctions read in
 
   number of l-projection  operators is LMAX  =            5
   number of lm-projection operators is LMMAX =           13
 
  PAW_PBE Ge 05Jan2001                  :
 energy of atom  1       EATOM= -104.9960
 kinetic energy error for atom=    0.0005 (will be added to EATOM!!)
  PAW_PBE Se 06Sep2000                  :
 energy of atom  2       EATOM= -257.1286
 kinetic energy error for atom=    0.0030 (will be added to EATOM!!)
 
 
 POSCAR: Ge Se
  positions in cartesian coordinates
  No initial velocities read in
 exchange correlation table for  LEXCH =        8
   RHO(1)=    0.500       N(1)  =     2000
   RHO(2)=  100.500       N(2)  =     4000
 


--------------------------------------------------------------------------------------------------------


 ion  position               nearest neighbor table
   1  0.250  0.937  0.132-   5 2.59   6 2.60   6 2.60
   2  0.750  0.437  0.368-   6 2.59   5 2.60   5 2.60
   3  0.750  0.904  0.868-   7 2.59   8 2.60   8 2.60
   4  0.250  0.404  0.632-   8 2.59   7 2.60   7 2.60
   5  0.250  0.820  0.351-   1 2.59   2 2.60   2 2.60
   6  0.750  0.320  0.149-   2 2.59   1 2.60   1 2.60
   7  0.750  0.021  0.649-   3 2.59   4 2.60   4 2.60
   8  0.250  0.521  0.851-   4 2.59   3 2.60   3 2.60
 

IMPORTANT INFORMATION: All symmetrisations will be switched off!
NOSYMM: (Re-)initialisation of all symmetry stuff for point group C_1.


----------------------------------------------------------------------------------------

                                     Primitive cell                                     

  volume of cell :     202.3233

  direct lattice vectors                    reciprocal lattice vectors
     3.858100176  0.000000000  0.000000000     0.259194929  0.000000000  0.000000000
     0.000000000  4.526575088  0.000000000     0.000000000  0.220917577  0.000000000
     0.000000000  0.000000000 11.585176468     0.000000000  0.000000000  0.086317200

  length of vectors
     3.858100176  4.526575088 11.585176468     0.259194929  0.220917577  0.086317200

  position of ions in fractional coordinates (direct lattice)
     0.250000003  0.936823067  0.131971745
     0.749999967  0.436823055  0.368028228
     0.749999855  0.903756548  0.868028249
     0.249999781  0.403756501  0.631971759
     0.249999987  0.820045415  0.351109927
     0.750000003  0.320045436  0.148890049
     0.749999761  0.020534152  0.648890076
     0.249999838  0.520534176  0.851109946

  ion indices of the primitive-cell ions
   primitive index   ion index
                 1           1
                 2           2
                 3           3
                 4           4
                 5           5
                 6           6
                 7           7
                 8           8

----------------------------------------------------------------------------------------

 
 
 KPOINTS: KPOINTS created by Atomic Simulation Env

Automatic generation of k-mesh.
 Grid dimensions read from file:
 generate k-points for:    6    6    2

 Generating k-lattice:

  Cartesian coordinates                     Fractional coordinates (reciprocal lattice)
     0.043199155  0.000000000  0.000000000     0.166666667  0.000000000  0.000000000
     0.000000000  0.036819596  0.000000000     0.000000000  0.166666667  0.000000000
     0.000000000  0.000000000  0.043158600     0.000000000  0.000000000  0.500000000

  Length of vectors
     0.043199155  0.036819596  0.043158600

  Shift w.r.t. Gamma in fractional coordinates (k-lattice)
     0.000000000  0.000000000  0.000000000

 
 Subroutine IBZKPT returns following result:
 ===========================================
 
 Found     40 irreducible k-points:
 
 Following reciprocal coordinates:
            Coordinates               Weight
  0.000000  0.000000  0.000000      1.000000
  0.166667  0.000000  0.000000      2.000000
  0.333333  0.000000  0.000000      2.000000
  0.500000  0.000000  0.000000      1.000000
  0.000000  0.166667  0.000000      2.000000
  0.166667  0.166667  0.000000      2.000000
  0.166667 -0.166667  0.000000      2.000000
  0.333333  0.166667  0.000000      2.000000
  0.333333 -0.166667  0.000000      2.000000
  0.500000  0.166667  0.000000      2.000000
  0.000000  0.333333  0.000000      2.000000
  0.166667  0.333333  0.000000      2.000000
  0.166667 -0.333333  0.000000      2.000000
  0.333333  0.333333  0.000000      2.000000
  0.333333 -0.333333  0.000000      2.000000
  0.500000  0.333333  0.000000      2.000000
  0.000000  0.500000  0.000000      1.000000
  0.166667  0.500000  0.000000      2.000000
  0.333333  0.500000  0.000000      2.000000
  0.500000  0.500000  0.000000      1.000000
  0.000000  0.000000  0.500000      1.000000
  0.166667  0.000000  0.500000      2.000000
  0.333333  0.000000  0.500000      2.000000
  0.500000  0.000000  0.500000      1.000000
  0.000000  0.166667  0.500000      2.000000
  0.166667  0.166667  0.500000      2.000000
  0.166667 -0.166667  0.500000      2.000000
  0.333333  0.166667  0.500000      2.000000
  0.333333 -0.166667  0.500000      2.000000
  0.500000  0.166667  0.500000      2.000000
  0.000000  0.333333  0.500000      2.000000
  0.166667  0.333333  0.500000      2.000000
  0.166667 -0.333333  0.500000      2.000000
  0.333333  0.333333  0.500000      2.000000
  0.333333 -0.333333  0.500000      2.000000
  0.500000  0.333333  0.500000      2.000000
  0.000000  0.500000  0.500000      1.000000
  0.166667  0.500000  0.500000      2.000000
  0.333333  0.500000  0.500000      2.000000
  0.500000  0.500000  0.500000      1.000000
 
 Following cartesian coordinates:
            Coordinates               Weight
  0.000000  0.000000  0.000000      1.000000
  0.043199  0.000000  0.000000      2.000000
  0.086398  0.000000  0.000000      2.000000
  0.129597  0.000000  0.000000      1.000000
  0.000000  0.036820  0.000000      2.000000
  0.043199  0.036820  0.000000      2.000000
  0.043199 -0.036820  0.000000      2.000000
  0.086398  0.036820  0.000000      2.000000
  0.086398 -0.036820  0.000000      2.000000
  0.129597  0.036820  0.000000      2.000000
  0.000000  0.073639  0.000000      2.000000
  0.043199  0.073639  0.000000      2.000000
  0.043199 -0.073639  0.000000      2.000000
  0.086398  0.073639  0.000000      2.000000
  0.086398 -0.073639  0.000000      2.000000
  0.129597  0.073639  0.000000      2.000000
  0.000000  0.110459  0.000000      1.000000
  0.043199  0.110459  0.000000      2.000000
  0.086398  0.110459  0.000000      2.000000
  0.129597  0.110459  0.000000      1.000000
  0.000000  0.000000  0.043159      1.000000
  0.043199  0.000000  0.043159      2.000000
  0.086398  0.000000  0.043159      2.000000
  0.129597  0.000000  0.043159      1.000000
  0.000000  0.036820  0.043159      2.000000
  0.043199  0.036820  0.043159      2.000000
  0.043199 -0.036820  0.043159      2.000000
  0.086398  0.036820  0.043159      2.000000
  0.086398 -0.036820  0.043159      2.000000
  0.129597  0.036820  0.043159      2.000000
  0.000000  0.073639  0.043159      2.000000
  0.043199  0.073639  0.043159      2.000000
  0.043199 -0.073639  0.043159      2.000000
  0.086398  0.073639  0.043159      2.000000
  0.086398 -0.073639  0.043159      2.000000
  0.129597  0.073639  0.043159      2.000000
  0.000000  0.110459  0.043159      1.000000
  0.043199  0.110459  0.043159      2.000000
  0.086398  0.110459  0.043159      2.000000
  0.129597  0.110459  0.043159      1.000000
 


--------------------------------------------------------------------------------------------------------




 Dimension of arrays:
   k-points           NKPTS =     40   k-points in BZ     NKDIM =     40   number of bands    NBANDS=     32
   number of dos      NEDOS =    301   number of ions     NIONS =      8
   non local maximal  LDIM  =      5   non local SUM 2l+1 LMDIM =     13
   total plane-waves  NPLWV =  23328
   max r-space proj   IRMAX =      1   max aug-charges    IRDMAX=   6465
   dimension x,y,z NGX =    18 NGY =   24 NGZ =   54
   dimension x,y,z NGXF=    36 NGYF=   48 NGZF=  108
   support grid    NGXF=    36 NGYF=   48 NGZF=  108
   ions per type =               4   4
   NGX,Y,Z   is equivalent  to a cutoff of   7.76,  8.81,  7.75 a.u.
   NGXF,Y,Z  is equivalent  to a cutoff of  15.51, 17.63, 15.50 a.u.

 SYSTEM =  ./                                      
 POSCAR =  Ge Se                                   

 Startparameter for this run:
   NWRITE =      2    write-flag & timer
   PREC   = normal    normal or accurate (medium, high low for compatibility)
   ISTART =      0    job   : 0-new  1-cont  2-samecut
   ICHARG =      2    charge: 1-file 2-atom 10-const
   ISPIN  =      1    spin polarized calculation?
   LNONCOLLINEAR =      F non collinear calculations
   LSORBIT =      F    spin-orbit coupling
   INIWAV =      1    electr: 0-lowe 1-rand  2-diag
   LASPH  =      T    aspherical Exc in radial PAW
 Electronic Relaxation 1
   ENCUT  =  360.0 eV  26.46 Ry    5.14 a.u.   5.97  7.00 17.92*2*pi/ulx,y,z
   ENINI  =  360.0     initial cutoff
   ENAUG  =  446.8 eV  augmentation charge cutoff
   NELM   =    100;   NELMIN=  2; NELMDL= -5     # of ELM steps 
   EDIFF  = 0.1E-05   stopping-criterion for ELM
   LREAL  =      F    real-space projection
   NLSPLINE    = F    spline interpolate recip. space projectors
   LCOMPAT=      F    compatible to vasp.4.4
   GGA_COMPAT  = T    GGA compatible to vasp.4.4-vasp.4.6
   LMAXPAW     = -100 max onsite density
   LMAXMIX     =    4 max onsite mixed and CHGCAR
   VOSKOWN=      0    Vosko Wilk Nusair interpolation
   ROPT   =    0.00000   0.00000
 Ionic relaxation
   EDIFFG = 0.1E-04   stopping-criterion for IOM
   NSW    =      0    number of steps for IOM
   NBLOCK =      1;   KBLOCK =      1    inner block; outer block 
   IBRION =     -1    ionic relax: 0-MD 1-quasi-New 2-CG
   NFREE  =      0    steps in history (QN), initial steepest desc. (CG)
   ISIF   =      2    stress and relaxation
   IWAVPR =     10    prediction:  0-non 1-charg 2-wave 3-comb
   ISYM   =      0    0-nonsym 1-usesym 2-fastsym
   LCORR  =      T    Harris-Foulkes like correction to forces

   POTIM  = 0.5000    time-step for ionic-motion
   TEIN   =    0.0    initial temperature
   TEBEG  =    0.0;   TEEND  =   0.0 temperature during run
   SMASS  =  -3.00    Nose mass-parameter (am)
   estimated Nose-frequenzy (Omega)   =  0.10E-29 period in steps = 0.13E+47 mass=  -0.340E-27a.u.
   SCALEE = 1.0000    scale energy and forces
   NPACO  =    256;   APACO  = 10.0  distance and # of slots for P.C.
   PSTRESS=    0.0 pullay stress

  Mass of Ions in am
   POMASS =  72.61 78.96
  Ionic Valenz
   ZVAL   =   4.00  6.00
  Atomic Wigner-Seitz radii
   RWIGS  =  -1.00 -1.00
  virtual crystal weights 
   VCA    =   1.00  1.00
   NELECT =      40.0000    total number of electrons
   NUPDOWN=      -1.0000    fix difference up-down

 DOS related values:
   EMIN   =  10.00;   EMAX   =-10.00  energy-range for DOS
   EFERMI =   0.00;   METHOD = LEGACY      
   ISMEAR =     0;   SIGMA  =   0.05  broadening in eV -4-tet -1-fermi 0-gaus

 Electronic relaxation 2 (details)
   IALGO  =     38    algorithm
   LDIAG  =      T    sub-space diagonalisation (order eigenvalues)
   LSUBROT=      F    optimize rotation matrix (better conditioning)
   TURBO    =      0    0=normal 1=particle mesh
   IRESTART =      0    0=no restart 2=restart with 2 vectors
   NREBOOT  =      0    no. of reboots
   NMIN     =      0    reboot dimension
   EREF     =   0.00    reference energy to select bands
   IMIX   =      4    mixing-type and parameters
     AMIX     =   0.40;   BMIX     =  1.00
     AMIX_MAG =   1.60;   BMIX_MAG =  1.00
     AMIN     =   0.10
     WC   =   100.;   INIMIX=   1;  MIXPRE=   1;  MAXMIX= -45

 Intra band minimization:
   WEIMIN = 0.0000     energy-eigenvalue tresh-hold
   EBREAK =  0.78E-08  absolut break condition
   DEPER  =   0.30     relativ break condition  

   TIME   =   0.40     timestep for ELM

  volume/ion in A,a.u.               =      25.29       170.67
  Fermi-wavevector in a.u.,A,eV,Ry     =   0.953702  1.802236 12.375155  0.909548
  Thomas-Fermi vector in A             =   2.082382
 
 Write flags
   LWAVE        =      F    write WAVECAR
   LDOWNSAMPLE  =      F    k-point downsampling of WAVECAR
   LCHARG       =      F    write CHGCAR
   LVTOT        =      F    write LOCPOT, total local potential
   LVHAR        =      F    write LOCPOT, Hartree potential only
   LELF         =      F    write electronic localiz. function (ELF)
   LORBIT       =      0    0 simple, 1 ext, 2 COOP (PROOUT), +10 PAW based schemes


 Dipole corrections
   LMONO  =      F    monopole corrections only (constant potential shift)
   LDIPOL =      F    correct potential (dipole corrections)
   IDIPOL =      0    1-x, 2-y, 3-z, 4-all directions 
   EPSILON=  1.0000000 bulk dielectric constant

 Exchange correlation treatment:
   GGA     =    PE    GGA type
   LEXCH   =     8    internal setting for exchange type
   LIBXC   =     F    Libxc                    
   VOSKOWN =     0    Vosko Wilk Nusair interpolation
   LHFCALC =     F    Hartree Fock is set to
   LHFONE  =     F    Hartree Fock one center treatment
   AEXX    =    0.0000 exact exchange contribution

 Linear response parameters
   LEPSILON=     F    determine dielectric tensor
   LRPA    =     F    only Hartree local field effects (RPA)
   LNABLA  =     F    use nabla operator in PAW spheres
   LVEL    =     F    velocity operator in full k-point grid
   CSHIFT  =0.1000    complex shift for real part using Kramers Kronig
   OMEGAMAX=  -1.0    maximum frequency
   DEG_THRESHOLD= 0.2000000E-02 threshold for treating states as degnerate
   RTIME   =   -0.100 relaxation time in fs
  (WPLASMAI=    0.000 imaginary part of plasma frequency in eV, 0.658/RTIME)
   DFIELD  = 0.0000000 0.0000000 0.0000000 field for delta impulse in time
 
  Optional k-point grid parameters
   LKPOINTS_OPT  =     F    use optional k-point grid
   KPOINTS_OPT_MODE=     1    mode for optional k-point grid
 
 Orbital magnetization related:
   ORBITALMAG=     F  switch on orbital magnetization
   LCHIMAG   =     F  perturbation theory with respect to B field
   DQ        =  0.001000  dq finite difference perturbation B field
   LLRAUG    =     F  two centre corrections for induced B field
   LBONE     =     F  B-component reconstruction in AE one-centre
   LVGVCALC  =     T  calculate vGv susceptibility
   LVGVAPPL  =     F  apply vGv susceptibility instead of pGv for G=0

 Random number generation:
   RANDOM_GENERATOR = DEFAULT
   PCG_SEED         = not used


--------------------------------------------------------------------------------------------------------


 Static calculation
 charge density and potential will be updated during run
 non-spin polarized calculation
 Variant of blocked Davidson
 Davidson routine will perform the subspace rotation
 perform sub-space diagonalisation
    after iterative eigenvector-optimisation
 modified Broyden-mixing scheme, WC =      100.0
 initial mixing is a Kerker type mixing with AMIX =  0.4000 and BMIX =      1.0000
 Hartree-type preconditioning will be used
 using additional bands            12
 reciprocal scheme for non local part
 use partial core corrections
 calculate Harris-corrections to forces 
   (improved forces if not selfconsistent)
 use gradient corrections 
 use of overlap-Matrix (Vanderbilt PP)
 Gauss-broadening in eV      SIGMA  =   0.05


--------------------------------------------------------------------------------------------------------


  energy-cutoff  :      360.00
  volume of cell :      202.32
      direct lattice vectors                 reciprocal lattice vectors
     3.858100176  0.000000000  0.000000000     0.259194929  0.000000000  0.000000000
     0.000000000  4.526575088  0.000000000     0.000000000  0.220917577  0.000000000
     0.000000000  0.000000000 11.585176468     0.000000000  0.000000000  0.086317200

  length of vectors
     3.858100176  4.526575088 11.585176468     0.259194929  0.220917577  0.086317200


 
 k-points in units of 2pi/SCALE and weight: KPOINTS created by Atomic Simulation Env
   0.00000000  0.00000000  0.00000000       0.014
   0.04319915  0.00000000  0.00000000       0.028
   0.08639831  0.00000000  0.00000000       0.028
   0.12959746  0.00000000  0.00000000       0.014
   0.00000000  0.03681960  0.00000000       0.028
   0.04319915  0.03681960  0.00000000       0.028
   0.04319915 -0.03681960  0.00000000       0.028
   0.08639831  0.03681960  0.00000000       0.028
   0.08639831 -0.03681960  0.00000000       0.028
   0.12959746  0.03681960  0.00000000       0.028
   0.00000000  0.07363919  0.00000000       0.028
   0.04319915  0.07363919  0.00000000       0.028
   0.04319915 -0.07363919  0.00000000       0.028
   0.08639831  0.07363919  0.00000000       0.028
   0.08639831 -0.07363919  0.00000000       0.028
   0.12959746  0.07363919  0.00000000       0.028
   0.00000000  0.11045879  0.00000000       0.014
   0.04319915  0.11045879  0.00000000       0.028
   0.08639831  0.11045879  0.00000000       0.028
   0.12959746  0.11045879  0.00000000       0.014
   0.00000000  0.00000000  0.04315860       0.014
   0.04319915  0.00000000  0.04315860       0.028
   0.08639831  0.00000000  0.04315860       0.028
   0.12959746  0.00000000  0.04315860       0.014
   0.00000000  0.03681960  0.04315860       0.028
   0.04319915  0.03681960  0.04315860       0.028
   0.04319915 -0.03681960  0.04315860       0.028
   0.08639831  0.03681960  0.04315860       0.028
   0.08639831 -0.03681960  0.04315860       0.028
   0.12959746  0.03681960  0.04315860       0.028
   0.00000000  0.07363919  0.04315860       0.028
   0.04319915  0.07363919  0.04315860       0.028
   0.04319915 -0.07363919  0.04315860       0.028
   0.08639831  0.07363919  0.04315860       0.028
   0.08639831 -0.07363919  0.04315860       0.028
   0.12959746  0.07363919  0.04315860       0.028
   0.00000000  0.11045879  0.04315860       0.014
   0.04319915  0.11045879  0.04315860       0.028
   0.08639831  0.11045879  0.04315860       0.028
   0.12959746  0.11045879  0.04315860       0.014
 
 k-points in reciprocal lattice and weights: KPOINTS created by Atomic Simulation Env
   0.00000000  0.00000000  0.00000000       0.014
   0.16666667  0.00000000  0.00000000       0.028
   0.33333333  0.00000000  0.00000000       0.028
   0.50000000  0.00000000  0.00000000       0.014
   0.00000000  0.16666667  0.00000000       0.028
   0.16666667  0.16666667  0.00000000       0.028
   0.16666667 -0.16666667  0.00000000       0.028
   0.33333333  0.16666667  0.00000000       0.028
   0.33333333 -0.16666667  0.00000000       0.028
   0.50000000  0.16666667  0.00000000       0.028
   0.00000000  0.33333333  0.00000000       0.028
   0.16666667  0.33333333  0.00000000       0.028
   0.16666667 -0.33333333  0.00000000       0.028
   0.33333333  0.33333333  0.00000000       0.028
   0.33333333 -0.33333333  0.00000000       0.028
   0.50000000  0.33333333  0.00000000       0.028
   0.00000000  0.50000000  0.00000000       0.014
   0.16666667  0.50000000  0.00000000       0.028
   0.33333333  0.50000000  0.00000000       0.028
   0.50000000  0.50000000  0.00000000       0.014
   0.00000000  0.00000000  0.50000000       0.014
   0.16666667  0.00000000  0.50000000       0.028
   0.33333333  0.00000000  0.50000000       0.028
   0.50000000  0.00000000  0.50000000       0.014
   0.00000000  0.16666667  0.50000000       0.028
   0.16666667  0.16666667  0.50000000       0.028
   0.16666667 -0.16666667  0.50000000       0.028
   0.33333333  0.16666667  0.50000000       0.028
   0.33333333 -0.16666667  0.50000000       0.028
   0.50000000  0.16666667  0.50000000       0.028
   0.00000000  0.33333333  0.50000000       0.028
   0.16666667  0.33333333  0.50000000       0.028
   0.16666667 -0.33333333  0.50000000       0.028
   0.33333333  0.33333333  0.50000000       0.028
   0.33333333 -0.33333333  0.50000000       0.028
   0.50000000  0.33333333  0.50000000       0.028
   0.00000000  0.50000000  0.50000000       0.014
   0.16666667  0.50000000  0.50000000       0.028
   0.33333333  0.50000000  0.50000000       0.028
   0.50000000  0.50000000  0.50000000       0.014
 
 position of ions in fractional coordinates (direct lattice) 
   0.25000000  0.93682307  0.13197174
   0.74999997  0.43682305  0.36802823
   0.74999985  0.90375655  0.86802825
   0.24999978  0.40375650  0.63197176
   0.24999999  0.82004541  0.35110993
   0.75000000  0.32004544  0.14889005
   0.74999976  0.02053415  0.64889008
   0.24999984  0.52053418  0.85110995
 
 position of ions in cartesian coordinates  (Angst):
   0.96452506  4.24059996  1.52891595
   2.89357501  1.97731236  4.26367197
   2.89357457  4.09092188 10.05626045
   0.96452420  1.82763412  7.32150435
   0.96452499  3.71199715  4.06767047
   2.89357515  1.44870970  1.72491749
   2.89357421  0.09294938  7.51750603
   0.96452442  2.35623703  9.86025892
 


--------------------------------------------------------------------------------------------------------


 k-point   1 :   0.0000 0.0000 0.0000  plane waves:    3119
 k-point   2 :   0.1667 0.0000 0.0000  plane waves:    3116
 k-point   3 :   0.3333 0.0000 0.0000  plane waves:    3142
 k-point   4 :   0.5000 0.0000 0.0000  plane waves:    3148
 k-point   5 :   0.0000 0.1667 0.0000  plane waves:    3108
 k-point   6 :   0.1667 0.1667 0.0000  plane waves:    3123
 k-point   7 :   0.1667-0.1667 0.0000  plane waves:    3123
 k-point   8 :   0.3333 0.1667 0.0000  plane waves:    3135
 k-point   9 :   0.3333-0.1667 0.0000  plane waves:    3135
 k-point  10 :   0.5000 0.1667 0.0000  plane waves:    3138
 k-point  11 :   0.0000 0.3333 0.0000  plane waves:    3116
 k-point  12 :   0.1667 0.3333 0.0000  plane waves:    3133
 k-point  13 :   0.1667-0.3333 0.0000  plane waves:    3133
 k-point  14 :   0.3333 0.3333 0.0000  plane waves:    3155
 k-point  15 :   0.3333-0.3333 0.0000  plane waves:    3155
 k-point  16 :   0.5000 0.3333 0.0000  plane waves:    3152
 k-point  17 :   0.0000 0.5000 0.0000  plane waves:    3134
 k-point  18 :   0.1667 0.5000 0.0000  plane waves:    3140
 k-point  19 :   0.3333 0.5000 0.0000  plane waves:    3144
 k-point  20 :   0.5000 0.5000 0.0000  plane waves:    3144
 k-point  21 :   0.0000 0.0000 0.5000  plane waves:    3092
 k-point  22 :   0.1667 0.0000 0.5000  plane waves:    3124
 k-point  23 :   0.3333 0.0000 0.5000  plane waves:    3140
 k-point  24 :   0.5000 0.0000 0.5000  plane waves:    3132
 k-point  25 :   0.0000 0.1667 0.5000  plane waves:    3112
 k-point  26 :   0.1667 0.1667 0.5000  plane waves:    3140
 k-point  27 :   0.1667-0.1667 0.5000  plane waves:    3140
 k-point  28 :   0.3333 0.1667 0.5000  plane waves:    3134
 k-point  29 :   0.3333-0.1667 0.5000  plane waves:    3134
 k-point  30 :   0.5000 0.1667 0.5000  plane waves:    3144
 k-point  31 :   0.0000 0.3333 0.5000  plane waves:    3130
 k-point  32 :   0.1667 0.3333 0.5000  plane waves:    3148
 k-point  33 :   0.1667-0.3333 0.5000  plane waves:    3148
 k-point  34 :   0.3333 0.3333 0.5000  plane waves:    3142
 k-point  35 :   0.3333-0.3333 0.5000  plane waves:    3142
 k-point  36 :   0.5000 0.3333 0.5000  plane waves:    3152
 k-point  37 :   0.0000 0.5000 0.5000  plane waves:    3132
 k-point  38 :   0.1667 0.5000 0.5000  plane waves:    3148
 k-point  39 :   0.3333 0.5000 0.5000  plane waves:    3140
 k-point  40 :   0.5000 0.5000 0.5000  plane waves:    3160

 maximum and minimum number of plane-waves per node :       659      606

 maximum number of plane-waves:      3160
 maximum index in each direction: 
   IXMAX=    5   IYMAX=    7   IZMAX=   17
   IXMIN=   -6   IYMIN=   -7   IZMIN=  -18


 parallel 3D FFT for wavefunctions:
    minimum data exchange during FFTs selected (reduces bandwidth)
 parallel 3D FFT for charge:
    minimum data exchange during FFTs selected (reduces bandwidth)


 total amount of memory used by VASP MPI-rank0    37119. kBytes
=======================================================================

   base      :      30000. kBytes
   nonl-proj :       5406. kBytes
   fftplans  :        334. kBytes
   grid      :        503. kBytes
   one-center:         16. kBytes
   wavefun   :        860. kBytes
 
     INWAV:  cpu time      0.0000: real time      0.0001
 Broyden mixing: mesh for mixing (old mesh)
   NGX = 11   NGY = 15   NGZ = 35
  (NGX  = 36   NGY  = 48   NGZ  =108)
  gives a total of   5775 points

 initial charge density was supplied:
 charge density of overlapping atoms calculated
 number of electron      40.0000000 magnetization 
 keeping initial charge density in first step


--------------------------------------------------------------------------------------------------------


 Maximum index for augmentation-charges           132 (set IRDMAX)


--------------------------------------------------------------------------------------------------------


 First call to EWALD:  gamma=   0.302
 Maximum number of real-space cells 4x 3x 2
 Maximum number of reciprocal cells 2x 2x 5

    FEWALD:  cpu time      0.0011: real time      0.0011


--------------------------------------- Ionic step        1  -------------------------------------------




--------------------------------------- Iteration      1(   1)  ---------------------------------------


    POTLOK:  cpu time      0.0084: real time      0.0085
    SETDIJ:  cpu time      0.2229: real time      0.2234
     EDDAV:  cpu time      0.3065: real time      0.3080
       DOS:  cpu time      0.0011: real time      0.0011
    --------------------------------------------
      LOOP:  cpu time      0.5389: real time      0.5410

 eigenvalue-minimisations  :  2560
 total energy-change (2. order) : 0.1318232E+03  (-0.1286121E+04)
 number of electron      40.0000000 magnetization 
 augmentation part       40.0000000 magnetization 

 Free energy of the ion-electron system (eV)
  ---------------------------------------------------
  alpha Z        PSCENC =        83.74935623
  Ewald energy   TEWEN  =     -1385.21714717
  -Hartree energ DENC   =      -144.45092452
  -exchange      EXHF   =         0.00000000
  -V(xc)+E(xc)   XCENC  =       -33.79835707
  PAW double counting   =      1193.78262552    -1080.73714043
  entropy T*S    EENTRO =        -0.00346902
  eigenvalues    EBANDS =        50.01363293
  atomic energy  EATOM  =      1448.48460880
  Solvation  Ediel_sol  =         0.00000000
  ---------------------------------------------------
  free energy    TOTEN  =       131.82318527 eV

  energy without entropy =      131.82665429  energy(sigma->0) =      131.82491978


--------------------------------------------------------------------------------------------------------




--------------------------------------- Iteration      1(   2)  ---------------------------------------


     EDDAV:  cpu time      0.4355: real time      0.4385
       DOS:  cpu time      0.0006: real time      0.0006
    --------------------------------------------
      LOOP:  cpu time      0.4361: real time      0.4390

 eigenvalue-minimisations  :  3760
 total energy-change (2. order) :-0.1570137E+03  (-0.1523617E+03)
 number of electron      40.0000000 magnetization 
 augmentation part       40.0000000 magnetization 

 Free energy of the ion-electron system (eV)
  ---------------------------------------------------
  alpha Z        PSCENC =        83.74935623
  Ewald energy   TEWEN  =     -1385.21714717
  -Hartree energ DENC   =      -144.45092452
  -exchange      EXHF   =         0.00000000
  -V(xc)+E(xc)   XCENC  =       -33.79835707
  PAW double counting   =      1193.78262552    -1080.73714043
  entropy T*S    EENTRO =        -0.00000000
  eigenvalues    EBANDS =      -107.00350452
  atomic energy  EATOM  =      1448.48460880
  Solvation  Ediel_sol  =         0.00000000
  ---------------------------------------------------
  free energy    TOTEN  =       -25.19048316 eV

  energy without entropy =      -25.19048316  energy(sigma->0) =      -25.19048316


--------------------------------------------------------------------------------------------------------




--------------------------------------- Iteration      1(   3)  ---------------------------------------


     EDDAV:  cpu time      0.3999: real time      0.4016
       DOS:  cpu time      0.0005: real time      0.0005
    --------------------------------------------
      LOOP:  cpu time      0.4004: real time      0.4022

 eigenvalue-minimisations  :  3248
 total energy-change (2. order) :-0.8870008E+01  (-0.8852124E+01)
 number of electron      40.0000000 magnetization 
 augmentation part       40.0000000 magnetization 

 Free energy of the ion-electron system (eV)
  ---------------------------------------------------
  alpha Z        PSCENC =        83.74935623
  Ewald energy   TEWEN  =     -1385.21714717
  -Hartree energ DENC   =      -144.45092452
  -exchange      EXHF   =         0.00000000
  -V(xc)+E(xc)   XCENC  =       -33.79835707
  PAW double counting   =      1193.78262552    -1080.73714043
  entropy T*S    EENTRO =        -0.00000000
  eigenvalues    EBANDS =      -115.87351220
  atomic energy  EATOM  =      1448.48460880
  Solvation  Ediel_sol  =         0.00000000
  ---------------------------------------------------
  free energy    TOTEN  =       -34.06049084 eV

  energy without entropy =      -34.06049084  energy(sigma->0) =      -34.06049084


--------------------------------------------------------------------------------------------------------




--------------------------------------- Iteration      1(   4)  ---------------------------------------


     EDDAV:  cpu time      0.4352: real time      0.4374
       DOS:  cpu time      0.0005: real time      0.0005
    --------------------------------------------
      LOOP:  cpu time      0.4358: real time      0.4379

 eigenvalue-minimisations  :  3184
 total energy-change (2. order) :-0.6233765E-01  (-0.6233137E-01)
 number of electron      40.0000000 magnetization 
 augmentation part       40.0000000 magnetization 

 Free energy of the ion-electron system (eV)
  ---------------------------------------------------
  alpha Z        PSCENC =        83.74935623
  Ewald energy   TEWEN  =     -1385.21714717
  -Hartree energ DENC   =      -144.45092452
  -exchange      EXHF   =         0.00000000
  -V(xc)+E(xc)   XCENC  =       -33.79835707
  PAW double counting   =      1193.78262552    -1080.73714043
  entropy T*S    EENTRO =        -0.00000000
  eigenvalues    EBANDS =      -115.93584985
  atomic energy  EATOM  =      1448.48460880
  Solvation  Ediel_sol  =         0.00000000
  ---------------------------------------------------
  free energy    TOTEN  =       -34.12282849 eV

  energy without entropy =      -34.12282849  energy(sigma->0) =      -34.12282849


--------------------------------------------------------------------------------------------------------




--------------------------------------- Iteration      1(   5)  ---------------------------------------


     EDDAV:  cpu time      0.4004: real time      0.4025
       DOS:  cpu time      0.0005: real time      0.0005
    CHARGE:  cpu time      0.0057: real time      0.0058
    MIXING:  cpu time      0.0004: real time      0.0004
    --------------------------------------------
      LOOP:  cpu time      0.4070: real time      0.4092

 eigenvalue-minimisations  :  3280
 total energy-change (2. order) :-0.4261330E-03  (-0.4261265E-03)
 number of electron      39.9999962 magnetization 
 augmentation part       -7.4100527 magnetization 

 Broyden mixing:
  rms(total) = 0.64542E+00    rms(broyden)= 0.64540E+00
  rms(prec ) = 0.72694E+00
  weight for this iteration     100.00

 Free energy of the ion-electron system (eV)
  ---------------------------------------------------
  alpha Z        PSCENC =        83.74935623
  Ewald energy   TEWEN  =     -1385.21714717
  -Hartree energ DENC   =      -144.45092452
  -exchange      EXHF   =         0.00000000
  -V(xc)+E(xc)   XCENC  =       -33.79835707
  PAW double counting   =      1193.78262552    -1080.73714043
  entropy T*S    EENTRO =        -0.00000000
  eigenvalues    EBANDS =      -115.93627599
  atomic energy  EATOM  =      1448.48460880
  Solvation  Ediel_sol  =         0.00000000
  ---------------------------------------------------
  free energy    TOTEN  =       -34.12325463 eV

  energy without entropy =      -34.12325463  energy(sigma->0) =      -34.12325463


--------------------------------------------------------------------------------------------------------




--------------------------------------- Iteration      1(   6)  ---------------------------------------


    POTLOK:  cpu time      0.0077: real time      0.0079
    SETDIJ:  cpu time      0.2174: real time      0.2180
     EDDAV:  cpu time      0.3645: real time      0.3660
       DOS:  cpu time      0.0005: real time      0.0005
    CHARGE:  cpu time      0.0054: real time      0.0054
    MIXING:  cpu time      0.0005: real time      0.0005
    --------------------------------------------
      LOOP:  cpu time      0.5960: real time      0.5983

 eigenvalue-minimisations  :  3088
 total energy-change (2. order) : 0.3995328E+00  (-0.8444332E-01)
 number of electron      39.9999963 magnetization 
 augmentation part       -7.3495490 magnetization 

 Broyden mixing:
  rms(total) = 0.40595E+00    rms(broyden)= 0.40595E+00
  rms(prec ) = 0.42639E+00
  weight for this iteration     100.00

 eigenvalues of (default mixing * dielectric matrix)
  average eigenvalue GAMMA=   2.1566
  2.1566

 Free energy of the ion-electron system (eV)
  ---------------------------------------------------
  alpha Z        PSCENC =        83.74935623
  Ewald energy   TEWEN  =     -1385.21714717
  -Hartree energ DENC   =      -150.64413260
  -exchange      EXHF   =         0.00000000
  -V(xc)+E(xc)   XCENC  =       -33.17490580
  PAW double counting   =      1453.45327778    -1340.72230396
  entropy T*S    EENTRO =        -0.00000000
  eigenvalues    EBANDS =      -109.65247506
  atomic energy  EATOM  =      1448.48460880
  Solvation  Ediel_sol  =         0.00000000
  ---------------------------------------------------
  free energy    TOTEN  =       -33.72372178 eV

  energy without entropy =      -33.72372178  energy(sigma->0) =      -33.72372178


--------------------------------------------------------------------------------------------------------




--------------------------------------- Iteration      1(   7)  ---------------------------------------


    POTLOK:  cpu time      0.0076: real time      0.0077
    SETDIJ:  cpu time      0.2204: real time      0.2211
     EDDAV:  cpu time      0.3425: real time      0.3439
       DOS:  cpu time      0.0005: real time      0.0005
    CHARGE:  cpu time      0.0053: real time      0.0053
    MIXING:  cpu time      0.0005: real time      0.0005
    --------------------------------------------
      LOOP:  cpu time      0.5768: real time      0.5790

 eigenvalue-minimisations  :  2912
 total energy-change (2. order) : 0.9351680E-02  (-0.2287580E-01)
 number of electron      39.9999963 magnetization 
 augmentation part       -7.3342069 magnetization 

 Broyden mixing:
  rms(total) = 0.13218E+00    rms(broyden)= 0.13217E+00
  rms(prec ) = 0.14079E+00
  weight for this iteration     100.00

 eigenvalues of (default mixing * dielectric matrix)
  average eigenvalue GAMMA=   1.7802
  1.1889  2.3716

 Free energy of the ion-electron system (eV)
  ---------------------------------------------------
  alpha Z        PSCENC =        83.74935623
  Ewald energy   TEWEN  =     -1385.21714717
  -Hartree energ DENC   =      -153.39812049
  -exchange      EXHF   =         0.00000000
  -V(xc)+E(xc)   XCENC  =       -32.70084838
  PAW double counting   =      1769.08748592    -1656.58163083
  entropy T*S    EENTRO =        -0.00000000
  eigenvalues    EBANDS =      -107.13807419
  atomic energy  EATOM  =      1448.48460880
  Solvation  Ediel_sol  =         0.00000000
  ---------------------------------------------------
  free energy    TOTEN  =       -33.71437010 eV

  energy without entropy =      -33.71437010  energy(sigma->0) =      -33.71437010


--------------------------------------------------------------------------------------------------------




--------------------------------------- Iteration      1(   8)  ---------------------------------------


    POTLOK:  cpu time      0.0078: real time      0.0080
    SETDIJ:  cpu time      0.2209: real time      0.2213
     EDDAV:  cpu time      0.3703: real time      0.3722
       DOS:  cpu time      0.0006: real time      0.0006
    CHARGE:  cpu time      0.0055: real time      0.0055
    MIXING:  cpu time      0.0005: real time      0.0005
    --------------------------------------------
      LOOP:  cpu time      0.6055: real time      0.6081

 eigenvalue-minimisations  :  2944
 total energy-change (2. order) : 0.1614880E-02  (-0.2302886E-02)
 number of electron      39.9999963 magnetization 
 augmentation part       -7.3425571 magnetization 

 Broyden mixing:
  rms(total) = 0.18091E-01    rms(broyden)= 0.18090E-01
  rms(prec ) = 0.21957E-01
  weight for this iteration     100.00

 eigenvalues of (default mixing * dielectric matrix)
  average eigenvalue GAMMA=   1.6863
  2.5148  1.2721  1.2721

 Free energy of the ion-electron system (eV)
  ---------------------------------------------------
  alpha Z        PSCENC =        83.74935623
  Ewald energy   TEWEN  =     -1385.21714717
  -Hartree energ DENC   =      -153.55481648
  -exchange      EXHF   =         0.00000000
  -V(xc)+E(xc)   XCENC  =       -32.55331995
  PAW double counting   =      1908.52309373    -1796.07622625
  entropy T*S    EENTRO =        -0.00000000
  eigenvalues    EBANDS =      -107.06830413
  atomic energy  EATOM  =      1448.48460880
  Solvation  Ediel_sol  =         0.00000000
  ---------------------------------------------------
  free energy    TOTEN  =       -33.71275522 eV

  energy without entropy =      -33.71275522  energy(sigma->0) =      -33.71275522


--------------------------------------------------------------------------------------------------------




--------------------------------------- Iteration      1(   9)  ---------------------------------------


    POTLOK:  cpu time      0.0077: real time      0.0078
    SETDIJ:  cpu time      0.2212: real time      0.2217
     EDDAV:  cpu time      0.3935: real time      0.3953
       DOS:  cpu time      0.0005: real time      0.0005
    CHARGE:  cpu time      0.0055: real time      0.0055
    MIXING:  cpu time      0.0005: real time      0.0005
    --------------------------------------------
      LOOP:  cpu time      0.6289: real time      0.6314

 eigenvalue-minimisations  :  3312
 total energy-change (2. order) :-0.3132500E-03  (-0.3556733E-03)
 number of electron      39.9999963 magnetization 
 augmentation part       -7.3406835 magnetization 

 Broyden mixing:
  rms(total) = 0.69228E-02    rms(broyden)= 0.69227E-02
  rms(prec ) = 0.76575E-02
  weight for this iteration     100.00

 eigenvalues of (default mixing * dielectric matrix)
  average eigenvalue GAMMA=   1.7502
  2.3318  2.3318  1.1687  1.1687

 Free energy of the ion-electron system (eV)
  ---------------------------------------------------
  alpha Z        PSCENC =        83.74935623
  Ewald energy   TEWEN  =     -1385.21714717
  -Hartree energ DENC   =      -153.94194600
  -exchange      EXHF   =         0.00000000
  -V(xc)+E(xc)   XCENC  =       -32.50859095
  PAW double counting   =      1923.83311087    -1811.39678517
  entropy T*S    EENTRO =        -0.00000000
  eigenvalues    EBANDS =      -106.71567508
  atomic energy  EATOM  =      1448.48460880
  Solvation  Ediel_sol  =         0.00000000
  ---------------------------------------------------
  free energy    TOTEN  =       -33.71306847 eV

  energy without entropy =      -33.71306847  energy(sigma->0) =      -33.71306847


--------------------------------------------------------------------------------------------------------




--------------------------------------- Iteration      1(  10)  ---------------------------------------


    POTLOK:  cpu time      0.0079: real time      0.0081
    SETDIJ:  cpu time      0.2204: real time      0.2210
     EDDAV:  cpu time      0.3610: real time      0.3631
       DOS:  cpu time      0.0005: real time      0.0005
    CHARGE:  cpu time      0.0054: real time      0.0054
    MIXING:  cpu time      0.0005: real time      0.0005
    --------------------------------------------
      LOOP:  cpu time      0.5957: real time      0.5985

 eigenvalue-minimisations  :  3056
 total energy-change (2. order) :-0.1062553E-03  (-0.2876157E-04)
 number of electron      39.9999963 magnetization 
 augmentation part       -7.3406265 magnetization 

 Broyden mixing:
  rms(total) = 0.25026E-02    rms(broyden)= 0.25026E-02
  rms(prec ) = 0.29779E-02
  weight for this iteration     100.00

 eigenvalues of (default mixing * dielectric matrix)
  average eigenvalue GAMMA=   1.7452
  2.7070  2.4490  1.1563  1.2069  1.2069

 Free energy of the ion-electron system (eV)
  ---------------------------------------------------
  alpha Z        PSCENC =        83.74935623
  Ewald energy   TEWEN  =     -1385.21714717
  -Hartree energ DENC   =      -153.97337276
  -exchange      EXHF   =         0.00000000
  -V(xc)+E(xc)   XCENC  =       -32.50574185
  PAW double counting   =      1916.38441827    -1803.94238512
  entropy T*S    EENTRO =        -0.00000000
  eigenvalues    EBANDS =      -106.69291113
  atomic energy  EATOM  =      1448.48460880
  Solvation  Ediel_sol  =         0.00000000
  ---------------------------------------------------
  free energy    TOTEN  =       -33.71317473 eV

  energy without entropy =      -33.71317473  energy(sigma->0) =      -33.71317473


--------------------------------------------------------------------------------------------------------




--------------------------------------- Iteration      1(  11)  ---------------------------------------


    POTLOK:  cpu time      0.0075: real time      0.0077
    SETDIJ:  cpu time      0.2214: real time      0.2219
     EDDAV:  cpu time      0.3859: real time      0.3875
       DOS:  cpu time      0.0006: real time      0.0006
    CHARGE:  cpu time      0.0056: real time      0.0056
    MIXING:  cpu time      0.0005: real time      0.0005
    --------------------------------------------
      LOOP:  cpu time      0.6215: real time      0.6237

 eigenvalue-minimisations  :  3024
 total energy-change (2. order) :-0.2818375E-04  (-0.3674142E-05)
 number of electron      39.9999963 magnetization 
 augmentation part       -7.3407953 magnetization 

 Broyden mixing:
  rms(total) = 0.12117E-02    rms(broyden)= 0.12117E-02
  rms(prec ) = 0.13352E-02
  weight for this iteration     100.00

 eigenvalues of (default mixing * dielectric matrix)
  average eigenvalue GAMMA=   1.7181
  2.4583  2.4583  2.1231  1.1710  1.1710  0.9268

 Free energy of the ion-electron system (eV)
  ---------------------------------------------------
  alpha Z        PSCENC =        83.74935623
  Ewald energy   TEWEN  =     -1385.21714717
  -Hartree energ DENC   =      -154.00431396
  -exchange      EXHF   =         0.00000000
  -V(xc)+E(xc)   XCENC  =       -32.49897036
  PAW double counting   =      1918.20831044    -1805.76674712
  entropy T*S    EENTRO =        -0.00000000
  eigenvalues    EBANDS =      -106.66829977
  atomic energy  EATOM  =      1448.48460880
  Solvation  Ediel_sol  =         0.00000000
  ---------------------------------------------------
  free energy    TOTEN  =       -33.71320291 eV

  energy without entropy =      -33.71320291  energy(sigma->0) =      -33.71320291


--------------------------------------------------------------------------------------------------------




--------------------------------------- Iteration      1(  12)  ---------------------------------------


    POTLOK:  cpu time      0.0076: real time      0.0077
    SETDIJ:  cpu time      0.2202: real time      0.2209
     EDDAV:  cpu time      0.3959: real time      0.3974
       DOS:  cpu time      0.0006: real time      0.0006
    --------------------------------------------
      LOOP:  cpu time      0.6243: real time      0.6266

 eigenvalue-minimisations  :  3232
 total energy-change (2. order) :-0.7004622E-06  (-0.5519084E-06)
 number of electron      39.9999963 magnetization 
 augmentation part       -7.3407953 magnetization 

 Free energy of the ion-electron system (eV)
  ---------------------------------------------------
  alpha Z        PSCENC =        83.74935623
  Ewald energy   TEWEN  =     -1385.21714717
  -Hartree energ DENC   =      -154.01674421
  -exchange      EXHF   =         0.00000000
  -V(xc)+E(xc)   XCENC  =       -32.49806566
  PAW double counting   =      1917.56646081    -1805.12475780
  entropy T*S    EENTRO =        -0.00000000
  eigenvalues    EBANDS =      -106.65691460
  atomic energy  EATOM  =      1448.48460880
  Solvation  Ediel_sol  =         0.00000000
  ---------------------------------------------------
  free energy    TOTEN  =       -33.71320361 eV

  energy without entropy =      -33.71320361  energy(sigma->0) =      -33.71320361


--------------------------------------------------------------------------------------------------------




 average (electrostatic) potential at core
  the test charge radii are     1.1631  1.0808
  (the norm of the test charge is              1.0000)
       1 -33.8236       2 -33.8236       3 -33.8236       4 -33.8236       5 -55.3098
       6 -55.3098       7 -55.3099       8 -55.3099
 
 
 
 E-fermi :   2.9896     XC(G=0):  -9.0747     alpha+bet : -8.3433

 Fermi energy:         2.9896302799

 k-point     1 :       0.0000    0.0000    0.0000
  band No.  band energies     occupation 
      1     -11.2106      2.00000
      2     -11.0164      2.00000
      3      -9.9326      2.00000
      4      -9.6492      2.00000
      5      -5.0074      2.00000
      6      -4.4545      2.00000
      7      -2.9750      2.00000
      8      -2.5957      2.00000
      9      -2.0065      2.00000
     10      -0.6619      2.00000
     11      -0.5781      2.00000
     12      -0.4356      2.00000
     13      -0.0871      2.00000
     14       0.1581      2.00000
     15       1.1316      2.00000
     16       1.1399      2.00000
     17       1.4996      2.00000
     18       1.6082      2.00000
     19       2.4551      2.00000
     20       2.6329      2.00000
     21       3.3246      0.00000
     22       5.2389      0.00000
     23       5.6079      0.00000
     24       5.8322      0.00000
     25       5.9521      0.00000
     26       6.4821      0.00000
     27       6.6392      0.00000
     28       7.0605      0.00000
     29       7.6581      0.00000
     30       7.8871      0.00000
     31       8.1861      0.00000
     32       8.6578      0.00000

 k-point     2 :       0.1667    0.0000    0.0000
  band No.  band energies     occupation 
      1     -11.0240      2.00000
      2     -10.8396      2.00000
      3      -9.8277      2.00000
      4      -9.5821      2.00000
      5      -5.1934      2.00000
      6      -4.7153      2.00000
      7      -3.2983      2.00000
      8      -3.1862      2.00000
      9      -1.8181      2.00000
     10      -0.5265      2.00000
     11      -0.5101      2.00000
     12      -0.4202      2.00000
     13      -0.1183      2.00000
     14      -0.0487      2.00000
     15       0.8897      2.00000
     16       1.0214      2.00000
     17       1.5246      2.00000
     18       1.8739      2.00000
     19       2.3851      2.00000
     20       2.4088      2.00000
     21       3.5665      0.00000
     22       5.0816      0.00000
     23       5.7166      0.00000
     24       5.7525      0.00000
     25       6.1133      0.00000
     26       6.4271      0.00000
     27       6.4695      0.00000
     28       6.8304      0.00000
     29       7.1284      0.00000
     30       7.6196      0.00000
     31       7.6825      0.00000
     32       7.8911      0.00000

 k-point     3 :       0.3333    0.0000    0.0000
  band No.  band energies     occupation 
      1     -10.5165      2.00000
      2     -10.3694      2.00000
      3      -9.6662      2.00000
      4      -9.5480      2.00000
      5      -5.5618      2.00000
      6      -5.1823      2.00000
      7      -4.4260      2.00000
      8      -4.2024      2.00000
      9      -1.2323      2.00000
     10      -0.4927      2.00000
     11      -0.3879      2.00000
     12       0.0047      2.00000
     13       0.2906      2.00000
     14       0.3838      2.00000
     15       0.7135      2.00000
     16       1.0497      2.00000
     17       1.6725      2.00000
     18       1.7061      2.00000
     19       2.0890      2.00000
     20       2.0978      2.00000
     21       3.8260      0.00000
     22       4.0714      0.00000
     23       4.5547      0.00000
     24       4.9576      0.00000
     25       5.0515      0.00000
     26       5.3022      0.00000
     27       6.0081      0.00000
     28       6.1263      0.00000
     29       6.3867      0.00000
     30       6.7718      0.00000
     31       7.2429      0.00000
     32       7.6199      0.00000

 k-point     4 :       0.5000    0.0000    0.0000
  band No.  band energies     occupation 
      1      -9.8937      2.00000
      2      -9.8937      2.00000
      3      -9.8428      2.00000
      4      -9.8428      2.00000
      5      -5.4034      2.00000
      6      -5.4034      2.00000
      7      -5.0521      2.00000
      8      -5.0521      2.00000
      9      -0.5117      2.00000
     10      -0.5117      2.00000
     11       0.0737      2.00000
     12       0.0737      2.00000
     13       0.6257      2.00000
     14       0.6257      2.00000
     15       0.9180      2.00000
     16       0.9180      2.00000
     17       1.4638      2.00000
     18       1.4638      2.00000
     19       1.8014      2.00000
     20       1.8014      2.00000
     21       3.9403      0.00000
     22       3.9403      0.00000
     23       4.3019      0.00000
     24       4.3019      0.00000
     25       4.9662      0.00000
     26       4.9662      0.00000
     27       5.1399      0.00000
     28       5.1399      0.00000
     29       6.0584      0.00000
     30       6.0584      0.00000
     31       7.1593      0.00000
     32       7.1593      0.00000

 k-point     5 :       0.0000    0.1667    0.0000
  band No.  band energies     occupation 
      1     -11.0941      2.00000
      2     -10.9106      2.00000
      3      -9.9418      2.00000
      4      -9.7054      2.00000
      5      -5.2563      2.00000
      6      -4.6649      2.00000
      7      -3.6384      2.00000
      8      -3.0917      2.00000
      9      -1.7934      2.00000
     10      -0.2862      2.00000
     11      -0.0980      2.00000
     12       0.0544      2.00000
     13       0.0907      2.00000
     14       0.2863      2.00000
     15       1.1834      2.00000
     16       1.4900      2.00000
     17       1.6501      2.00000
     18       1.7862      2.00000
     19       2.0045      2.00000
     20       2.5953      2.00000
     21       3.6286      0.00000
     22       5.1837      0.00000
     23       5.4946      0.00000
     24       5.5329      0.00000
     25       5.6567      0.00000
     26       6.0670      0.00000
     27       6.6024      0.00000
     28       6.8773      0.00000
     29       7.2255      0.00000
     30       7.2928      0.00000
     31       8.0317      0.00000
     32       8.3008      0.00000

 k-point     6 :       0.1667    0.1667    0.0000
  band No.  band energies     occupation 
      1     -10.9132      2.00000
      2     -10.7394      2.00000
      3      -9.8379      2.00000
      4      -9.6325      2.00000
      5      -5.3267      2.00000
      6      -4.7827      2.00000
      7      -3.7643      2.00000
      8      -3.4311      2.00000
      9      -1.6281      2.00000
     10      -1.0382      2.00000
     11      -0.8222      2.00000
     12      -0.2254      2.00000
     13       0.4392      2.00000
     14       0.6430      2.00000
     15       0.8441      2.00000
     16       0.8700      2.00000
     17       1.8466      2.00000
     18       1.9485      2.00000
     19       2.1913      2.00000
     20       2.4883      2.00000
     21       3.8040      0.00000
     22       4.8648      0.00000
     23       5.1201      0.00000
     24       5.3454      0.00000
     25       5.9465      0.00000
     26       6.4326      0.00000
     27       6.7499      0.00000
     28       6.8507      0.00000
     29       7.3338      0.00000
     30       7.4204      0.00000
     31       7.4960      0.00000
     32       8.0295      0.00000

 k-point     7 :       0.1667   -0.1667    0.0000
  band No.  band energies     occupation 
      1     -10.9132      2.00000
      2     -10.7394      2.00000
      3      -9.8379      2.00000
      4      -9.6325      2.00000
      5      -5.3267      2.00000
      6      -4.7827      2.00000
      7      -3.7643      2.00000
      8      -3.4311      2.00000
      9      -1.6281      2.00000
     10      -1.0382      2.00000
     11      -0.8222      2.00000
     12      -0.2254      2.00000
     13       0.4392      2.00000
     14       0.6430      2.00000
     15       0.8441      2.00000
     16       0.8700      2.00000
     17       1.8466      2.00000
     18       1.9485      2.00000
     19       2.1913      2.00000
     20       2.4883      2.00000
     21       3.8040      0.00000
     22       4.8648      0.00000
     23       5.1201      0.00000
     24       5.3454      0.00000
     25       5.9465      0.00000
     26       6.4326      0.00000
     27       6.7499      0.00000
     28       6.8507      0.00000
     29       7.3338      0.00000
     30       7.4204      0.00000
     31       7.4960      0.00000
     32       8.0295      0.00000

 k-point     8 :       0.3333    0.1667    0.0000
  band No.  band energies     occupation 
      1     -10.4269      2.00000
      2     -10.2903      2.00000
      3      -9.6694      2.00000
      4      -9.5685      2.00000
      5      -5.5075      2.00000
      6      -5.0903      2.00000
      7      -4.4307      2.00000
      8      -4.3008      2.00000
      9      -1.2767      2.00000
     10      -1.1311      2.00000
     11      -1.1256      2.00000
     12      -0.3391      2.00000
     13       0.2613      2.00000
     14       0.5737      2.00000
     15       0.7900      2.00000
     16       0.9015      2.00000
     17       1.2336      2.00000
     18       1.7583      2.00000
     19       1.8896      2.00000
     20       2.1646      2.00000
     21       3.8360      0.00000
     22       4.4697      0.00000
     23       4.6839      0.00000
     24       5.2062      0.00000
     25       5.4212      0.00000
     26       5.9204      0.00000
     27       6.2647      0.00000
     28       6.6950      0.00000
     29       7.1518      0.00000
     30       7.3678      0.00000
     31       7.5118      0.00000
     32       7.9022      0.00000

 k-point     9 :       0.3333   -0.1667    0.0000
  band No.  band energies     occupation 
      1     -10.4269      2.00000
      2     -10.2903      2.00000
      3      -9.6694      2.00000
      4      -9.5685      2.00000
      5      -5.5075      2.00000
      6      -5.0903      2.00000
      7      -4.4307      2.00000
      8      -4.3008      2.00000
      9      -1.2767      2.00000
     10      -1.1311      2.00000
     11      -1.1256      2.00000
     12      -0.3391      2.00000
     13       0.2613      2.00000
     14       0.5737      2.00000
     15       0.7900      2.00000
     16       0.9015      2.00000
     17       1.2336      2.00000
     18       1.7583      2.00000
     19       1.8896      2.00000
     20       2.1646      2.00000
     21       3.8360      0.00000
     22       4.4697      0.00000
     23       4.6839      0.00000
     24       5.2062      0.00000
     25       5.4212      0.00000
     26       5.9204      0.00000
     27       6.2647      0.00000
     28       6.6950      0.00000
     29       7.1518      0.00000
     30       7.3678      0.00000
     31       7.5118      0.00000
     32       7.9022      0.00000

 k-point    10 :       0.5000    0.1667    0.0000
  band No.  band energies     occupation 
      1      -9.8521      2.00000
      2      -9.8521      2.00000
      3      -9.8068      2.00000
      4      -9.8068      2.00000
      5      -5.3065      2.00000
      6      -5.3065      2.00000
      7      -4.9961      2.00000
      8      -4.9961      2.00000
      9      -0.8179      2.00000
     10      -0.8179      2.00000
     11      -0.5175      2.00000
     12      -0.5175      2.00000
     13       0.2293      2.00000
     14       0.2293      2.00000
     15       0.3133      2.00000
     16       0.3133      2.00000
     17       1.4060      2.00000
     18       1.4060      2.00000
     19       1.9272      2.00000
     20       1.9272      2.00000
     21       4.0365      0.00000
     22       4.0365      0.00000
     23       4.8488      0.00000
     24       4.8488      0.00000
     25       6.0193      0.00000
     26       6.0193      0.00000
     27       6.1598      0.00000
     28       6.1598      0.00000
     29       6.7083      0.00000
     30       6.7083      0.00000
     31       6.9662      0.00000
     32       6.9662      0.00000

 k-point    11 :       0.0000    0.3333    0.0000
  band No.  band energies     occupation 
      1     -10.7730      2.00000
      2     -10.6249      2.00000
      3     -10.0390      2.00000
      4      -9.9149      2.00000
      5      -5.5467      2.00000
      6      -4.8914      2.00000
      7      -4.6502      2.00000
      8      -3.9900      2.00000
      9      -1.2698      2.00000
     10       0.2584      2.00000
     11       0.4438      2.00000
     12       0.5792      2.00000
     13       0.6259      2.00000
     14       1.0425      2.00000
     15       1.1729      2.00000
     16       1.2107      2.00000
     17       1.3551      2.00000
     18       2.2671      2.00000
     19       2.6016      2.00000
     20       2.7519      2.00000
     21       4.2255      0.00000
     22       4.2436      0.00000
     23       4.4895      0.00000
     24       5.3120      0.00000
     25       5.4999      0.00000
     26       5.6040      0.00000
     27       6.0313      0.00000
     28       6.2458      0.00000
     29       6.3035      0.00000
     30       6.9338      0.00000
     31       7.4508      0.00000
     32       8.4024      0.00000

 k-point    12 :       0.1667    0.3333    0.0000
  band No.  band energies     occupation 
      1     -10.6100      2.00000
      2     -10.4711      2.00000
      3      -9.9304      2.00000
      4      -9.8198      2.00000
      5      -5.4719      2.00000
      6      -4.8416      2.00000
      7      -4.5965      2.00000
      8      -4.0467      2.00000
      9      -1.1096      2.00000
     10      -1.0351      2.00000
     11      -0.7588      2.00000
     12      -0.1074      2.00000
     13       0.1557      2.00000
     14       0.6085      2.00000
     15       0.7498      2.00000
     16       1.3972      2.00000
     17       1.9822      2.00000
     18       2.0095      2.00000
     19       2.2266      2.00000
     20       2.4665      2.00000
     21       4.1549      0.00000
     22       4.7965      0.00000
     23       5.3074      0.00000
     24       5.4249      0.00000
     25       5.5507      0.00000
     26       5.8091      0.00000
     27       6.3993      0.00000
     28       7.1375      0.00000
     29       7.2810      0.00000
     30       7.4147      0.00000
     31       7.6801      0.00000
     32       8.0797      0.00000

 k-point    13 :       0.1667   -0.3333    0.0000
  band No.  band energies     occupation 
      1     -10.6100      2.00000
      2     -10.4711      2.00000
      3      -9.9304      2.00000
      4      -9.8198      2.00000
      5      -5.4719      2.00000
      6      -4.8416      2.00000
      7      -4.5965      2.00000
      8      -4.0467      2.00000
      9      -1.1096      2.00000
     10      -1.0351      2.00000
     11      -0.7589      2.00000
     12      -0.1074      2.00000
     13       0.1557      2.00000
     14       0.6085      2.00000
     15       0.7498      2.00000
     16       1.3972      2.00000
     17       1.9822      2.00000
     18       2.0095      2.00000
     19       2.2266      2.00000
     20       2.4665      2.00000
     21       4.1549      0.00000
     22       4.7965      0.00000
     23       5.3074      0.00000
     24       5.4249      0.00000
     25       5.5507      0.00000
     26       5.8091      0.00000
     27       6.3993      0.00000
     28       7.1375      0.00000
     29       7.2810      0.00000
     30       7.4147      0.00000
     31       7.6801      0.00000
     32       8.0797      0.00000

 k-point    14 :       0.3333    0.3333    0.0000
  band No.  band energies     occupation 
      1     -10.1909      2.00000
      2     -10.0861      2.00000
      3      -9.7219      2.00000
      4      -9.6616      2.00000
      5      -5.3464      2.00000
      6      -4.8668      2.00000
      7      -4.6562      2.00000
      8      -4.4459      2.00000
      9      -1.8613      2.00000
     10      -1.5867      2.00000
     11      -1.1219      2.00000
     12      -0.8171      2.00000
     13      -0.5324      2.00000
     14       0.0362      2.00000
     15       0.3424      2.00000
     16       0.7538      2.00000
     17       0.8037      2.00000
     18       1.6658      2.00000
     19       1.6885      2.00000
     20       2.0519      2.00000
     21       4.0205      0.00000
     22       5.3833      0.00000
     23       5.7712      0.00000
     24       6.1478      0.00000
     25       6.4010      0.00000
     26       6.8757      0.00000
     27       6.9527      0.00000
     28       7.2299      0.00000
     29       7.6672      0.00000
     30       7.9201      0.00000
     31       8.4865      0.00000
     32       8.9129      0.00000

 k-point    15 :       0.3333   -0.3333    0.0000
  band No.  band energies     occupation 
      1     -10.1909      2.00000
      2     -10.0861      2.00000
      3      -9.7219      2.00000
      4      -9.6616      2.00000
      5      -5.3464      2.00000
      6      -4.8668      2.00000
      7      -4.6562      2.00000
      8      -4.4459      2.00000
      9      -1.8613      2.00000
     10      -1.5867      2.00000
     11      -1.1219      2.00000
     12      -0.8171      2.00000
     13      -0.5324      2.00000
     14       0.0362      2.00000
     15       0.3424      2.00000
     16       0.7538      2.00000
     17       0.8037      2.00000
     18       1.6658      2.00000
     19       1.6885      2.00000
     20       2.0519      2.00000
     21       4.0205      0.00000
     22       5.3833      0.00000
     23       5.7712      0.00000
     24       6.1478      0.00000
     25       6.4010      0.00000
     26       6.8757      0.00000
     27       6.9527      0.00000
     28       7.2299      0.00000
     29       7.6672      0.00000
     30       7.9201      0.00000
     31       8.4865      0.00000
     32       8.9141      0.00000

 k-point    16 :       0.5000    0.3333    0.0000
  band No.  band energies     occupation 
      1      -9.7641      2.00000
      2      -9.7641      2.00000
      3      -9.7331      2.00000
      4      -9.7331      2.00000
      5      -5.0906      2.00000
      6      -5.0906      2.00000
      7      -4.8784      2.00000
      8      -4.8784      2.00000
      9      -1.4804      2.00000
     10      -1.4804      2.00000
     11      -1.2657      2.00000
     12      -1.2657      2.00000
     13      -0.5235      2.00000
     14      -0.5235      2.00000
     15      -0.1115      2.00000
     16      -0.1115      2.00000
     17       0.9589      2.00000
     18       0.9589      2.00000
     19       1.7450      2.00000
     20       1.7450      2.00000
     21       4.9237      0.00000
     22       4.9237      0.00000
     23       6.1524      0.00000
     24       6.1524      0.00000
     25       6.7764      0.00000
     26       6.7764      0.00000
     27       7.2446      0.00000
     28       7.2446      0.00000
     29       7.9950      0.00000
     30       7.9950      0.00000
     31       8.4350      0.00000
     32       8.4350      0.00000

 k-point    17 :       0.0000    0.5000    0.0000
  band No.  band energies     occupation 
      1     -10.3480      2.00000
      2     -10.3480      2.00000
      3     -10.2583      2.00000
      4     -10.2583      2.00000
      5      -5.3643      2.00000
      6      -5.3643      2.00000
      7      -4.6741      2.00000
      8      -4.6741      2.00000
      9      -0.4924      2.00000
     10      -0.4924      2.00000
     11       0.9529      2.00000
     12       0.9529      2.00000
     13       1.0192      2.00000
     14       1.0192      2.00000
     15       1.1480      2.00000
     16       1.1480      2.00000
     17       2.1440      2.00000
     18       2.1440      2.00000
     19       2.5790      2.00000
     20       2.5790      2.00000
     21       4.4437      0.00000
     22       4.4437      0.00000
     23       4.7165      0.00000
     24       4.7165      0.00000
     25       5.2522      0.00000
     26       5.2522      0.00000
     27       5.5262      0.00000
     28       5.5262      0.00000
     29       6.1391      0.00000
     30       6.1391      0.00000
     31       8.1199      0.00000
     32       8.1199      0.00000

 k-point    18 :       0.1667    0.5000    0.0000
  band No.  band energies     occupation 
      1     -10.2151      2.00000
      2     -10.2151      2.00000
      3     -10.1312      2.00000
      4     -10.1312      2.00000
      5      -5.2497      2.00000
      6      -5.2497      2.00000
      7      -4.6077      2.00000
      8      -4.6077      2.00000
      9      -0.6179      2.00000
     10      -0.6179      2.00000
     11      -0.3234      2.00000
     12      -0.3234      2.00000
     13      -0.2372      2.00000
     14      -0.2372      2.00000
     15       1.0881      2.00000
     16       1.0881      2.00000
     17       2.1147      2.00000
     18       2.1147      2.00000
     19       2.3885      2.00000
     20       2.3885      2.00000
     21       4.5095      0.00000
     22       4.5095      0.00000
     23       5.3649      0.00000
     24       5.3649      0.00000
     25       5.9299      0.00000
     26       5.9299      0.00000
     27       6.7573      0.00000
     28       6.7573      0.00000
     29       7.0964      0.00000
     30       7.0964      0.00000
     31       7.8893      0.00000
     32       7.8893      0.00000

 k-point    19 :       0.3333    0.5000    0.0000
  band No.  band energies     occupation 
      1      -9.9078      2.00000
      2      -9.9078      2.00000
      3      -9.8480      2.00000
      4      -9.8480      2.00000
      5      -5.0526      2.00000
      6      -5.0526      2.00000
      7      -4.6227      2.00000
      8      -4.6227      2.00000
      9      -1.7511      2.00000
     10      -1.7511      2.00000
     11      -1.3346      2.00000
     12      -1.3346      2.00000
     13      -0.3631      2.00000
     14      -0.3631      2.00000
     15       0.2970      2.00000
     16       0.2970      2.00000
     17       0.9988      2.00000
     18       0.9988      2.00000
     19       1.8273      2.00000
     20       1.8273      2.00000
     21       4.9054      0.00000
     22       4.9054      0.00000
     23       6.6070      0.00000
     24       6.6070      0.00000
     25       7.3442      0.00000
     26       7.3442      0.00000
     27       7.4499      0.00000
     28       7.4499      0.00000
     29       8.4026      0.00000
     30       8.4026      0.00000
     31       8.4727      0.00000
     32       8.4727      0.00000

 k-point    20 :       0.5000    0.5000    0.0000
  band No.  band energies     occupation 
      1      -9.7163      2.00000
      2      -9.7163      2.00000
      3      -9.6964      2.00000
      4      -9.6964      2.00000
      5      -4.9766      2.00000
      6      -4.9766      2.00000
      7      -4.8081      2.00000
      8      -4.8081      2.00000
      9      -1.7065      2.00000
     10      -1.7065      2.00000
     11      -1.6347      2.00000
     12      -1.6347      2.00000
     13      -0.6439      2.00000
     14      -0.6439      2.00000
     15      -0.6198      2.00000
     16      -0.6198      2.00000
     17       0.9876      2.00000
     18       0.9876      2.00000
[...]
     32       7.5456      0.00000

 k-point    32 :       0.1667    0.3333    0.5000
  band No.  band energies     occupation 
      1     -10.5471      2.00000
      2     -10.5471      2.00000
      3      -9.8684      2.00000
      4      -9.8684      2.00000
      5      -5.2352      2.00000
      6      -5.2352      2.00000
      7      -4.2684      2.00000
      8      -4.2684      2.00000
      9      -0.9605      2.00000
     10      -0.9605      2.00000
     11      -0.3771      2.00000
     12      -0.3771      2.00000
     13       0.1553      2.00000
     14       0.1553      2.00000
     15       1.0686      2.00000
     16       1.0686      2.00000
     17       2.0290      2.00000
     18       2.0290      2.00000
     19       2.2248      2.00000
     20       2.2248      2.00000
     21       5.0257      0.00000
     22       5.0257      0.00000
     23       5.1883      0.00000
     24       5.1883      0.00000
     25       5.7821      0.00000
     26       5.7821      0.00000
     27       6.5910      0.00000
     28       6.5910      0.00000
     29       7.0980      0.00000
     30       7.0980      0.00000
     31       7.7336      0.00000
     32       7.7336      0.00000

 k-point    33 :       0.1667   -0.3333    0.5000
  band No.  band energies     occupation 
      1     -10.5471      2.00000
      2     -10.5471      2.00000
      3      -9.8684      2.00000
      4      -9.8684      2.00000
      5      -5.2352      2.00000
      6      -5.2352      2.00000
      7      -4.2684      2.00000
      8      -4.2684      2.00000
      9      -0.9605      2.00000
     10      -0.9605      2.00000
     11      -0.3771      2.00000
     12      -0.3771      2.00000
     13       0.1553      2.00000
     14       0.1553      2.00000
     15       1.0686      2.00000
     16       1.0686      2.00000
     17       2.0290      2.00000
     18       2.0290      2.00000
     19       2.2248      2.00000
     20       2.2248      2.00000
     21       5.0257      0.00000
     22       5.0257      0.00000
     23       5.1883      0.00000
     24       5.1883      0.00000
     25       5.7821      0.00000
     26       5.7821      0.00000
     27       6.5910      0.00000
     28       6.5910      0.00000
     29       7.0980      0.00000
     30       7.0980      0.00000
     31       7.7336      0.00000
     32       7.7336      0.00000

 k-point    34 :       0.3333    0.3333    0.5000
  band No.  band energies     occupation 
      1     -10.1429      2.00000
      2     -10.1429      2.00000
      3      -9.6875      2.00000
      4      -9.6875      2.00000
      5      -5.1494      2.00000
      6      -5.1494      2.00000
      7      -4.5192      2.00000
      8      -4.5192      2.00000
      9      -1.7356      2.00000
     10      -1.7356      2.00000
     11      -0.9109      2.00000
     12      -0.9109      2.00000
     13      -0.2645      2.00000
     14      -0.2645      2.00000
     15       0.4315      2.00000
     16       0.4315      2.00000
     17       1.2102      2.00000
     18       1.2102      2.00000
     19       1.8957      2.00000
     20       1.8957      2.00000
     21       5.1229      0.00000
     22       5.1229      0.00000
     23       5.7258      0.00000
     24       5.7258      0.00000
     25       6.2233      0.00000
     26       6.2233      0.00000
     27       7.1784      0.00000
     28       7.1784      0.00000
     29       7.5600      0.00000
     30       7.5600      0.00000
     31       8.9535      0.00000
     32       8.9535      0.00000

 k-point    35 :       0.3333   -0.3333    0.5000
  band No.  band energies     occupation 
      1     -10.1429      2.00000
      2     -10.1429      2.00000
      3      -9.6875      2.00000
      4      -9.6875      2.00000
      5      -5.1494      2.00000
      6      -5.1494      2.00000
      7      -4.5192      2.00000
      8      -4.5192      2.00000
      9      -1.7356      2.00000
     10      -1.7356      2.00000
     11      -0.9109      2.00000
     12      -0.9109      2.00000
     13      -0.2645      2.00000
     14      -0.2645      2.00000
     15       0.4315      2.00000
     16       0.4315      2.00000
     17       1.2102      2.00000
     18       1.2102      2.00000
     19       1.8957      2.00000
     20       1.8957      2.00000
     21       5.1229      0.00000
     22       5.1229      0.00000
     23       5.7258      0.00000
     24       5.7258      0.00000
     25       6.2233      0.00000
     26       6.2233      0.00000
     27       7.1784      0.00000
     28       7.1784      0.00000
     29       7.5600      0.00000
     30       7.5600      0.00000
     31       8.9535      0.00000
     32       8.9535      0.00000

 k-point    36 :       0.5000    0.3333    0.5000
  band No.  band energies     occupation 
      1      -9.7487      2.00000
      2      -9.7487      2.00000
      3      -9.7487      2.00000
      4      -9.7487      2.00000
      5      -4.9883      2.00000
      6      -4.9883      2.00000
      7      -4.9883      2.00000
      8      -4.9883      2.00000
      9      -1.3364      2.00000
     10      -1.3364      2.00000
     11      -1.3364      2.00000
     12      -1.3364      2.00000
     13      -0.4238      2.00000
     14      -0.4238      2.00000
     15      -0.4237      2.00000
     16      -0.4237      2.00000
     17       1.4252      2.00000
     18       1.4252      2.00000
     19       1.4252      2.00000
     20       1.4252      2.00000
     21       5.5096      0.00000
     22       5.5096      0.00000
     23       5.5096      0.00000
     24       5.5096      0.00000
     25       6.7404      0.00000
     26       6.7404      0.00000
     27       6.7404      0.00000
     28       6.7404      0.00000
     29       8.3429      0.00000
     30       8.3429      0.00000
     31       8.3429      0.00000
     32       8.3429      0.00000

 k-point    37 :       0.0000    0.5000    0.5000
  band No.  band energies     occupation 
      1     -10.3403      2.00000
      2     -10.3403      2.00000
      3     -10.2667      2.00000
      4     -10.2667      2.00000
      5      -5.2865      2.00000
      6      -5.2865      2.00000
      7      -4.7873      2.00000
      8      -4.7873      2.00000
      9       0.2137      2.00000
     10       0.2137      2.00000
     11       0.2174      2.00000
     12       0.2174      2.00000
     13       0.9724      2.00000
     14       0.9724      2.00000
     15       0.9988      2.00000
     16       0.9988      2.00000
     17       2.3497      2.00000
     18       2.3497      2.00000
     19       2.4796      2.00000
     20       2.4796      2.00000
     21       4.5080      0.00000
     22       4.5080      0.00000
     23       4.5894      0.00000
     24       4.5894      0.00000
     25       5.5787      0.00000
     26       5.5787      0.00000
     27       6.0723      0.00000
     28       6.0723      0.00000
     29       6.1087      0.00000
     30       6.1087      0.00000
     31       7.2154      0.00000
     32       7.2154      0.00000

 k-point    38 :       0.1667    0.5000    0.5000
  band No.  band energies     occupation 
      1     -10.2081      2.00000
      2     -10.2081      2.00000
      3     -10.1389      2.00000
      4     -10.1389      2.00000
      5      -5.1834      2.00000
      6      -5.1834      2.00000
      7      -4.7013      2.00000
      8      -4.7013      2.00000
      9      -0.5748      2.00000
     10      -0.5748      2.00000
     11      -0.3950      2.00000
     12      -0.3950      2.00000
     13       0.3406      2.00000
     14       0.3406      2.00000
     15       0.4774      2.00000
     16       0.4774      2.00000
     17       2.1373      2.00000
     18       2.1373      2.00000
     19       2.1936      2.00000
     20       2.1936      2.00000
     21       5.3133      0.00000
     22       5.3133      0.00000
     23       5.3709      0.00000
     24       5.3709      0.00000
     25       5.7719      0.00000
     26       5.7719      0.00000
     27       6.5189      0.00000
     28       6.5189      0.00000
     29       7.2429      0.00000
     30       7.2429      0.00000
     31       7.2652      0.00000
     32       7.2652      0.00000

 k-point    39 :       0.3333    0.5000    0.5000
  band No.  band energies     occupation 
      1      -9.9025      2.00000
      2      -9.9025      2.00000
      3      -9.8536      2.00000
      4      -9.8536      2.00000
      5      -5.0143      2.00000
      6      -5.0143      2.00000
      7      -4.6713      2.00000
      8      -4.6713      2.00000
      9      -1.6212      2.00000
     10      -1.6212      2.00000
     11      -1.5004      2.00000
     12      -1.5004      2.00000
     13      -0.0664      2.00000
     14      -0.0664      2.00000
     15      -0.0383      2.00000
     16      -0.0383      2.00000
     17       1.4113      2.00000
     18       1.4113      2.00000
     19       1.4328      2.00000
     20       1.4328      2.00000
     21       5.4120      0.00000
     22       5.4120      0.00000
     23       6.1145      0.00000
     24       6.1145      0.00000
     25       6.9637      0.00000
     26       6.9637      0.00000
     27       7.1749      0.00000
     28       7.1749      0.00000
     29       8.6436      0.00000
     30       8.6436      0.00000
     31       8.6554      0.00000
     32       8.6554      0.00000

 k-point    40 :       0.5000    0.5000    0.5000
  band No.  band energies     occupation 
      1      -9.7064      2.00000
      2      -9.7064      2.00000
      3      -9.7064      2.00000
      4      -9.7064      2.00000
      5      -4.8965      2.00000
      6      -4.8965      2.00000
      7      -4.8965      2.00000
      8      -4.8965      2.00000
      9      -1.5617      2.00000
     10      -1.5617      2.00000
     11      -1.5617      2.00000
     12      -1.5617      2.00000
     13      -0.8386      2.00000
     14      -0.8386      2.00000
     15      -0.8386      2.00000
     16      -0.8386      2.00000
     17       1.4531      2.00000
     18       1.4531      2.00000
     19       1.4531      2.00000
     20       1.4531      2.00000
     21       5.4702      0.00000
     22       5.4702      0.00000
     23       5.4702      0.00000
     24       5.4702      0.00000
     25       7.6739      0.00000
     26       7.6739      0.00000
     27       7.6739      0.00000
     28       7.6739      0.00000
     29       9.3428      0.00000
     30       9.3428      0.00000
     31       9.3428      0.00000
     32       9.3428      0.00000


--------------------------------------------------------------------------------------------------------


 soft charge-density along one line, spin component            1
         0         1         2         3         4         5         6         7         8         9
 total charge-density along one line
 
 pseudopotential strength for first ion, spin component:            1
 14.620  18.244   0.040   0.047   0.000   0.073   0.085   0.000
 18.244  22.780   0.051   0.059   0.000   0.092   0.107   0.000
  0.040   0.051   3.242  -0.003  -0.000   5.519  -0.004  -0.000
  0.047   0.059  -0.003   3.239  -0.000  -0.004   5.515  -0.000
  0.000   0.000  -0.000  -0.000   3.243  -0.000  -0.000   5.522
  0.073   0.092   5.519  -0.004  -0.000   9.456  -0.008  -0.000
  0.085   0.107  -0.004   5.515  -0.000  -0.008   9.448  -0.000
  0.000   0.000  -0.000  -0.000   5.522  -0.000  -0.000   9.460
 -0.000  -0.000   0.000  -0.000   0.006   0.000  -0.000   0.012
 -0.006  -0.007   0.012   0.013  -0.000   0.022   0.023  -0.000
 -0.004  -0.005  -0.003   0.012  -0.000  -0.006   0.022  -0.000
 -0.000  -0.000  -0.000   0.000   0.012  -0.000   0.000   0.022
  0.002   0.002  -0.012   0.000   0.000  -0.022   0.000   0.000
 total augmentation occupancy for first ion, spin component:            1
  2.707  -0.678   0.339   0.368   0.000  -0.063  -0.066  -0.000  -0.000  -0.010  -0.008   0.000   0.010
 -0.678   0.639  -0.430  -0.493  -0.000   0.068   0.076   0.000  -0.000   0.004   0.011  -0.000  -0.005
  0.339  -0.430   1.227   0.058  -0.000  -0.200   0.003   0.000   0.000   0.043  -0.099   0.000   0.000
  0.368  -0.493   0.058   1.317   0.000   0.003  -0.209   0.000   0.000  -0.019   0.108  -0.000  -0.005
  0.000  -0.000  -0.000   0.000   1.240   0.000  -0.000  -0.213   0.145   0.000  -0.000   0.035  -0.000
 -0.063   0.068  -0.200   0.003   0.000   0.036  -0.002  -0.000  -0.000  -0.007   0.017  -0.000   0.000
 -0.066   0.076   0.003  -0.209  -0.000  -0.002   0.038   0.000  -0.000   0.003  -0.019  -0.000   0.001
 -0.000   0.000   0.000   0.000  -0.213  -0.000   0.000   0.041  -0.025  -0.000   0.000  -0.006  -0.000
 -0.000  -0.000   0.000   0.000   0.145  -0.000  -0.000  -0.025   0.031  -0.000   0.000   0.002  -0.000
 -0.010   0.004   0.043  -0.019   0.000  -0.007   0.003  -0.000  -0.000   0.011  -0.006   0.000   0.001
 -0.008   0.011  -0.099   0.108  -0.000   0.017  -0.019   0.000   0.000  -0.006   0.029  -0.000  -0.002
  0.000  -0.000   0.000  -0.000   0.035  -0.000  -0.000  -0.006   0.002   0.000  -0.000   0.010   0.000
  0.010  -0.005   0.000  -0.005  -0.000   0.000   0.001  -0.000  -0.000   0.001  -0.002   0.000   0.008


------------------------ aborting loop because EDIFF is reached ----------------------------------------


    CHARGE:  cpu time      0.0055: real time      0.0055
    FORLOC:  cpu time      0.0002: real time      0.0002
    FORNL :  cpu time      0.0276: real time      0.0277
    STRESS:  cpu time      0.2768: real time      0.2782
    FORCOR:  cpu time      0.0066: real time      0.0066
    FORHAR:  cpu time      0.0017: real time      0.0017
    MIXING:  cpu time      0.0005: real time      0.0005
    OFIELD:  cpu time      0.0000: real time      0.0000

  FORCE on cell =-STRESS in cart. coord.  units (eV):
  Direction    XX          YY          ZZ          XY          YZ          ZX
  --------------------------------------------------------------------------------------
  Alpha Z    83.74936    83.74936    83.74936
  Ewald    -404.09054  -447.28582  -533.84231    -0.00001    -0.00000     0.00001
  Hartree    80.22760    63.21533    10.57996     0.00000    -0.00000     0.00000
  E(xc)    -140.83651  -140.86111  -141.39586     0.00000    -0.00000     0.00000
  Local    -236.77589  -182.41479   -47.93589     0.00000     0.00000    -0.00001
  n-local   240.30250   239.71597   241.69122    -0.00000     0.00000     0.00000
  augment   -11.39107   -11.76445   -12.16523     0.00000    -0.00000     0.00000
  Kinetic   389.50674   395.95316   398.66553     0.00000     0.00000    -0.00000
  Fock        0.00000     0.00000     0.00000     0.00000     0.00000     0.00000
  -------------------------------------------------------------------------------------
  Total       0.69219     0.30765    -0.65324    -0.00000    -0.00000    -0.00000
  in kB       5.48139     2.43624    -5.17297    -0.00001    -0.00000    -0.00001
  external pressure =        0.91 kB  Pullay stress =        0.00 kB


 VOLUME and BASIS-vectors are now :
 -----------------------------------------------------------------------------
  energy-cutoff  :      360.00
  volume of cell :      202.32
      direct lattice vectors                 reciprocal lattice vectors
     3.858100176  0.000000000  0.000000000     0.259194929  0.000000000  0.000000000
     0.000000000  4.526575088  0.000000000     0.000000000  0.220917577  0.000000000
     0.000000000  0.000000000 11.585176468     0.000000000  0.000000000  0.086317200

  length of vectors
     3.858100176  4.526575088 11.585176468     0.259194929  0.220917577  0.086317200


 FORCES acting on ions
    electron-ion (+dipol)            ewald-force                    non-local-force                 convergence-correction
 -----------------------------------------------------------------------------------------------
   -.679E-06 0.140E+02 0.318E+02   -.105E-06 -.165E+02 -.348E+02   0.321E-06 0.248E+01 0.314E+01   0.120E-06 0.170E-03 -.140E-02
   -.173E-05 0.140E+02 -.318E+02   0.150E-05 -.165E+02 0.348E+02   0.237E-06 0.248E+01 -.314E+01   0.331E-07 0.171E-03 0.140E-02
   -.124E-05 -.140E+02 -.318E+02   0.571E-06 0.165E+02 0.348E+02   0.308E-06 -.248E+01 -.314E+01   0.305E-06 -.173E-03 0.140E-02
   0.440E-05 -.140E+02 0.318E+02   -.399E-05 0.165E+02 -.348E+02   -.213E-06 -.248E+01 0.314E+01   -.131E-07 -.171E-03 -.139E-02
   0.402E-05 -.157E+02 -.373E+02   -.389E-05 0.172E+02 0.391E+02   0.351E-06 -.139E+01 -.195E+01   -.781E-06 0.835E-05 0.298E-02
   0.101E-05 -.157E+02 0.373E+02   0.114E-06 0.172E+02 -.391E+02   0.152E-06 -.139E+01 0.195E+01   -.139E-05 0.109E-04 -.299E-02
   -.456E-05 0.157E+02 0.373E+02   0.298E-05 -.172E+02 -.391E+02   0.133E-05 0.139E+01 0.195E+01   0.821E-06 -.104E-04 -.299E-02
   -.317E-05 0.157E+02 -.373E+02   0.282E-05 -.172E+02 0.391E+02   0.381E-06 0.139E+01 -.195E+01   -.182E-07 -.126E-04 0.298E-02
 -----------------------------------------------------------------------------------------------
   -.196E-05 0.209E-04 0.145E-05   0.480E-14 0.711E-14 0.000E+00   0.287E-05 0.952E-03 -.108E-05   -.919E-06 -.619E-05 -.385E-06
 
 
 POSITION                                       TOTAL-FORCE (eV/Angst)
 -----------------------------------------------------------------------------------
      0.96453      4.24060      1.52892        -0.000000     -0.006934      0.149714
      2.89358      1.97731      4.26367         0.000000     -0.006934     -0.149713
      2.89357      4.09092     10.05626        -0.000000      0.006770     -0.149714
      0.96452      1.82763      7.32150         0.000000      0.006771      0.149714
      0.96452      3.71200      4.06767        -0.000000      0.104017     -0.105755
      2.89358      1.44871      1.72492        -0.000000      0.104017      0.105755
      2.89357      0.09295      7.51751         0.000001     -0.103853      0.106109
      0.96452      2.35624      9.86026         0.000000     -0.103853     -0.106110
 -----------------------------------------------------------------------------------
    total drift:                               -0.000000      0.000967     -0.000000


--------------------------------------------------------------------------------------------------------



  FREE ENERGIE OF THE ION-ELECTRON SYSTEM (eV)
  ---------------------------------------------------
  free  energy   TOTEN  =       -33.71320361 eV

  energy  without entropy=      -33.71320361  energy(sigma->0) =      -33.71320361
 


--------------------------------------------------------------------------------------------------------


    POTLOK:  cpu time      0.2258: real time      0.2263


--------------------------------------------------------------------------------------------------------


     LOOP+:  cpu time      7.2251: real time      7.2574
    4ORBIT:  cpu time      0.0000: real time      0.0000

 total amount of memory used by VASP MPI-rank0    37119. kBytes
=======================================================================

   base      :      30000. kBytes
   nonl-proj :       5406. kBytes
   fftplans  :        334. kBytes
   grid      :        503. kBytes
   one-center:         16. kBytes
   wavefun   :        860. kBytes
 
  
  
 General timing and accounting informations for this job:
 ========================================================
  
                  Total CPU time used (sec):        8.843
                            User time (sec):        8.599
                          System time (sec):        0.244
                         Elapsed time (sec):        9.146
  
                   Maximum memory used (kb):      175012.
                   Average memory used (kb):          N/A
  
                          Minor page faults:        16834
                          Major page faults:           43
                 Voluntary context switches:         1555
