 running  128 mpi-ranks, with    1 threads/rank, on    2 nodes
 distrk:  each k-point on   64 cores,    2 groups
 distr:  one band on    4 cores,   16 groups
 vasp.6.4.2 20Jul23 (build Oct 12 2023 10:31:02) complex                         
 POSCAR found type information on POSCAR GeSe
 POSCAR found :  2 types and       8 ions
 Reading from existing POTCAR
 scaLAPACK will be used
 Reading from existing POTCAR
 LDA part: xc-table for Pade appr. of Perdew
 POSCAR, INCAR and KPOINTS ok, starting setup
 FFT: planning ... GRIDC
 FFT: planning ... GRID_SOFT
 FFT: planning ... GRID
 WAVECAR not read
 entering main loop
       N       E                     dE             d eps       ncg     rms          rms(c)
DAV:   1     0.123243660110E+03    0.12324E+03   -0.13246E+04  2560   0.791E+02
DAV:   2    -0.261354073307E+02   -0.14938E+03   -0.14526E+03  3776   0.142E+02
DAV:   3    -0.330756958606E+02   -0.69403E+01   -0.69269E+01  3312   0.349E+01
DAV:   4    -0.331121515300E+02   -0.36456E-01   -0.36450E-01  3184   0.286E+00
DAV:   5    -0.331123608017E+02   -0.20927E-03   -0.20926E-03  3264   0.208E-01    0.722E+00
DAV:   6    -0.328386871352E+02    0.27367E+00   -0.53648E-01  3232   0.248E+00    0.450E+00
DAV:   7    -0.328301793868E+02    0.85077E-02   -0.20881E-01  3344   0.163E+00    0.987E-01
DAV:   8    -0.328262294940E+02    0.39499E-02   -0.26353E-02  2976   0.602E-01    0.155E-01
DAV:   9    -0.328264413854E+02   -0.21189E-03   -0.24660E-03  3072   0.216E-01    0.504E-02
DAV:  10    -0.328264706624E+02   -0.29277E-04   -0.96008E-05  3264   0.414E-02    0.209E-02
DAV:  11    -0.328264857239E+02   -0.15061E-04   -0.22259E-05  2976   0.220E-02    0.642E-03
DAV:  12    -0.328264856755E+02    0.48394E-07   -0.21181E-06  2448   0.691E-03
   1 F= -.32826486E+02 E0= -.32825711E+02  d E =-.154877E-02
