 vasp.6.4.2 20Jul23 (build Oct 12 2023 10:31:02) complex                         
 executed on              LinuxNV date 2025.05.27  23:12:20
 running  128 mpi-ranks, with    1 threads/rank, on    2 nodes
 distrk:  each k-point on   64 cores,    2 groups
 distr:  one band on NCORE=   4 cores,   16 groups


--------------------------------------------------------------------------------------------------------


 INCAR:
   ENCUT = 360.000000
   SIGMA = 0.050000
   EDIFF = 1.00e-06
   ALGO = Normal
   GGA = PE
   PREC = Normal
   SYSTEM = ./
   ICHARG = 2
   ISMEAR = 0
   ISPIN = 1
   ISTART = 0
   ISYM = 0
   KPAR = 2
   LMAXMIX = 4
   NELM = 100
   NPAR = 16
   LASPH = .TRUE.
   LCHARG = .FALSE.
   LWAVE = .FALSE.

 POTCAR:    PAW_PBE Ge 05Jan2001                  
 POTCAR:    PAW_PBE Se 06Sep2000                  
 POTCAR:    PAW_PBE Ge 05Jan2001                  
   VRHFIN =Ge: s2p2                                                                                 
   LEXCH  = PE                                                                                      
   EATOM  =   104.9960 eV,    7.7170 Ry                                                             
                                                                                                    
   TITEL  = PAW_PBE Ge 05Jan2001                                                                    
   LULTRA =        F    use ultrasoft PP ?                                                          
   IUNSCR =        1    unscreen: 0-lin 1-nonlin 2-no                                               
   RPACOR =    2.170    partial core radius                                                         
   POMASS =   72.610; ZVAL   =    4.000    mass and valenz                                          
   RCORE  =    2.300    outmost cutoff radius                                                       
   RWIGS  =    2.300; RWIGS  =    1.217    wigner-seitz radius (au A)                               
   ENMAX  =  173.807; ENMIN  =  130.355 eV                                                          
   ICORE  =        3    local potential                                                             
   LCOR   =        T    correct aug charges                                                         
   LPAW   =        T    paw PP                                                                      
   EAUG   =  385.843                                                                                
   DEXC   =    0.000                                                                                
   RMAX   =    2.342    core radius for proj-oper                                                   
   RAUG   =    1.300    factor for augmentation sphere                                              
   RDEP   =    2.318    radius for radial grids                                                     
   RDEPT  =    2.103    core radius for aug-charge                                                  
                                                                                                    
   Atomic configuration                                                                             
   10 entries                                                                                       
     n  l   j            E        occ.                                                              
     1  0  0.50    -10959.8463   2.0000                                                             
     2  0  0.50     -1371.6056   2.0000                                                             
     2  1  1.50     -1198.4791   6.0000                                                             
     3  0  0.50      -168.4733   2.0000                                                             
     3  1  1.50      -115.6019   6.0000                                                             
     3  2  2.50       -29.3106  10.0000                                                             
     4  0  0.50       -11.7309   2.0000                                                             
     4  1  0.50        -3.8952   2.0000                                                             
     4  2  1.50        -4.0817   0.0000                                                             
     4  3  2.50        -4.0817   0.0000                                                             
   Description                                                                                      
     l       E           TYP  RCUT    TYP  RCUT                                                     
     0    -11.7309493     23  2.300                                                                 
     0     -7.4578696     23  2.300                                                                 
     1     -3.8952261     23  2.300                                                                 
     1      6.1178114     23  2.300                                                                 
     2     -4.0817478     23  2.300                                                                 
     3     -1.3605826      7  2.300                                                                 
  local pseudopotential read in
  partial core-charges read in
  partial kinetic energy density read in
  atomic valenz-charges read in
  non local Contribution for L=            0  read in
    real space projection operators read in
  non local Contribution for L=            0  read in
    real space projection operators read in
  non local Contribution for L=            1  read in
    real space projection operators read in
  non local Contribution for L=            1  read in
    real space projection operators read in
  non local Contribution for L=            2  read in
    real space projection operators read in
    PAW grid and wavefunctions read in
 
   number of l-projection  operators is LMAX  =            5
   number of lm-projection operators is LMMAX =           13
 
 POTCAR:    PAW_PBE Se 06Sep2000                  
   VRHFIN =Se: s2p4                                                                                 
   LEXCH  = PE                                                                                      
   EATOM  =   257.1286 eV,   18.8984 Ry                                                             
                                                                                                    
   TITEL  = PAW_PBE Se 06Sep2000                                                                    
   LULTRA =        F    use ultrasoft PP ?                                                          
   IUNSCR =        1    unscreen: 0-lin 1-nonlin 2-no                                               
   RPACOR =    1.900    partial core radius                                                         
   POMASS =   78.960; ZVAL   =    6.000    mass and valenz                                          
   RCORE  =    2.100    outmost cutoff radius                                                       
   RWIGS  =    2.200; RWIGS  =    1.164    wigner-seitz radius (au A)                               
   ENMAX  =  211.555; ENMIN  =  158.666 eV                                                          
   ICORE  =        3    local potential                                                             
   LCOR   =        T    correct aug charges                                                         
   LPAW   =        T    paw PP                                                                      
   EAUG   =  446.842                                                                                
   DEXC   =    0.000                                                                                
   RMAX   =    2.147    core radius for proj-oper                                                   
   RAUG   =    1.300    factor for augmentation sphere                                              
   RDEP   =    2.177    radius for radial grids                                                     
   RDEPT  =    1.928    core radius for aug-charge                                                  
                                                                                                    
   Atomic configuration                                                                             
   10 entries                                                                                       
     n  l   j            E        occ.                                                              
     1  0  0.50    -12503.4787   2.0000                                                             
     2  0  0.50     -1606.9547   2.0000                                                             
     2  1  1.50     -1413.3140   6.0000                                                             
     3  0  0.50      -213.4885   2.0000                                                             
     3  1  1.50      -152.9538   6.0000                                                             
     3  2  2.50       -53.1221  10.0000                                                             
     4  0  0.50       -17.2865   2.0000                                                             
     4  1  0.50        -6.5110   4.0000                                                             
     4  2  2.50        -6.8029   0.0000                                                             
     4  3  2.50        -6.8029   0.0000                                                             
   Description                                                                                      
     l       E           TYP  RCUT    TYP  RCUT                                                     
     0    -17.2865377     23  2.100                                                                 
     0    -15.3094411     23  2.100                                                                 
     1     -6.5110275     23  2.100                                                                 
     1     -0.0695192     23  2.100                                                                 
     2     -6.8029130     23  2.100                                                                 
     3     -1.3605826      7  2.100                                                                 
  local pseudopotential read in
  partial core-charges read in
  partial kinetic energy density read in
  atomic valenz-charges read in
  non local Contribution for L=            0  read in
    real space projection operators read in
  non local Contribution for L=            0  read in
    real space projection operators read in
  non local Contribution for L=            1  read in
    real space projection operators read in
  non local Contribution for L=            1  read in
    real space projection operators read in
  non local Contribution for L=            2  read in
    real space projection operators read in
    PAW grid and wavefunctions read in
 
   number of l-projection  operators is LMAX  =            5
   number of lm-projection operators is LMMAX =           13
 
  PAW_PBE Ge 05Jan2001                  :
 energy of atom  1       EATOM= -104.9960
 kinetic energy error for atom=    0.0005 (will be added to EATOM!!)
  PAW_PBE Se 06Sep2000                  :
 energy of atom  2       EATOM= -257.1286
 kinetic energy error for atom=    0.0030 (will be added to EATOM!!)
 
 
 POSCAR: Ge Se
  positions in cartesian coordinates
  No initial velocities read in
 exchange correlation table for  LEXCH =        8
   RHO(1)=    0.500       N(1)  =     2000
   RHO(2)=  100.500       N(2)  =     4000
 


--------------------------------------------------------------------------------------------------------


 ion  position               nearest neighbor table
   1  0.250  0.112  0.124-   6 2.59   6 2.59   5 2.60
   2  0.750  0.612  0.376-   5 2.59   5 2.59   6 2.60
   3  0.750  0.888  0.876-   8 2.59   8 2.59   7 2.60
   4  0.250  0.388  0.624-   7 2.59   7 2.59   8 2.60
   5  0.250  0.978  0.350-   2 2.59   2 2.59   1 2.60
   6  0.750  0.478  0.150-   1 2.59   1 2.59   2 2.60
   7  0.750  0.022  0.650-   4 2.59   4 2.59   3 2.60
   8  0.250  0.522  0.850-   3 2.59   3 2.59   4 2.60
 

IMPORTANT INFORMATION: All symmetrisations will be switched off!
NOSYMM: (Re-)initialisation of all symmetry stuff for point group C_1.


----------------------------------------------------------------------------------------

                                     Primitive cell                                     

  volume of cell :     201.6185

  direct lattice vectors                    reciprocal lattice vectors
     3.850000000  0.000000000  0.000000000     0.259740260  0.000000000  0.000000000
     0.000000000  4.700000000  0.000000000     0.000000000  0.212765957  0.000000000
     0.000000000  0.000000000 11.142221000     0.000000000  0.000000000  0.089748713

  length of vectors
     3.850000000  4.700000000 11.142221000     0.259740260  0.212765957  0.089748713

  position of ions in fractional coordinates (direct lattice)
     0.250000000  0.112322304  0.124328867
     0.750000000  0.612322304  0.375671133
     0.750000000  0.887677696  0.875671133
     0.250000000  0.387677696  0.624328867
     0.250000000  0.977546691  0.350368490
     0.750000000  0.477546691  0.149631510
     0.750000000  0.022453309  0.649631510
     0.250000000  0.522453309  0.850368490

  ion indices of the primitive-cell ions
   primitive index   ion index
                 1           1
                 2           2
                 3           3
                 4           4
                 5           5
                 6           6
                 7           7
                 8           8

----------------------------------------------------------------------------------------

 
 
 KPOINTS: KPOINTS created by Atomic Simulation Env

Automatic generation of k-mesh.
 Grid dimensions read from file:
 generate k-points for:    6    6    2

 Generating k-lattice:

  Cartesian coordinates                     Fractional coordinates (reciprocal lattice)
     0.043290043  0.000000000  0.000000000     0.166666667  0.000000000  0.000000000
     0.000000000  0.035460993  0.000000000     0.000000000  0.166666667  0.000000000
     0.000000000  0.000000000  0.044874357     0.000000000  0.000000000  0.500000000

  Length of vectors
     0.043290043  0.035460993  0.044874357

  Shift w.r.t. Gamma in fractional coordinates (k-lattice)
     0.000000000  0.000000000  0.000000000

 
 Subroutine IBZKPT returns following result:
 ===========================================
 
 Found     40 irreducible k-points:
 
 Following reciprocal coordinates:
            Coordinates               Weight
  0.000000  0.000000  0.000000      1.000000
  0.166667  0.000000  0.000000      2.000000
  0.333333  0.000000  0.000000      2.000000
  0.500000  0.000000  0.000000      1.000000
  0.000000  0.166667  0.000000      2.000000
  0.166667  0.166667  0.000000      2.000000
  0.166667 -0.166667  0.000000      2.000000
  0.333333  0.166667  0.000000      2.000000
  0.333333 -0.166667  0.000000      2.000000
  0.500000  0.166667  0.000000      2.000000
  0.000000  0.333333  0.000000      2.000000
  0.166667  0.333333  0.000000      2.000000
  0.166667 -0.333333  0.000000      2.000000
  0.333333  0.333333  0.000000      2.000000
  0.333333 -0.333333  0.000000      2.000000
  0.500000  0.333333  0.000000      2.000000
  0.000000  0.500000  0.000000      1.000000
  0.166667  0.500000  0.000000      2.000000
  0.333333  0.500000  0.000000      2.000000
  0.500000  0.500000  0.000000      1.000000
  0.000000  0.000000  0.500000      1.000000
  0.166667  0.000000  0.500000      2.000000
  0.333333  0.000000  0.500000      2.000000
  0.500000  0.000000  0.500000      1.000000
  0.000000  0.166667  0.500000      2.000000
  0.166667  0.166667  0.500000      2.000000
  0.166667 -0.166667  0.500000      2.000000
  0.333333  0.166667  0.500000      2.000000
  0.333333 -0.166667  0.500000      2.000000
  0.500000  0.166667  0.500000      2.000000
  0.000000  0.333333  0.500000      2.000000
  0.166667  0.333333  0.500000      2.000000
  0.166667 -0.333333  0.500000      2.000000
  0.333333  0.333333  0.500000      2.000000
  0.333333 -0.333333  0.500000      2.000000
  0.500000  0.333333  0.500000      2.000000
  0.000000  0.500000  0.500000      1.000000
  0.166667  0.500000  0.500000      2.000000
  0.333333  0.500000  0.500000      2.000000
  0.500000  0.500000  0.500000      1.000000
 
 Following cartesian coordinates:
            Coordinates               Weight
  0.000000  0.000000  0.000000      1.000000
  0.043290  0.000000  0.000000      2.000000
  0.086580  0.000000  0.000000      2.000000
  0.129870  0.000000  0.000000      1.000000
  0.000000  0.035461  0.000000      2.000000
  0.043290  0.035461  0.000000      2.000000
  0.043290 -0.035461  0.000000      2.000000
  0.086580  0.035461  0.000000      2.000000
  0.086580 -0.035461  0.000000      2.000000
  0.129870  0.035461  0.000000      2.000000
  0.000000  0.070922  0.000000      2.000000
  0.043290  0.070922  0.000000      2.000000
  0.043290 -0.070922  0.000000      2.000000
  0.086580  0.070922  0.000000      2.000000
  0.086580 -0.070922  0.000000      2.000000
  0.129870  0.070922  0.000000      2.000000
  0.000000  0.106383  0.000000      1.000000
  0.043290  0.106383  0.000000      2.000000
  0.086580  0.106383  0.000000      2.000000
  0.129870  0.106383  0.000000      1.000000
  0.000000  0.000000  0.044874      1.000000
  0.043290  0.000000  0.044874      2.000000
  0.086580  0.000000  0.044874      2.000000
  0.129870  0.000000  0.044874      1.000000
  0.000000  0.035461  0.044874      2.000000
  0.043290  0.035461  0.044874      2.000000
  0.043290 -0.035461  0.044874      2.000000
  0.086580  0.035461  0.044874      2.000000
  0.086580 -0.035461  0.044874      2.000000
  0.129870  0.035461  0.044874      2.000000
  0.000000  0.070922  0.044874      2.000000
  0.043290  0.070922  0.044874      2.000000
  0.043290 -0.070922  0.044874      2.000000
  0.086580  0.070922  0.044874      2.000000
  0.086580 -0.070922  0.044874      2.000000
  0.129870  0.070922  0.044874      2.000000
  0.000000  0.106383  0.044874      1.000000
  0.043290  0.106383  0.044874      2.000000
  0.086580  0.106383  0.044874      2.000000
  0.129870  0.106383  0.044874      1.000000
 


--------------------------------------------------------------------------------------------------------




 Dimension of arrays:
   k-points           NKPTS =     40   k-points in BZ     NKDIM =     40   number of bands    NBANDS=     32
   number of dos      NEDOS =    301   number of ions     NIONS =      8
   non local maximal  LDIM  =      5   non local SUM 2l+1 LMDIM =     13
   total plane-waves  NPLWV =  23328
   max r-space proj   IRMAX =      1   max aug-charges    IRDMAX=   6487
   dimension x,y,z NGX =    18 NGY =   24 NGZ =   54
   dimension x,y,z NGXF=    36 NGYF=   48 NGZF=  108
   support grid    NGXF=    36 NGYF=   48 NGZF=  108
   ions per type =               4   4
   NGX,Y,Z   is equivalent  to a cutoff of   7.77,  8.49,  8.06 a.u.
   NGXF,Y,Z  is equivalent  to a cutoff of  15.55, 16.98, 16.11 a.u.

 SYSTEM =  ./                                      
 POSCAR =  Ge Se                                   

 Startparameter for this run:
   NWRITE =      2    write-flag & timer
   PREC   = normal    normal or accurate (medium, high low for compatibility)
   ISTART =      0    job   : 0-new  1-cont  2-samecut
   ICHARG =      2    charge: 1-file 2-atom 10-const
   ISPIN  =      1    spin polarized calculation?
   LNONCOLLINEAR =      F non collinear calculations
   LSORBIT =      F    spin-orbit coupling
   INIWAV =      1    electr: 0-lowe 1-rand  2-diag
   LASPH  =      T    aspherical Exc in radial PAW
 Electronic Relaxation 1
   ENCUT  =  360.0 eV  26.46 Ry    5.14 a.u.   5.96  7.27 17.24*2*pi/ulx,y,z
   ENINI  =  360.0     initial cutoff
   ENAUG  =  446.8 eV  augmentation charge cutoff
   NELM   =    100;   NELMIN=  2; NELMDL= -5     # of ELM steps 
   EDIFF  = 0.1E-05   stopping-criterion for ELM
   LREAL  =      F    real-space projection
   NLSPLINE    = F    spline interpolate recip. space projectors
   LCOMPAT=      F    compatible to vasp.4.4
   GGA_COMPAT  = T    GGA compatible to vasp.4.4-vasp.4.6
   LMAXPAW     = -100 max onsite density
   LMAXMIX     =    4 max onsite mixed and CHGCAR
   VOSKOWN=      0    Vosko Wilk Nusair interpolation
   ROPT   =    0.00000   0.00000
 Ionic relaxation
   EDIFFG = 0.1E-04   stopping-criterion for IOM
   NSW    =      0    number of steps for IOM
   NBLOCK =      1;   KBLOCK =      1    inner block; outer block 
   IBRION =     -1    ionic relax: 0-MD 1-quasi-New 2-CG
   NFREE  =      0    steps in history (QN), initial steepest desc. (CG)
   ISIF   =      2    stress and relaxation
   IWAVPR =     10    prediction:  0-non 1-charg 2-wave 3-comb
   ISYM   =      0    0-nonsym 1-usesym 2-fastsym
   LCORR  =      T    Harris-Foulkes like correction to forces

   POTIM  = 0.5000    time-step for ionic-motion
   TEIN   =    0.0    initial temperature
   TEBEG  =    0.0;   TEEND  =   0.0 temperature during run
   SMASS  =  -3.00    Nose mass-parameter (am)
   estimated Nose-frequenzy (Omega)   =  0.10E-29 period in steps = 0.13E+47 mass=  -0.339E-27a.u.
   SCALEE = 1.0000    scale energy and forces
   NPACO  =    256;   APACO  = 10.0  distance and # of slots for P.C.
   PSTRESS=    0.0 pullay stress

  Mass of Ions in am
   POMASS =  72.61 78.96
  Ionic Valenz
   ZVAL   =   4.00  6.00
  Atomic Wigner-Seitz radii
   RWIGS  =  -1.00 -1.00
  virtual crystal weights 
   VCA    =   1.00  1.00
   NELECT =      40.0000    total number of electrons
   NUPDOWN=      -1.0000    fix difference up-down

 DOS related values:
   EMIN   =  10.00;   EMAX   =-10.00  energy-range for DOS
   EFERMI =   0.00;   METHOD = LEGACY      
   ISMEAR =     0;   SIGMA  =   0.05  broadening in eV -4-tet -1-fermi 0-gaus

 Electronic relaxation 2 (details)
   IALGO  =     38    algorithm
   LDIAG  =      T    sub-space diagonalisation (order eigenvalues)
   LSUBROT=      F    optimize rotation matrix (better conditioning)
   TURBO    =      0    0=normal 1=particle mesh
   IRESTART =      0    0=no restart 2=restart with 2 vectors
   NREBOOT  =      0    no. of reboots
   NMIN     =      0    reboot dimension
   EREF     =   0.00    reference energy to select bands
   IMIX   =      4    mixing-type and parameters
     AMIX     =   0.40;   BMIX     =  1.00
     AMIX_MAG =   1.60;   BMIX_MAG =  1.00
     AMIN     =   0.10
     WC   =   100.;   INIMIX=   1;  MIXPRE=   1;  MAXMIX= -45

 Intra band minimization:
   WEIMIN = 0.0000     energy-eigenvalue tresh-hold
   EBREAK =  0.78E-08  absolut break condition
   DEPER  =   0.30     relativ break condition  

   TIME   =   0.40     timestep for ELM

  volume/ion in A,a.u.               =      25.20       170.07
  Fermi-wavevector in a.u.,A,eV,Ry     =   0.954812  1.804334 12.403978  0.911667
  Thomas-Fermi vector in A             =   2.083593
 
 Write flags
   LWAVE        =      F    write WAVECAR
   LDOWNSAMPLE  =      F    k-point downsampling of WAVECAR
   LCHARG       =      F    write CHGCAR
   LVTOT        =      F    write LOCPOT, total local potential
   LVHAR        =      F    write LOCPOT, Hartree potential only
   LELF         =      F    write electronic localiz. function (ELF)
   LORBIT       =      0    0 simple, 1 ext, 2 COOP (PROOUT), +10 PAW based schemes


 Dipole corrections
   LMONO  =      F    monopole corrections only (constant potential shift)
   LDIPOL =      F    correct potential (dipole corrections)
   IDIPOL =      0    1-x, 2-y, 3-z, 4-all directions 
   EPSILON=  1.0000000 bulk dielectric constant

 Exchange correlation treatment:
   GGA     =    PE    GGA type
   LEXCH   =     8    internal setting for exchange type
   LIBXC   =     F    Libxc                    
   VOSKOWN =     0    Vosko Wilk Nusair interpolation
   LHFCALC =     F    Hartree Fock is set to
   LHFONE  =     F    Hartree Fock one center treatment
   AEXX    =    0.0000 exact exchange contribution

 Linear response parameters
   LEPSILON=     F    determine dielectric tensor
   LRPA    =     F    only Hartree local field effects (RPA)
   LNABLA  =     F    use nabla operator in PAW spheres
   LVEL    =     F    velocity operator in full k-point grid
   CSHIFT  =0.1000    complex shift for real part using Kramers Kronig
   OMEGAMAX=  -1.0    maximum frequency
   DEG_THRESHOLD= 0.2000000E-02 threshold for treating states as degnerate
   RTIME   =   -0.100 relaxation time in fs
  (WPLASMAI=    0.000 imaginary part of plasma frequency in eV, 0.658/RTIME)
   DFIELD  = 0.0000000 0.0000000 0.0000000 field for delta impulse in time
 
  Optional k-point grid parameters
   LKPOINTS_OPT  =     F    use optional k-point grid
   KPOINTS_OPT_MODE=     1    mode for optional k-point grid
 
 Orbital magnetization related:
   ORBITALMAG=     F  switch on orbital magnetization
   LCHIMAG   =     F  perturbation theory with respect to B field
   DQ        =  0.001000  dq finite difference perturbation B field
   LLRAUG    =     F  two centre corrections for induced B field
   LBONE     =     F  B-component reconstruction in AE one-centre
   LVGVCALC  =     T  calculate vGv susceptibility
   LVGVAPPL  =     F  apply vGv susceptibility instead of pGv for G=0

 Random number generation:
   RANDOM_GENERATOR = DEFAULT
   PCG_SEED         = not used


--------------------------------------------------------------------------------------------------------


 Static calculation
 charge density and potential will be updated during run
 non-spin polarized calculation
 Variant of blocked Davidson
 Davidson routine will perform the subspace rotation
 perform sub-space diagonalisation
    after iterative eigenvector-optimisation
 modified Broyden-mixing scheme, WC =      100.0
 initial mixing is a Kerker type mixing with AMIX =  0.4000 and BMIX =      1.0000
 Hartree-type preconditioning will be used
 using additional bands            12
 reciprocal scheme for non local part
 use partial core corrections
 calculate Harris-corrections to forces 
   (improved forces if not selfconsistent)
 use gradient corrections 
 use of overlap-Matrix (Vanderbilt PP)
 Gauss-broadening in eV      SIGMA  =   0.05


--------------------------------------------------------------------------------------------------------


  energy-cutoff  :      360.00
  volume of cell :      201.62
      direct lattice vectors                 reciprocal lattice vectors
     3.850000000  0.000000000  0.000000000     0.259740260  0.000000000  0.000000000
     0.000000000  4.700000000  0.000000000     0.000000000  0.212765957  0.000000000
     0.000000000  0.000000000 11.142221000     0.000000000  0.000000000  0.089748713

  length of vectors
     3.850000000  4.700000000 11.142221000     0.259740260  0.212765957  0.089748713


 
 k-points in units of 2pi/SCALE and weight: KPOINTS created by Atomic Simulation Env
   0.00000000  0.00000000  0.00000000       0.014
   0.04329004  0.00000000  0.00000000       0.028
   0.08658009  0.00000000  0.00000000       0.028
   0.12987013  0.00000000  0.00000000       0.014
   0.00000000  0.03546099  0.00000000       0.028
   0.04329004  0.03546099  0.00000000       0.028
   0.04329004 -0.03546099  0.00000000       0.028
   0.08658009  0.03546099  0.00000000       0.028
   0.08658009 -0.03546099  0.00000000       0.028
   0.12987013  0.03546099  0.00000000       0.028
   0.00000000  0.07092199  0.00000000       0.028
   0.04329004  0.07092199  0.00000000       0.028
   0.04329004 -0.07092199  0.00000000       0.028
   0.08658009  0.07092199  0.00000000       0.028
   0.08658009 -0.07092199  0.00000000       0.028
   0.12987013  0.07092199  0.00000000       0.028
   0.00000000  0.10638298  0.00000000       0.014
   0.04329004  0.10638298  0.00000000       0.028
   0.08658009  0.10638298  0.00000000       0.028
   0.12987013  0.10638298  0.00000000       0.014
   0.00000000  0.00000000  0.04487436       0.014
   0.04329004  0.00000000  0.04487436       0.028
   0.08658009  0.00000000  0.04487436       0.028
   0.12987013  0.00000000  0.04487436       0.014
   0.00000000  0.03546099  0.04487436       0.028
   0.04329004  0.03546099  0.04487436       0.028
   0.04329004 -0.03546099  0.04487436       0.028
   0.08658009  0.03546099  0.04487436       0.028
   0.08658009 -0.03546099  0.04487436       0.028
   0.12987013  0.03546099  0.04487436       0.028
   0.00000000  0.07092199  0.04487436       0.028
   0.04329004  0.07092199  0.04487436       0.028
   0.04329004 -0.07092199  0.04487436       0.028
   0.08658009  0.07092199  0.04487436       0.028
   0.08658009 -0.07092199  0.04487436       0.028
   0.12987013  0.07092199  0.04487436       0.028
   0.00000000  0.10638298  0.04487436       0.014
   0.04329004  0.10638298  0.04487436       0.028
   0.08658009  0.10638298  0.04487436       0.028
   0.12987013  0.10638298  0.04487436       0.014
 
 k-points in reciprocal lattice and weights: KPOINTS created by Atomic Simulation Env
   0.00000000  0.00000000  0.00000000       0.014
   0.16666667  0.00000000  0.00000000       0.028
   0.33333333  0.00000000  0.00000000       0.028
   0.50000000  0.00000000  0.00000000       0.014
   0.00000000  0.16666667  0.00000000       0.028
   0.16666667  0.16666667  0.00000000       0.028
   0.16666667 -0.16666667  0.00000000       0.028
   0.33333333  0.16666667  0.00000000       0.028
   0.33333333 -0.16666667  0.00000000       0.028
   0.50000000  0.16666667  0.00000000       0.028
   0.00000000  0.33333333  0.00000000       0.028
   0.16666667  0.33333333  0.00000000       0.028
   0.16666667 -0.33333333  0.00000000       0.028
   0.33333333  0.33333333  0.00000000       0.028
   0.33333333 -0.33333333  0.00000000       0.028
   0.50000000  0.33333333  0.00000000       0.028
   0.00000000  0.50000000  0.00000000       0.014
   0.16666667  0.50000000  0.00000000       0.028
   0.33333333  0.50000000  0.00000000       0.028
   0.50000000  0.50000000  0.00000000       0.014
   0.00000000  0.00000000  0.50000000       0.014
   0.16666667  0.00000000  0.50000000       0.028
   0.33333333  0.00000000  0.50000000       0.028
   0.50000000  0.00000000  0.50000000       0.014
   0.00000000  0.16666667  0.50000000       0.028
   0.16666667  0.16666667  0.50000000       0.028
   0.16666667 -0.16666667  0.50000000       0.028
   0.33333333  0.16666667  0.50000000       0.028
   0.33333333 -0.16666667  0.50000000       0.028
   0.50000000  0.16666667  0.50000000       0.028
   0.00000000  0.33333333  0.50000000       0.028
   0.16666667  0.33333333  0.50000000       0.028
   0.16666667 -0.33333333  0.50000000       0.028
   0.33333333  0.33333333  0.50000000       0.028
   0.33333333 -0.33333333  0.50000000       0.028
   0.50000000  0.33333333  0.50000000       0.028
   0.00000000  0.50000000  0.50000000       0.014
   0.16666667  0.50000000  0.50000000       0.028
   0.33333333  0.50000000  0.50000000       0.028
   0.50000000  0.50000000  0.50000000       0.014
 
 position of ions in fractional coordinates (direct lattice) 
   0.25000000  0.11232230  0.12432887
   0.75000000  0.61232230  0.37567113
   0.75000000  0.88767770  0.87567113
   0.25000000  0.38767770  0.62432887
   0.25000000  0.97754669  0.35036849
   0.75000000  0.47754669  0.14963151
   0.75000000  0.02245331  0.64963151
   0.25000000  0.52245331  0.85036849
 
 position of ions in cartesian coordinates  (Angst):
   0.96250000  0.52791483  1.38529971
   2.88750000  2.87791483  4.18581079
   2.88750000  4.17208517  9.75692129
   0.96250000  1.82208517  6.95641021
   0.96250000  4.59446945  3.90388315
   2.88750000  2.24446945  1.66722735
   2.88750000  0.10553055  7.23833785
   0.96250000  2.45553055  9.47499365
 


--------------------------------------------------------------------------------------------------------


 k-point   1 :   0.0000 0.0000 0.0000  plane waves:    3135
 k-point   2 :   0.1667 0.0000 0.0000  plane waves:    3144
 k-point   3 :   0.3333 0.0000 0.0000  plane waves:    3126
 k-point   4 :   0.5000 0.0000 0.0000  plane waves:    3128
 k-point   5 :   0.0000 0.1667 0.0000  plane waves:    3103
 k-point   6 :   0.1667 0.1667 0.0000  plane waves:    3127
 k-point   7 :   0.1667-0.1667 0.0000  plane waves:    3127
 k-point   8 :   0.3333 0.1667 0.0000  plane waves:    3136
 k-point   9 :   0.3333-0.1667 0.0000  plane waves:    3136
 k-point  10 :   0.5000 0.1667 0.0000  plane waves:    3132
 k-point  11 :   0.0000 0.3333 0.0000  plane waves:    3100
 k-point  12 :   0.1667 0.3333 0.0000  plane waves:    3114
 k-point  13 :   0.1667-0.3333 0.0000  plane waves:    3114
 k-point  14 :   0.3333 0.3333 0.0000  plane waves:    3134
 k-point  15 :   0.3333-0.3333 0.0000  plane waves:    3134
 k-point  16 :   0.5000 0.3333 0.0000  plane waves:    3142
 k-point  17 :   0.0000 0.5000 0.0000  plane waves:    3110
 k-point  18 :   0.1667 0.5000 0.0000  plane waves:    3130
 k-point  19 :   0.3333 0.5000 0.0000  plane waves:    3130
 k-point  20 :   0.5000 0.5000 0.0000  plane waves:    3148
 k-point  21 :   0.0000 0.0000 0.5000  plane waves:    3122
 k-point  22 :   0.1667 0.0000 0.5000  plane waves:    3120
 k-point  23 :   0.3333 0.0000 0.5000  plane waves:    3142
 k-point  24 :   0.5000 0.0000 0.5000  plane waves:    3136
 k-point  25 :   0.0000 0.1667 0.5000  plane waves:    3124
 k-point  26 :   0.1667 0.1667 0.5000  plane waves:    3130
 k-point  27 :   0.1667-0.1667 0.5000  plane waves:    3130
 k-point  28 :   0.3333 0.1667 0.5000  plane waves:    3138
 k-point  29 :   0.3333-0.1667 0.5000  plane waves:    3138
 k-point  30 :   0.5000 0.1667 0.5000  plane waves:    3136
 k-point  31 :   0.0000 0.3333 0.5000  plane waves:    3110
 k-point  32 :   0.1667 0.3333 0.5000  plane waves:    3118
 k-point  33 :   0.1667-0.3333 0.5000  plane waves:    3118
 k-point  34 :   0.3333 0.3333 0.5000  plane waves:    3138
 k-point  35 :   0.3333-0.3333 0.5000  plane waves:    3138
 k-point  36 :   0.5000 0.3333 0.5000  plane waves:    3140
 k-point  37 :   0.0000 0.5000 0.5000  plane waves:    3096
 k-point  38 :   0.1667 0.5000 0.5000  plane waves:    3124
 k-point  39 :   0.3333 0.5000 0.5000  plane waves:    3140
 k-point  40 :   0.5000 0.5000 0.5000  plane waves:    3160

 maximum and minimum number of plane-waves per node :       814      758

 maximum number of plane-waves:      3160
 maximum index in each direction: 
   IXMAX=    5   IYMAX=    7   IZMAX=   17
   IXMIN=   -6   IYMIN=   -7   IZMIN=  -17


 parallel 3D FFT for wavefunctions:
    minimum data exchange during FFTs selected (reduces bandwidth)
 parallel 3D FFT for charge:
    minimum data exchange during FFTs selected (reduces bandwidth)


 total amount of memory used by VASP MPI-rank0    38761. kBytes
=======================================================================

   base      :      30000. kBytes
   nonl-proj :       6758. kBytes
   fftplans  :        368. kBytes
   grid      :        555. kBytes
   one-center:         16. kBytes
   wavefun   :       1064. kBytes
 
     INWAV:  cpu time      0.0000: real time      0.0001
 Broyden mixing: mesh for mixing (old mesh)
   NGX = 11   NGY = 15   NGZ = 35
  (NGX  = 36   NGY  = 48   NGZ  =108)
  gives a total of   5775 points

 initial charge density was supplied:
 charge density of overlapping atoms calculated
 number of electron      40.0000000 magnetization 
 keeping initial charge density in first step


--------------------------------------------------------------------------------------------------------


 Maximum index for augmentation-charges           133 (set IRDMAX)


--------------------------------------------------------------------------------------------------------


 First call to EWALD:  gamma=   0.302
 Maximum number of real-space cells 4x 3x 2
 Maximum number of reciprocal cells 2x 2x 5

    FEWALD:  cpu time      0.0035: real time      0.0035


--------------------------------------- Ionic step        1  -------------------------------------------




--------------------------------------- Iteration      1(   1)  ---------------------------------------


    POTLOK:  cpu time      0.0060: real time      0.0065
    SETDIJ:  cpu time      0.1387: real time      0.1395
     EDDAV:  cpu time      0.2651: real time      0.2679
       DOS:  cpu time      0.0017: real time      0.0018
    --------------------------------------------
      LOOP:  cpu time      0.4114: real time      0.4157

 eigenvalue-minimisations  :  2560
 total energy-change (2. order) : 0.1317231E+03  (-0.1282422E+04)
 number of electron      40.0000000 magnetization 
 augmentation part       40.0000000 magnetization 

 Free energy of the ion-electron system (eV)
  ---------------------------------------------------
  alpha Z        PSCENC =        84.04212096
  Ewald energy   TEWEN  =     -1392.73307368
  -Hartree energ DENC   =      -138.62122500
  -exchange      EXHF   =         0.00000000
  -V(xc)+E(xc)   XCENC  =       -33.83362633
  PAW double counting   =      1193.78262552    -1080.73714043
  entropy T*S    EENTRO =        -0.00634228
  eigenvalues    EBANDS =        51.34510814
  atomic energy  EATOM  =      1448.48460880
  Solvation  Ediel_sol  =         0.00000000
  ---------------------------------------------------
  free energy    TOTEN  =       131.72305570 eV

  energy without entropy =      131.72939798  energy(sigma->0) =      131.72622684


--------------------------------------------------------------------------------------------------------




--------------------------------------- Iteration      1(   2)  ---------------------------------------


     EDDAV:  cpu time      0.3475: real time      0.3509
       DOS:  cpu time      0.0005: real time      0.0006
    --------------------------------------------
      LOOP:  cpu time      0.3480: real time      0.3515

 eigenvalue-minimisations  :  3792
 total energy-change (2. order) :-0.1571079E+03  (-0.1519605E+03)
 number of electron      40.0000000 magnetization 
 augmentation part       40.0000000 magnetization 

 Free energy of the ion-electron system (eV)
  ---------------------------------------------------
  alpha Z        PSCENC =        84.04212096
  Ewald energy   TEWEN  =     -1392.73307368
  -Hartree energ DENC   =      -138.62122500
  -exchange      EXHF   =         0.00000000
  -V(xc)+E(xc)   XCENC  =       -33.83362633
  PAW double counting   =      1193.78262552    -1080.73714043
  entropy T*S    EENTRO =        -0.00000000
  eigenvalues    EBANDS =      -105.76915976
  atomic energy  EATOM  =      1448.48460880
  Solvation  Ediel_sol  =         0.00000000
  ---------------------------------------------------
  free energy    TOTEN  =       -25.38486992 eV

  energy without entropy =      -25.38486992  energy(sigma->0) =      -25.38486992


--------------------------------------------------------------------------------------------------------




--------------------------------------- Iteration      1(   3)  ---------------------------------------


     EDDAV:  cpu time      0.3001: real time      0.3034
       DOS:  cpu time      0.0006: real time      0.0005
    --------------------------------------------
      LOOP:  cpu time      0.3006: real time      0.3039

 eigenvalue-minimisations  :  3152
 total energy-change (2. order) :-0.8773648E+01  (-0.8757120E+01)
 number of electron      40.0000000 magnetization 
 augmentation part       40.0000000 magnetization 

 Free energy of the ion-electron system (eV)
  ---------------------------------------------------
  alpha Z        PSCENC =        84.04212096
  Ewald energy   TEWEN  =     -1392.73307368
  -Hartree energ DENC   =      -138.62122500
  -exchange      EXHF   =         0.00000000
  -V(xc)+E(xc)   XCENC  =       -33.83362633
  PAW double counting   =      1193.78262552    -1080.73714043
  entropy T*S    EENTRO =        -0.00000000
  eigenvalues    EBANDS =      -114.54280749
  atomic energy  EATOM  =      1448.48460880
  Solvation  Ediel_sol  =         0.00000000
  ---------------------------------------------------
  free energy    TOTEN  =       -34.15851765 eV

  energy without entropy =      -34.15851765  energy(sigma->0) =      -34.15851765


--------------------------------------------------------------------------------------------------------




--------------------------------------- Iteration      1(   4)  ---------------------------------------


     EDDAV:  cpu time      0.3052: real time      0.3089
       DOS:  cpu time      0.0006: real time      0.0006
    --------------------------------------------
      LOOP:  cpu time      0.3058: real time      0.3095

 eigenvalue-minimisations  :  3296
 total energy-change (2. order) :-0.6076516E-01  (-0.6075790E-01)
 number of electron      40.0000000 magnetization 
 augmentation part       40.0000000 magnetization 

 Free energy of the ion-electron system (eV)
  ---------------------------------------------------
  alpha Z        PSCENC =        84.04212096
  Ewald energy   TEWEN  =     -1392.73307368
  -Hartree energ DENC   =      -138.62122500
  -exchange      EXHF   =         0.00000000
  -V(xc)+E(xc)   XCENC  =       -33.83362633
  PAW double counting   =      1193.78262552    -1080.73714043
  entropy T*S    EENTRO =        -0.00000000
  eigenvalues    EBANDS =      -114.60357265
  atomic energy  EATOM  =      1448.48460880
  Solvation  Ediel_sol  =         0.00000000
  ---------------------------------------------------
  free energy    TOTEN  =       -34.21928281 eV

  energy without entropy =      -34.21928281  energy(sigma->0) =      -34.21928281


--------------------------------------------------------------------------------------------------------




--------------------------------------- Iteration      1(   5)  ---------------------------------------


     EDDAV:  cpu time      0.3106: real time      0.3140
       DOS:  cpu time      0.0006: real time      0.0005
    CHARGE:  cpu time      0.0047: real time      0.0048
    MIXING:  cpu time      0.0007: real time      0.0007
    --------------------------------------------
      LOOP:  cpu time      0.3165: real time      0.3200

 eigenvalue-minimisations  :  3232
 total energy-change (2. order) :-0.3734450E-03  (-0.3734427E-03)
 number of electron      39.9999980 magnetization 
 augmentation part       -7.3981304 magnetization 

 Broyden mixing:
  rms(total) = 0.64019E+00    rms(broyden)= 0.64017E+00
  rms(prec ) = 0.72866E+00
  weight for this iteration     100.00

 Free energy of the ion-electron system (eV)
  ---------------------------------------------------
  alpha Z        PSCENC =        84.04212096
  Ewald energy   TEWEN  =     -1392.73307368
  -Hartree energ DENC   =      -138.62122500
  -exchange      EXHF   =         0.00000000
  -V(xc)+E(xc)   XCENC  =       -33.83362633
  PAW double counting   =      1193.78262552    -1080.73714043
  entropy T*S    EENTRO =        -0.00000000
  eigenvalues    EBANDS =      -114.60394609
  atomic energy  EATOM  =      1448.48460880
  Solvation  Ediel_sol  =         0.00000000
  ---------------------------------------------------
  free energy    TOTEN  =       -34.21965625 eV

  energy without entropy =      -34.21965625  energy(sigma->0) =      -34.21965625


--------------------------------------------------------------------------------------------------------




--------------------------------------- Iteration      1(   6)  ---------------------------------------


    POTLOK:  cpu time      0.0056: real time      0.0058
    SETDIJ:  cpu time      0.1374: real time      0.1382
     EDDAV:  cpu time      0.3183: real time      0.3219
       DOS:  cpu time      0.0013: real time      0.0013
    CHARGE:  cpu time      0.0060: real time      0.0060
    MIXING:  cpu time      0.0006: real time      0.0006
    --------------------------------------------
      LOOP:  cpu time      0.4692: real time      0.4738

 eigenvalue-minimisations  :  3120
 total energy-change (2. order) : 0.3968534E+00  (-0.8199210E-01)
 number of electron      39.9999981 magnetization 
 augmentation part       -7.3393625 magnetization 

 Broyden mixing:
  rms(total) = 0.40296E+00    rms(broyden)= 0.40296E+00
  rms(prec ) = 0.42627E+00
  weight for this iteration     100.00

 eigenvalues of (default mixing * dielectric matrix)
  average eigenvalue GAMMA=   2.1617
  2.1617

 Free energy of the ion-electron system (eV)
  ---------------------------------------------------
  alpha Z        PSCENC =        84.04212096
  Ewald energy   TEWEN  =     -1392.73307368
  -Hartree energ DENC   =      -144.72681350
  -exchange      EXHF   =         0.00000000
  -V(xc)+E(xc)   XCENC  =       -33.20898999
  PAW double counting   =      1452.53505893    -1339.80572914
  entropy T*S    EENTRO =        -0.00000000
  eigenvalues    EBANDS =      -108.40998520
  atomic energy  EATOM  =      1448.48460880
  Solvation  Ediel_sol  =         0.00000000
  ---------------------------------------------------
  free energy    TOTEN  =       -33.82280281 eV

  energy without entropy =      -33.82280281  energy(sigma->0) =      -33.82280281


--------------------------------------------------------------------------------------------------------




--------------------------------------- Iteration      1(   7)  ---------------------------------------


    POTLOK:  cpu time      0.0056: real time      0.0058
    SETDIJ:  cpu time      0.1383: real time      0.1391
     EDDAV:  cpu time      0.2689: real time      0.2718
       DOS:  cpu time      0.0007: real time      0.0007
    CHARGE:  cpu time      0.0046: real time      0.0047
    MIXING:  cpu time      0.0005: real time      0.0005
    --------------------------------------------
      LOOP:  cpu time      0.4186: real time      0.4225

 eigenvalue-minimisations  :  2848
 total energy-change (2. order) : 0.1336238E-01  (-0.2346383E-01)
 number of electron      39.9999981 magnetization 
 augmentation part       -7.3270697 magnetization 

 Broyden mixing:
  rms(total) = 0.13432E+00    rms(broyden)= 0.13432E+00
  rms(prec ) = 0.14350E+00
  weight for this iteration     100.00

 eigenvalues of (default mixing * dielectric matrix)
  average eigenvalue GAMMA=   1.7847
  1.1800  2.3894

 Free energy of the ion-electron system (eV)
  ---------------------------------------------------
  alpha Z        PSCENC =        84.04212096
  Ewald energy   TEWEN  =     -1392.73307368
  -Hartree energ DENC   =      -147.36166624
  -exchange      EXHF   =         0.00000000
  -V(xc)+E(xc)   XCENC  =       -32.73001996
  PAW double counting   =      1765.19925406    -1652.69672372
  entropy T*S    EENTRO =        -0.00000000
  eigenvalues    EBANDS =      -106.01394067
  atomic energy  EATOM  =      1448.48460880
  Solvation  Ediel_sol  =         0.00000000
  ---------------------------------------------------
  free energy    TOTEN  =       -33.80944044 eV

  energy without entropy =      -33.80944044  energy(sigma->0) =      -33.80944044


--------------------------------------------------------------------------------------------------------




--------------------------------------- Iteration      1(   8)  ---------------------------------------


    POTLOK:  cpu time      0.0055: real time      0.0057
    SETDIJ:  cpu time      0.1374: real time      0.1381
     EDDAV:  cpu time      0.2827: real time      0.2858
       DOS:  cpu time      0.0006: real time      0.0006
    CHARGE:  cpu time      0.0044: real time      0.0045
    MIXING:  cpu time      0.0005: real time      0.0005
    --------------------------------------------
      LOOP:  cpu time      0.4311: real time      0.4352

 eigenvalue-minimisations  :  3008
 total energy-change (2. order) : 0.1094398E-02  (-0.2224385E-02)
 number of electron      39.9999981 magnetization 
 augmentation part       -7.3352011 magnetization 

 Broyden mixing:
  rms(total) = 0.18376E-01    rms(broyden)= 0.18376E-01
  rms(prec ) = 0.22615E-01
  weight for this iteration     100.00

 eigenvalues of (default mixing * dielectric matrix)
  average eigenvalue GAMMA=   1.6833
  2.4941  1.2779  1.2779

 Free energy of the ion-electron system (eV)
  ---------------------------------------------------
  alpha Z        PSCENC =        84.04212096
  Ewald energy   TEWEN  =     -1392.73307368
  -Hartree energ DENC   =      -147.57827629
  -exchange      EXHF   =         0.00000000
  -V(xc)+E(xc)   XCENC  =       -32.57053465
  PAW double counting   =      1908.73418265    -1796.29520464
  entropy T*S    EENTRO =        -0.00000000
  eigenvalues    EBANDS =      -105.89216919
  atomic energy  EATOM  =      1448.48460880
  Solvation  Ediel_sol  =         0.00000000
  ---------------------------------------------------
  free energy    TOTEN  =       -33.80834604 eV

  energy without entropy =      -33.80834604  energy(sigma->0) =      -33.80834604


--------------------------------------------------------------------------------------------------------




--------------------------------------- Iteration      1(   9)  ---------------------------------------


    POTLOK:  cpu time      0.0055: real time      0.0057
    SETDIJ:  cpu time      0.1369: real time      0.1379
     EDDAV:  cpu time      0.2898: real time      0.2929
       DOS:  cpu time      0.0006: real time      0.0006
    CHARGE:  cpu time      0.0044: real time      0.0045
    MIXING:  cpu time      0.0006: real time      0.0006
    --------------------------------------------
      LOOP:  cpu time      0.4377: real time      0.4421

 eigenvalue-minimisations  :  3120
 total energy-change (2. order) :-0.2604008E-03  (-0.3808694E-03)
 number of electron      39.9999981 magnetization 
 augmentation part       -7.3330287 magnetization 

 Broyden mixing:
  rms(total) = 0.66921E-02    rms(broyden)= 0.66921E-02
  rms(prec ) = 0.75601E-02
  weight for this iteration     100.00

 eigenvalues of (default mixing * dielectric matrix)
  average eigenvalue GAMMA=   1.7394
  2.3144  2.3144  1.1644  1.1644

 Free energy of the ion-electron system (eV)
  ---------------------------------------------------
  alpha Z        PSCENC =        84.04212096
  Ewald energy   TEWEN  =     -1392.73307368
  -Hartree energ DENC   =      -147.95165656
  -exchange      EXHF   =         0.00000000
  -V(xc)+E(xc)   XCENC  =       -32.53002464
  PAW double counting   =      1921.96975718    -1809.53979114
  entropy T*S    EENTRO =        -0.00000000
  eigenvalues    EBANDS =      -105.55054736
  atomic energy  EATOM  =      1448.48460880
  Solvation  Ediel_sol  =         0.00000000
  ---------------------------------------------------
  free energy    TOTEN  =       -33.80860644 eV

  energy without entropy =      -33.80860644  energy(sigma->0) =      -33.80860644


--------------------------------------------------------------------------------------------------------




--------------------------------------- Iteration      1(  10)  ---------------------------------------


    POTLOK:  cpu time      0.0054: real time      0.0056
    SETDIJ:  cpu time      0.1375: real time      0.1381
     EDDAV:  cpu time      0.2182: real time      0.2193
       DOS:  cpu time      0.0003: real time      0.0003
    CHARGE:  cpu time      0.0035: real time      0.0035
    MIXING:  cpu time      0.0003: real time      0.0003
    --------------------------------------------
      LOOP:  cpu time      0.3653: real time      0.3672

 eigenvalue-minimisations  :  3056
 total energy-change (2. order) :-0.1101548E-03  (-0.3155459E-04)
 number of electron      39.9999981 magnetization 
 augmentation part       -7.3328921 magnetization 

 Broyden mixing:
  rms(total) = 0.23725E-02    rms(broyden)= 0.23725E-02
  rms(prec ) = 0.29333E-02
  weight for this iteration     100.00

 eigenvalues of (default mixing * dielectric matrix)
  average eigenvalue GAMMA=   1.7431
  2.6766  2.4365  1.1599  1.2211  1.2211

 Free energy of the ion-electron system (eV)
  ---------------------------------------------------
  alpha Z        PSCENC =        84.04212096
  Ewald energy   TEWEN  =     -1392.73307368
  -Hartree energ DENC   =      -147.98852688
  -exchange      EXHF   =         0.00000000
  -V(xc)+E(xc)   XCENC  =       -32.52620538
  PAW double counting   =      1915.86846785    -1803.43370735
  entropy T*S    EENTRO =        -0.00000000
  eigenvalues    EBANDS =      -105.52240091
  atomic energy  EATOM  =      1448.48460880
  Solvation  Ediel_sol  =         0.00000000
  ---------------------------------------------------
  free energy    TOTEN  =       -33.80871660 eV

  energy without entropy =      -33.80871660  energy(sigma->0) =      -33.80871660


--------------------------------------------------------------------------------------------------------




--------------------------------------- Iteration      1(  11)  ---------------------------------------


    POTLOK:  cpu time      0.0038: real time      0.0039
    SETDIJ:  cpu time      0.1364: real time      0.1368
     EDDAV:  cpu time      0.1774: real time      0.1786
       DOS:  cpu time      0.0003: real time      0.0003
    CHARGE:  cpu time      0.0035: real time      0.0035
    MIXING:  cpu time      0.0003: real time      0.0003
    --------------------------------------------
      LOOP:  cpu time      0.3218: real time      0.3235

 eigenvalue-minimisations  :  2832
 total energy-change (2. order) :-0.2630240E-04  (-0.4066586E-05)
 number of electron      39.9999981 magnetization 
 augmentation part       -7.3331587 magnetization 

 Broyden mixing:
  rms(total) = 0.12599E-02    rms(broyden)= 0.12599E-02
  rms(prec ) = 0.13992E-02
  weight for this iteration     100.00

 eigenvalues of (default mixing * dielectric matrix)
  average eigenvalue GAMMA=   1.7284
  2.5266  2.5266  2.0405  0.9506  1.1632  1.1632

 Free energy of the ion-electron system (eV)
  ---------------------------------------------------
  alpha Z        PSCENC =        84.04212096
  Ewald energy   TEWEN  =     -1392.73307368
  -Hartree energ DENC   =      -148.01181044
  -exchange      EXHF   =         0.00000000
  -V(xc)+E(xc)   XCENC  =       -32.51990191
  PAW double counting   =      1917.36090431    -1804.92652275
  entropy T*S    EENTRO =        -0.00000000
  eigenvalues    EBANDS =      -105.50506819
  atomic energy  EATOM  =      1448.48460880
  Solvation  Ediel_sol  =         0.00000000
  ---------------------------------------------------
  free energy    TOTEN  =       -33.80874290 eV

  energy without entropy =      -33.80874290  energy(sigma->0) =      -33.80874290


--------------------------------------------------------------------------------------------------------




--------------------------------------- Iteration      1(  12)  ---------------------------------------


    POTLOK:  cpu time      0.0037: real time      0.0038
    SETDIJ:  cpu time      0.1210: real time      0.1214
     EDDAV:  cpu time      0.2091: real time      0.2102
       DOS:  cpu time      0.0003: real time      0.0003
    --------------------------------------------
      LOOP:  cpu time      0.3341: real time      0.3357

 eigenvalue-minimisations  :  3376
 total energy-change (2. order) :-0.6536340E-06  (-0.6225754E-06)
 number of electron      39.9999981 magnetization 
 augmentation part       -7.3331587 magnetization 

 Free energy of the ion-electron system (eV)
  ---------------------------------------------------
  alpha Z        PSCENC =        84.04212096
  Ewald energy   TEWEN  =     -1392.73307368
  -Hartree energ DENC   =      -148.02543325
  -exchange      EXHF   =         0.00000000
  -V(xc)+E(xc)   XCENC  =       -32.51885136
  PAW double counting   =      1916.47798742    -1804.04331806
  entropy T*S    EENTRO =        -0.00000000
  eigenvalues    EBANDS =      -105.49278438
  atomic energy  EATOM  =      1448.48460880
  Solvation  Ediel_sol  =         0.00000000
  ---------------------------------------------------
  free energy    TOTEN  =       -33.80874355 eV

  energy without entropy =      -33.80874355  energy(sigma->0) =      -33.80874355


--------------------------------------------------------------------------------------------------------




 average (electrostatic) potential at core
  the test charge radii are     1.1631  1.0808
  (the norm of the test charge is              1.0000)
       1 -33.8073       2 -33.8073       3 -33.8073       4 -33.8073       5 -55.2772
       6 -55.2772       7 -55.2772       8 -55.2772
 
 
 
 E-fermi :   3.1997     XC(G=0):  -9.1036     alpha+bet : -8.3725

 Fermi energy:         3.1997367946

 k-point     1 :       0.0000    0.0000    0.0000
  band No.  band energies     occupation 
      1     -11.1760      2.00000
      2     -10.8987      2.00000
      3      -9.9415      2.00000
      4      -9.5383      2.00000
      5      -5.1600      2.00000
      6      -4.6323      2.00000
      7      -3.0765      2.00000
      8      -2.5880      2.00000
      9      -1.9716      2.00000
     10      -0.6914      2.00000
     11      -0.6076      2.00000
     12      -0.2584      2.00000
     13      -0.0227      2.00000
     14       0.3147      2.00000
     15       1.1640      2.00000
     16       1.2112      2.00000
     17       1.6510      2.00000
     18       2.0762      2.00000
     19       2.1254      2.00000
     20       2.9639      2.00000
     21       3.9005      0.00000
     22       5.2210      0.00000
     23       5.3703      0.00000
     24       5.4376      0.00000
     25       5.7400      0.00000
     26       6.0031      0.00000
     27       6.2732      0.00000
     28       6.8764      0.00000
     29       7.6949      0.00000
     30       8.1559      0.00000
     31       8.2371      0.00000
     32       8.5778      0.00000

 k-point     2 :       0.1667    0.0000    0.0000
  band No.  band energies     occupation 
      1     -10.9886      2.00000
      2     -10.7254      2.00000
      3      -9.8305      2.00000
      4      -9.4788      2.00000
      5      -5.2873      2.00000
      6      -4.8114      2.00000
      7      -3.3142      2.00000
      8      -3.1630      2.00000
      9      -1.7841      2.00000
     10      -0.5471      2.00000
     11      -0.4964      2.00000
     12      -0.4492      2.00000
     13      -0.1448      2.00000
     14       0.0335      2.00000
     15       1.0003      2.00000
     16       1.0238      2.00000
     17       1.3475      2.00000
     18       2.1042      2.00000
     19       2.2853      2.00000
     20       2.7501      2.00000
     21       4.0665      0.00000
     22       4.9049      0.00000
     23       5.3829      0.00000
     24       5.5926      0.00000
     25       6.0783      0.00000
     26       6.2280      0.00000
     27       6.5122      0.00000
     28       6.6179      0.00000
     29       6.7907      0.00000
     30       7.8486      0.00000
     31       7.8615      0.00000
     32       8.0743      0.00000

 k-point     3 :       0.3333    0.0000    0.0000
  band No.  band energies     occupation 
      1     -10.4778      2.00000
      2     -10.2693      2.00000
      3      -9.6449      2.00000
      4      -9.4702      2.00000
      5      -5.5583      2.00000
      6      -5.1385      2.00000
      7      -4.3927      2.00000
      8      -4.0967      2.00000
      9      -1.2219      2.00000
     10      -0.6771      2.00000
     11      -0.4832      2.00000
     12      -0.0703      2.00000
     13       0.1966      2.00000
     14       0.3395      2.00000
     15       0.6212      2.00000
     16       1.1199      2.00000
     17       1.3246      2.00000
     18       1.9208      2.00000
     19       1.9815      2.00000
     20       2.0185      2.00000
     21       3.8967      0.00000
     22       4.3008      0.00000
     23       4.4614      0.00000
     24       4.9705      0.00000
     25       5.1334      0.00000
     26       5.6543      0.00000
     27       5.7829      0.00000
     28       6.3144      0.00000
     29       6.7598      0.00000
     30       6.7780      0.00000
     31       7.4327      0.00000
     32       7.8454      0.00000

 k-point     4 :       0.5000    0.0000    0.0000
  band No.  band energies     occupation 
      1      -9.8437      2.00000
      2      -9.8437      2.00000
      3      -9.7766      2.00000
      4      -9.7766      2.00000
      5      -5.3692      2.00000
      6      -5.3692      2.00000
      7      -4.9322      2.00000
      8      -4.9322      2.00000
      9      -0.5977      2.00000
     10      -0.5977      2.00000
     11      -0.0934      2.00000
     12      -0.0934      2.00000
     13       0.4652      2.00000
     14       0.4652      2.00000
     15       0.9480      2.00000
     16       0.9480      2.00000
     17       1.2987      2.00000
     18       1.2987      2.00000
     19       1.6538      2.00000
     20       1.6538      2.00000
     21       3.9263      0.00000
     22       3.9263      0.00000
     23       4.3734      0.00000
     24       4.3734      0.00000
     25       5.0899      0.00000
     26       5.0899      0.00000
     27       5.4640      0.00000
     28       5.4640      0.00000
     29       6.5466      0.00000
     30       6.5466      0.00000
     31       7.2422      0.00000
     32       7.2422      0.00000

 k-point     5 :       0.0000    0.1667    0.0000
  band No.  band energies     occupation 
      1     -11.0738      2.00000
      2     -10.8037      2.00000
      3      -9.9735      2.00000
      4      -9.6113      2.00000
      5      -5.3779      2.00000
      6      -4.6709      2.00000
      7      -3.6841      2.00000
      8      -3.0171      2.00000
      9      -1.7713      2.00000
     10      -0.3765      2.00000
     11      -0.0178      2.00000
     12       0.0996      2.00000
     13       0.1804      2.00000
     14       0.4228      2.00000
     15       1.1776      2.00000
     16       1.5914      2.00000
     17       1.6051      2.00000
     18       1.6249      2.00000
     19       2.4092      2.00000
     20       2.7944      2.00000
     21       4.0546      0.00000
     22       4.8128      0.00000
     23       5.3781      0.00000
     24       5.3989      0.00000
     25       5.5707      0.00000
     26       5.9330      0.00000
     27       6.3644      0.00000
     28       6.6582      0.00000
     29       7.1744      0.00000
     30       7.6549      0.00000
     31       8.1371      0.00000
     32       8.2615      0.00000

 k-point     6 :       0.1667    0.1667    0.0000
  band No.  band energies     occupation 
      1     -10.8915      2.00000
      2     -10.6358      2.00000
      3      -9.8619      2.00000
      4      -9.5435      2.00000
      5      -5.4152      2.00000
      6      -4.7769      2.00000
      7      -3.7829      2.00000
      8      -3.3598      2.00000
      9      -1.6179      2.00000
     10      -0.9962      2.00000
     11      -0.6725      2.00000
     12      -0.1839      2.00000
     13       0.5308      2.00000
     14       0.5502      2.00000
     15       0.7453      2.00000
     16       0.9494      2.00000
     17       1.7097      2.00000
     18       1.7481      2.00000
     19       2.3919      2.00000
     20       2.6659      2.00000
     21       4.1901      0.00000
     22       4.8725      0.00000
     23       5.2141      0.00000
     24       5.3556      0.00000
     25       5.8968      0.00000
     26       6.0797      0.00000
     27       6.6983      0.00000
     28       6.7747      0.00000
     29       7.0947      0.00000
     30       7.3955      0.00000
     31       7.5815      0.00000
     32       8.4037      0.00000

 k-point     7 :       0.1667   -0.1667    0.0000
  band No.  band energies     occupation 
      1     -10.8915      2.00000
      2     -10.6358      2.00000
      3      -9.8619      2.00000
      4      -9.5435      2.00000
      5      -5.4152      2.00000
      6      -4.7769      2.00000
      7      -3.7829      2.00000
      8      -3.3598      2.00000
      9      -1.6179      2.00000
     10      -0.9962      2.00000
     11      -0.6725      2.00000
     12      -0.1839      2.00000
     13       0.5308      2.00000
     14       0.5502      2.00000
     15       0.7453      2.00000
     16       0.9494      2.00000
     17       1.7097      2.00000
     18       1.7481      2.00000
     19       2.3919      2.00000
     20       2.6659      2.00000
     21       4.1901      0.00000
     22       4.8725      0.00000
     23       5.2141      0.00000
     24       5.3556      0.00000
     25       5.8968      0.00000
     26       6.0797      0.00000
     27       6.6983      0.00000
     28       6.7747      0.00000
     29       7.0947      0.00000
     30       7.3955      0.00000
     31       7.5815      0.00000
     32       8.4037      0.00000

 k-point     8 :       0.3333    0.1667    0.0000
  band No.  band energies     occupation 
      1     -10.3998      2.00000
      2     -10.2003      2.00000
      3      -9.6646      2.00000
      4      -9.4990      2.00000
      5      -5.5212      2.00000
      6      -5.0469      2.00000
      7      -4.4227      2.00000
      8      -4.2113      2.00000
      9      -1.3250      2.00000
     10      -1.1234      2.00000
     11      -0.9934      2.00000
     12      -0.4140      2.00000
     13       0.3222      2.00000
     14       0.6047      2.00000
     15       0.6448      2.00000
     16       0.8873      2.00000
     17       1.1023      2.00000
     18       1.8818      2.00000
     19       1.9328      2.00000
     20       1.9570      2.00000
     21       3.9808      0.00000
     22       4.6289      0.00000
     23       4.6608      0.00000
     24       4.9870      0.00000
     25       5.7712      0.00000
     26       5.9740      0.00000
     27       6.4745      0.00000
     28       6.6264      0.00000
     29       7.0150      0.00000
     30       7.0744      0.00000
     31       7.8685      0.00000
     32       8.0378      0.00000

 k-point     9 :       0.3333   -0.1667    0.0000
  band No.  band energies     occupation 
      1     -10.3998      2.00000
      2     -10.2003      2.00000
      3      -9.6646      2.00000
      4      -9.4990      2.00000
      5      -5.5212      2.00000
      6      -5.0469      2.00000
      7      -4.4227      2.00000
      8      -4.2113      2.00000
      9      -1.3250      2.00000
     10      -1.1234      2.00000
     11      -0.9934      2.00000
     12      -0.4140      2.00000
     13       0.3222      2.00000
     14       0.6047      2.00000
     15       0.6448      2.00000
     16       0.8873      2.00000
     17       1.1023      2.00000
     18       1.8818      2.00000
     19       1.9328      2.00000
     20       1.9570      2.00000
     21       3.9808      0.00000
     22       4.6289      0.00000
     23       4.6608      0.00000
     24       4.9870      0.00000
     25       5.7712      0.00000
     26       5.9740      0.00000
     27       6.4745      0.00000
     28       6.6264      0.00000
     29       7.0150      0.00000
     30       7.0744      0.00000
     31       7.8685      0.00000
     32       8.0378      0.00000

 k-point    10 :       0.5000    0.1667    0.0000
  band No.  band energies     occupation 
      1      -9.8104      2.00000
      2      -9.8104      2.00000
      3      -9.7516      2.00000
      4      -9.7516      2.00000
      5      -5.2900      2.00000
      6      -5.2900      2.00000
      7      -4.9154      2.00000
      8      -4.9154      2.00000
      9      -0.8905      2.00000
     10      -0.8905      2.00000
     11      -0.4865      2.00000
     12      -0.4865      2.00000
     13       0.0076      2.00000
     14       0.0076      2.00000
     15       0.5718      2.00000
     16       0.5718      2.00000
     17       1.2715      2.00000
     18       1.2715      2.00000
     19       1.9514      2.00000
     20       1.9514      2.00000
     21       3.9129      0.00000
     22       3.9129      0.00000
     23       5.0037      0.00000
     24       5.0037      0.00000
     25       5.8610      0.00000
     26       5.8610      0.00000
     27       6.3193      0.00000
     28       6.3193      0.00000
     29       6.9205      0.00000
     30       6.9205      0.00000
     31       7.0846      0.00000
     32       7.0846      0.00000

 k-point    11 :       0.0000    0.3333    0.0000
  band No.  band energies     occupation 
      1     -10.7936      2.00000
      2     -10.5420      2.00000
      3     -10.1184      2.00000
      4      -9.8393      2.00000
      5      -5.5814      2.00000
      6      -4.6807      2.00000
      7      -4.6503      2.00000
      8      -3.7672      2.00000
      9      -1.3079      2.00000
     10       0.0697      2.00000
     11       0.4342      2.00000
     12       0.7126      2.00000
     13       0.8451      2.00000
     14       0.9162      2.00000
     15       1.1324      2.00000
     16       1.2944      2.00000
     17       1.4160      2.00000
     18       2.3743      2.00000
     19       2.3861      2.00000
     20       2.7404      2.00000
     21       4.0801      0.00000
     22       4.5853      0.00000
     23       4.5956      0.00000
     24       5.0405      0.00000
     25       5.5050      0.00000
     26       5.6728      0.00000
     27       6.2482      0.00000
     28       6.3853      0.00000
     29       6.5826      0.00000
     30       7.2675      0.00000
     31       7.2947      0.00000
     32       8.5646      0.00000

 k-point    12 :       0.1667    0.3333    0.0000
  band No.  band energies     occupation 
      1     -10.6268      2.00000
      2     -10.3907      2.00000
      3      -9.9985      2.00000
      4      -9.7468      2.00000
      5      -5.5094      2.00000
      6      -4.6767      2.00000
      7      -4.6016      2.00000
      8      -3.8706      2.00000
      9      -1.1603      2.00000
     10      -1.0041      2.00000
     11      -0.6412      2.00000
     12      -0.0562      2.00000
     13       0.1714      2.00000
     14       0.5731      2.00000
     15       0.9766      2.00000
     16       1.4341      2.00000
     17       1.7610      2.00000
     18       1.8778      2.00000
     19       2.4316      2.00000
     20       2.4578      2.00000
     21       4.3575      0.00000
     22       4.9302      0.00000
     23       5.2655      0.00000
     24       5.3949      0.00000
     25       5.7237      0.00000
     26       5.9938      0.00000
     27       6.3595      0.00000
     28       7.0422      0.00000
     29       7.0609      0.00000
     30       7.3445      0.00000
     31       7.6590      0.00000
     32       8.4096      0.00000

 k-point    13 :       0.1667   -0.3333    0.0000
  band No.  band energies     occupation 
      1     -10.6268      2.00000
      2     -10.3907      2.00000
      3      -9.9985      2.00000
      4      -9.7468      2.00000
      5      -5.5094      2.00000
      6      -4.6767      2.00000
      7      -4.6016      2.00000
      8      -3.8706      2.00000
      9      -1.1603      2.00000
     10      -1.0041      2.00000
     11      -0.6412      2.00000
     12      -0.0562      2.00000
     13       0.1714      2.00000
     14       0.5731      2.00000
     15       0.9766      2.00000
     16       1.4341      2.00000
     17       1.7610      2.00000
     18       1.8778      2.00000
     19       2.4316      2.00000
     20       2.4578      2.00000
     21       4.3575      0.00000
     22       4.9302      0.00000
     23       5.2655      0.00000
     24       5.3949      0.00000
     25       5.7237      0.00000
     26       5.9938      0.00000
     27       6.3595      0.00000
     28       7.0422      0.00000
     29       7.0609      0.00000
     30       7.3445      0.00000
     31       7.6590      0.00000
     32       8.4096      0.00000

 k-point    14 :       0.3333    0.3333    0.0000
  band No.  band energies     occupation 
      1     -10.1937      2.00000
      2     -10.0183      2.00000
      3      -9.7516      2.00000
      4      -9.6028      2.00000
      5      -5.3828      2.00000
      6      -4.8220      2.00000
      7      -4.6839      2.00000
      8      -4.3814      2.00000
      9      -1.8015      2.00000
     10      -1.3381      2.00000
     11      -1.1569      2.00000
     12      -0.7988      2.00000
     13      -0.3800      2.00000
     14       0.2061      2.00000
     15       0.2838      2.00000
     16       0.8315      2.00000
     17       1.0070      2.00000
     18       1.5481      2.00000
     19       1.9419      2.00000
     20       2.0749      2.00000
     21       4.0344      0.00000
     22       5.4593      0.00000
     23       5.9359      0.00000
     24       5.9881      0.00000
     25       6.2456      0.00000
     26       6.4298      0.00000
     27       6.9471      0.00000
     28       7.3872      0.00000
     29       7.5778      0.00000
     30       7.9425      0.00000
     31       7.9498      0.00000
     32       9.0123      0.00000

 k-point    15 :       0.3333   -0.3333    0.0000
  band No.  band energies     occupation 
      1     -10.1937      2.00000
      2     -10.0183      2.00000
      3      -9.7516      2.00000
      4      -9.6028      2.00000
      5      -5.3828      2.00000
      6      -4.8220      2.00000
      7      -4.6839      2.00000
      8      -4.3814      2.00000
      9      -1.8015      2.00000
     10      -1.3381      2.00000
     11      -1.1569      2.00000
     12      -0.7988      2.00000
     13      -0.3800      2.00000
     14       0.2061      2.00000
     15       0.2838      2.00000
     16       0.8315      2.00000
     17       1.0070      2.00000
     18       1.5481      2.00000
     19       1.9419      2.00000
     20       2.0749      2.00000
     21       4.0344      0.00000
     22       5.4593      0.00000
     23       5.9359      0.00000
     24       5.9881      0.00000
     25       6.2456      0.00000
     26       6.4298      0.00000
     27       6.9471      0.00000
     28       7.3872      0.00000
     29       7.5778      0.00000
     30       7.9425      0.00000
     31       7.9498      0.00000
     32       9.0123      0.00000

 k-point    16 :       0.5000    0.3333    0.0000
  band No.  band energies     occupation 
      1      -9.7387      2.00000
      2      -9.7387      2.00000
      3      -9.7029      2.00000
      4      -9.7029      2.00000
      5      -5.1075      2.00000
      6      -5.1075      2.00000
      7      -4.8977      2.00000
      8      -4.8977      2.00000
      9      -1.4557      2.00000
     10      -1.4557      2.00000
     11      -1.0291      2.00000
     12      -1.0291      2.00000
     13      -0.5228      2.00000
     14      -0.5228      2.00000
     15       0.0996      2.00000
     16       0.0996      2.00000
     17       1.0516      2.00000
     18       1.0516      2.00000
     19       1.8185      2.00000
     20       1.8185      2.00000
     21       4.8690      0.00000
     22       4.8690      0.00000
     23       6.1928      0.00000
     24       6.1928      0.00000
     25       6.6854      0.00000
     26       6.6854      0.00000
     27       7.0825      0.00000
     28       7.0825      0.00000
     29       7.4227      0.00000
     30       7.4227      0.00000
     31       8.5524      0.00000
     32       8.5524      0.00000

 k-point    17 :       0.0000    0.5000    0.0000
  band No.  band energies     occupation 
      1     -10.4244      2.00000
      2     -10.4244      2.00000
      3     -10.1850      2.00000
      4     -10.1850      2.00000
      5      -5.3491      2.00000
      6      -5.3491      2.00000
      7      -4.3905      2.00000
      8      -4.3905      2.00000
      9      -0.6006      2.00000
     10      -0.6006      2.00000
     11       0.8598      2.00000
     12       0.8598      2.00000
     13       1.0815      2.00000
     14       1.0815      2.00000
     15       1.4782      2.00000
     16       1.4782      2.00000
     17       1.8792      2.00000
     18       1.8792      2.00000
     19       2.4711      2.00000
     20       2.4711      2.00000
     21       4.2659      0.00000
     22       4.2659      0.00000
     23       4.9309      0.00000
     24       4.9309      0.00000
     25       5.5361      0.00000
     26       5.5361      0.00000
     27       5.5909      0.00000
     28       5.5909      0.00000
     29       6.5783      0.00000
     30       6.5783      0.00000
     31       8.2799      0.00000
     32       8.2799      0.00000

 k-point    18 :       0.1667    0.5000    0.0000
  band No.  band energies     occupation 
      1     -10.2821      2.00000
      2     -10.2821      2.00000
      3     -10.0605      2.00000
      4     -10.0605      2.00000
      5      -5.2483      2.00000
      6      -5.2483      2.00000
      7      -4.3793      2.00000
      8      -4.3793      2.00000
      9      -0.7283      2.00000
     10      -0.7283      2.00000
     11      -0.3398      2.00000
     12      -0.3398      2.00000
     13      -0.1067      2.00000
     14      -0.1067      2.00000
     15       1.3290      2.00000
     16       1.3290      2.00000
     17       2.0247      2.00000
     18       2.0247      2.00000
     19       2.4430      2.00000
     20       2.4430      2.00000
     21       4.5357      0.00000
     22       4.5357      0.00000
     23       5.3951      0.00000
     24       5.3951      0.00000
     25       6.1657      0.00000
     26       6.1657      0.00000
     27       6.5749      0.00000
     28       6.5749      0.00000
     29       7.0792      0.00000
     30       7.0792      0.00000
     31       8.0712      0.00000
     32       8.0712      0.00000

 k-point    19 :       0.3333    0.5000    0.0000
  band No.  band energies     occupation 
      1      -9.9425      2.00000
      2      -9.9425      2.00000
      3      -9.7917      2.00000
      4      -9.7917      2.00000
      5      -5.0909      2.00000
      6      -5.0909      2.00000
      7      -4.5703      2.00000
      8      -4.5703      2.00000
      9      -1.7058      2.00000
     10      -1.7058      2.00000
     11      -1.0973      2.00000
     12      -1.0973      2.00000
     13      -0.3575      2.00000
     14      -0.3575      2.00000
     15       0.5305      2.00000
     16       0.5305      2.00000
     17       1.0378      2.00000
     18       1.0378      2.00000
     19       2.0167      2.00000
     20       2.0167      2.00000
     21       4.9594      0.00000
     22       4.9594      0.00000
     23       6.4921      0.00000
     24       6.4921      0.00000
     25       7.0249      0.00000
     26       7.0249      0.00000
     27       7.4097      0.00000
     28       7.4097      0.00000
     29       7.8316      0.00000
     30       7.8316      0.00000
     31       8.7043      0.00000
     32       8.7043      0.00000

 k-point    20 :       0.5000    0.5000    0.0000
  band No.  band energies     occupation 
      1      -9.6959      2.00000
      2      -9.6959      2.00000
      3      -9.6834      2.00000
      4      -9.6834      2.00000
      5      -4.9839      2.00000
      6      -4.9839      2.00000
      7      -4.9162      2.00000
      8      -4.9162      2.00000
      9      -1.6548      2.00000
     10      -1.6548      2.00000
     11      -1.3467      2.00000
     12      -1.3467      2.00000
     13      -0.5865      2.00000
     14      -0.5865      2.00000
     15      -0.2870      2.00000
     16      -0.2870      2.00000
     17       1.1552      2.00000
     18       1.1552      2.00000
[...]
     32       7.6812      0.00000

 k-point    32 :       0.1667    0.3333    0.5000
  band No.  band energies     occupation 
      1     -10.5311      2.00000
      2     -10.5311      2.00000
      3      -9.8508      2.00000
      4      -9.8508      2.00000
      5      -5.2169      2.00000
      6      -5.2169      2.00000
      7      -4.1524      2.00000
      8      -4.1524      2.00000
      9      -0.9320      2.00000
     10      -0.9320      2.00000
     11      -0.3086      2.00000
     12      -0.3086      2.00000
     13       0.2184      2.00000
     14       0.2184      2.00000
     15       1.1769      2.00000
     16       1.1769      2.00000
     17       1.8984      2.00000
     18       1.8984      2.00000
     19       2.1806      2.00000
     20       2.1806      2.00000
     21       5.0327      0.00000
     22       5.0327      0.00000
     23       5.3635      0.00000
     24       5.3635      0.00000
     25       6.0804      0.00000
     26       6.0804      0.00000
     27       6.3183      0.00000
     28       6.3183      0.00000
     29       7.1972      0.00000
     30       7.1972      0.00000
     31       7.7809      0.00000
     32       7.7809      0.00000

 k-point    33 :       0.1667   -0.3333    0.5000
  band No.  band energies     occupation 
      1     -10.5311      2.00000
      2     -10.5311      2.00000
      3      -9.8508      2.00000
      4      -9.8508      2.00000
      5      -5.2169      2.00000
      6      -5.2169      2.00000
      7      -4.1524      2.00000
      8      -4.1524      2.00000
      9      -0.9320      2.00000
     10      -0.9320      2.00000
     11      -0.3086      2.00000
     12      -0.3086      2.00000
     13       0.2184      2.00000
     14       0.2184      2.00000
     15       1.1769      2.00000
     16       1.1769      2.00000
     17       1.8984      2.00000
     18       1.8984      2.00000
     19       2.1806      2.00000
     20       2.1806      2.00000
     21       5.0327      0.00000
     22       5.0327      0.00000
     23       5.3635      0.00000
     24       5.3635      0.00000
     25       6.0804      0.00000
     26       6.0804      0.00000
     27       6.3183      0.00000
     28       6.3183      0.00000
     29       7.1972      0.00000
     30       7.1972      0.00000
     31       7.7809      0.00000
     32       7.7809      0.00000

 k-point    34 :       0.3333    0.3333    0.5000
  band No.  band energies     occupation 
      1     -10.1212      2.00000
      2     -10.1212      2.00000
      3      -9.6623      2.00000
      4      -9.6623      2.00000
      5      -5.1642      2.00000
      6      -5.1642      2.00000
      7      -4.4840      2.00000
      8      -4.4840      2.00000
      9      -1.6051      2.00000
     10      -1.6051      2.00000
     11      -0.8956      2.00000
     12      -0.8956      2.00000
     13      -0.1553      2.00000
     14      -0.1553      2.00000
     15       0.5382      2.00000
     16       0.5382      2.00000
     17       1.2620      2.00000
     18       1.2620      2.00000
     19       1.9992      2.00000
     20       1.9992      2.00000
     21       5.1186      0.00000
     22       5.1186      0.00000
     23       5.7698      0.00000
     24       5.7698      0.00000
     25       6.0633      0.00000
     26       6.0633      0.00000
     27       7.1215      0.00000
     28       7.1215      0.00000
     29       7.3900      0.00000
     30       7.3900      0.00000
     31       8.7937      0.00000
     32       8.7937      0.00000

 k-point    35 :       0.3333   -0.3333    0.5000
  band No.  band energies     occupation 
      1     -10.1212      2.00000
      2     -10.1212      2.00000
      3      -9.6623      2.00000
      4      -9.6623      2.00000
      5      -5.1642      2.00000
      6      -5.1642      2.00000
      7      -4.4840      2.00000
      8      -4.4840      2.00000
      9      -1.6051      2.00000
     10      -1.6051      2.00000
     11      -0.8956      2.00000
     12      -0.8956      2.00000
     13      -0.1553      2.00000
     14      -0.1553      2.00000
     15       0.5382      2.00000
     16       0.5382      2.00000
     17       1.2620      2.00000
     18       1.2620      2.00000
     19       1.9992      2.00000
     20       1.9992      2.00000
     21       5.1186      0.00000
     22       5.1186      0.00000
     23       5.7698      0.00000
     24       5.7698      0.00000
     25       6.0633      0.00000
     26       6.0633      0.00000
     27       7.1215      0.00000
     28       7.1215      0.00000
     29       7.3900      0.00000
     30       7.3900      0.00000
     31       8.7937      0.00000
     32       8.7937      0.00000

 k-point    36 :       0.5000    0.3333    0.5000
  band No.  band energies     occupation 
      1      -9.7210      2.00000
      2      -9.7210      2.00000
      3      -9.7210      2.00000
      4      -9.7210      2.00000
      5      -5.0064      2.00000
      6      -5.0064      2.00000
      7      -5.0064      2.00000
      8      -5.0064      2.00000
      9      -1.2005      2.00000
     10      -1.2005      2.00000
     11      -1.2005      2.00000
     12      -1.2005      2.00000
     13      -0.3766      2.00000
     14      -0.3766      2.00000
     15      -0.3766      2.00000
     16      -0.3766      2.00000
     17       1.5908      2.00000
     18       1.5908      2.00000
     19       1.5908      2.00000
     20       1.5908      2.00000
     21       5.4771      0.00000
     22       5.4771      0.00000
     23       5.4771      0.00000
     24       5.4771      0.00000
     25       6.5231      0.00000
     26       6.5231      0.00000
     27       6.5231      0.00000
     28       6.5231      0.00000
     29       8.1332      0.00000
     30       8.1332      0.00000
     31       8.1332      0.00000
     32       8.1332      0.00000

 k-point    37 :       0.0000    0.5000    0.5000
  band No.  band energies     occupation 
      1     -10.4196      2.00000
      2     -10.4196      2.00000
      3     -10.1911      2.00000
      4     -10.1911      2.00000
      5      -5.2542      2.00000
      6      -5.2542      2.00000
      7      -4.5482      2.00000
      8      -4.5482      2.00000
      9       0.0982      2.00000
     10       0.0982      2.00000
     11       0.4315      2.00000
     12       0.4315      2.00000
     13       0.8666      2.00000
     14       0.8666      2.00000
     15       1.0730      2.00000
     16       1.0730      2.00000
     17       2.1818      2.00000
     18       2.1818      2.00000
     19       2.3994      2.00000
     20       2.3994      2.00000
     21       4.3164      0.00000
     22       4.3164      0.00000
     23       4.8266      0.00000
     24       4.8266      0.00000
     25       5.6445      0.00000
     26       5.6445      0.00000
     27       6.3696      0.00000
     28       6.3696      0.00000
     29       6.4987      0.00000
     30       6.4987      0.00000
     31       7.5308      0.00000
     32       7.5308      0.00000

 k-point    38 :       0.1667    0.5000    0.5000
  band No.  band energies     occupation 
      1     -10.2776      2.00000
      2     -10.2776      2.00000
      3     -10.0661      2.00000
      4     -10.0661      2.00000
      5      -5.1687      2.00000
      6      -5.1687      2.00000
      7      -4.5041      2.00000
      8      -4.5041      2.00000
      9      -0.5913      2.00000
     10      -0.5913      2.00000
     11      -0.4558      2.00000
     12      -0.4558      2.00000
     13       0.5334      2.00000
     14       0.5334      2.00000
     15       0.6185      2.00000
     16       0.6185      2.00000
     17       2.1194      2.00000
     18       2.1194      2.00000
     19       2.1366      2.00000
     20       2.1366      2.00000
     21       5.2801      0.00000
     22       5.2801      0.00000
     23       5.3869      0.00000
     24       5.3869      0.00000
     25       6.1327      0.00000
     26       6.1327      0.00000
     27       6.3892      0.00000
     28       6.3892      0.00000
     29       7.0599      0.00000
     30       7.0599      0.00000
     31       7.5824      0.00000
     32       7.5824      0.00000

 k-point    39 :       0.3333    0.5000    0.5000
  band No.  band energies     occupation 
      1      -9.9393      2.00000
      2      -9.9393      2.00000
      3      -9.7953      2.00000
      4      -9.7953      2.00000
      5      -5.0549      2.00000
      6      -5.0549      2.00000
      7      -4.6170      2.00000
      8      -4.6170      2.00000
      9      -1.4725      2.00000
     10      -1.4725      2.00000
     11      -1.4354      2.00000
     12      -1.4354      2.00000
     13       0.0341      2.00000
     14       0.0341      2.00000
     15       0.0926      2.00000
     16       0.0926      2.00000
     17       1.4838      2.00000
     18       1.4838      2.00000
     19       1.6866      2.00000
     20       1.6866      2.00000
     21       5.4952      0.00000
     22       5.4952      0.00000
     23       6.0189      0.00000
     24       6.0189      0.00000
     25       6.8180      0.00000
     26       6.8180      0.00000
     27       6.8200      0.00000
     28       6.8200      0.00000
     29       8.4159      0.00000
     30       8.4159      0.00000
     31       8.5681      0.00000
     32       8.5681      0.00000

 k-point    40 :       0.5000    0.5000    0.5000
  band No.  band energies     occupation 
      1      -9.6896      2.00000
      2      -9.6896      2.00000
      3      -9.6896      2.00000
      4      -9.6896      2.00000
      5      -4.9531      2.00000
      6      -4.9531      2.00000
      7      -4.9531      2.00000
      8      -4.9531      2.00000
      9      -1.3411      2.00000
     10      -1.3411      2.00000
     11      -1.3411      2.00000
     12      -1.3411      2.00000
     13      -0.7606      2.00000
     14      -0.7606      2.00000
     15      -0.7606      2.00000
     16      -0.7606      2.00000
     17       1.6589      2.00000
     18       1.6589      2.00000
     19       1.6589      2.00000
     20       1.6589      2.00000
     21       5.4604      0.00000
     22       5.4604      0.00000
     23       5.4604      0.00000
     24       5.4604      0.00000
     25       7.2681      0.00000
     26       7.2681      0.00000
     27       7.2681      0.00000
     28       7.2681      0.00000
     29       9.1026      0.00000
     30       9.1026      0.00000
     31       9.1026      0.00000
     32       9.1026      0.00000


--------------------------------------------------------------------------------------------------------


 soft charge-density along one line, spin component            1
         0         1         2         3         4         5         6         7         8         9
 total charge-density along one line
 
 pseudopotential strength for first ion, spin component:            1
 14.615  18.237   0.042   0.048  -0.000   0.076   0.086  -0.000
 18.237  22.772   0.053   0.060  -0.000   0.095   0.109  -0.000
  0.042   0.053   3.240  -0.003   0.000   5.517  -0.005   0.000
  0.048   0.060  -0.003   3.238   0.000  -0.005   5.514   0.000
 -0.000  -0.000   0.000   0.000   3.242   0.000   0.000   5.520
  0.076   0.095   5.517  -0.005   0.000   9.452  -0.008   0.000
  0.086   0.109  -0.005   5.514   0.000  -0.008   9.446   0.000
 -0.000  -0.000   0.000   0.000   5.520   0.000   0.000   9.457
  0.000   0.000  -0.000   0.000   0.007  -0.000   0.000   0.013
 -0.006  -0.008   0.012   0.013   0.000   0.022   0.024   0.000
 -0.004  -0.005  -0.003   0.013   0.000  -0.007   0.023   0.000
  0.000   0.000   0.000  -0.000   0.012   0.000  -0.000   0.022
  0.002   0.002  -0.012   0.000   0.000  -0.022   0.000  -0.000
 total augmentation occupancy for first ion, spin component:            1
  2.698  -0.671   0.338   0.378  -0.000  -0.063  -0.068   0.000   0.000  -0.009  -0.005   0.000   0.011
 -0.671   0.632  -0.439  -0.496   0.000   0.070   0.077  -0.000   0.000   0.006   0.004  -0.000  -0.006
  0.338  -0.439   1.236   0.073  -0.000  -0.201  -0.000   0.000  -0.000   0.050  -0.103  -0.000   0.001
  0.378  -0.496   0.073   1.304   0.000  -0.000  -0.208  -0.000  -0.000  -0.025   0.097  -0.000  -0.006
 -0.000   0.000  -0.000   0.000   1.246   0.000  -0.000  -0.214   0.148  -0.000   0.000   0.042  -0.000
 -0.063   0.070  -0.201  -0.000   0.000   0.037  -0.002  -0.000   0.000  -0.008   0.017   0.000   0.000
 -0.068   0.077  -0.000  -0.208  -0.000  -0.002   0.038   0.000   0.000   0.004  -0.017   0.000   0.001
  0.000  -0.000   0.000  -0.000  -0.214  -0.000   0.000   0.041  -0.026   0.000  -0.000  -0.007   0.000
  0.000   0.000  -0.000  -0.000   0.148   0.000   0.000  -0.026   0.030  -0.000   0.000   0.004   0.000
 -0.009   0.006   0.050  -0.025  -0.000  -0.008   0.004   0.000  -0.000   0.012  -0.008  -0.000   0.002
 -0.005   0.004  -0.103   0.097   0.000   0.017  -0.017  -0.000   0.000  -0.008   0.028   0.000  -0.002
  0.000  -0.000  -0.000  -0.000   0.042   0.000   0.000  -0.007   0.004  -0.000   0.000   0.010  -0.000
  0.011  -0.006   0.001  -0.006  -0.000   0.000   0.001   0.000   0.000   0.002  -0.002  -0.000   0.008


------------------------ aborting loop because EDIFF is reached ----------------------------------------


    CHARGE:  cpu time      0.0041: real time      0.0041
    FORLOC:  cpu time      0.0002: real time      0.0002
    FORNL :  cpu time      0.0218: real time      0.0219
    STRESS:  cpu time      0.1927: real time      0.1935
    FORCOR:  cpu time      0.0037: real time      0.0037
    FORHAR:  cpu time      0.0009: real time      0.0009
    MIXING:  cpu time      0.0013: real time      0.0013
    OFIELD:  cpu time      0.0000: real time      0.0000

  FORCE on cell =-STRESS in cart. coord.  units (eV):
  Direction    XX          YY          ZZ          XY          YZ          ZX
  --------------------------------------------------------------------------------------
  Alpha Z    84.04212    84.04212    84.04212
  Ewald    -415.84179  -474.77493  -502.11815    -0.00000     0.00000    -0.00000
  Hartree    72.89866    46.24544    28.88888    -0.00000    -0.00000    -0.00000
  E(xc)    -140.88239  -140.96360  -141.16936    -0.00000     0.00000     0.00000
  Local    -217.68359  -138.71776   -98.31752    -0.00000    -0.00000     0.00000
  n-local   240.39457   239.94157   241.34901     0.00000     0.00000    -0.00000
  augment   -11.36073   -11.80716   -12.18911     0.00000     0.00000    -0.00000
  Kinetic   388.38393   395.59726   399.47528     0.00000     0.00000     0.00000
  Fock        0.00000     0.00000     0.00000     0.00000     0.00000     0.00000
  -------------------------------------------------------------------------------------
  Total      -0.04922    -0.43706    -0.03884    -0.00000     0.00000     0.00000
  in kB      -0.39112    -3.47315    -0.30866    -0.00000     0.00000     0.00000
  external pressure =       -1.39 kB  Pullay stress =        0.00 kB


 VOLUME and BASIS-vectors are now :
 -----------------------------------------------------------------------------
  energy-cutoff  :      360.00
  volume of cell :      201.62
      direct lattice vectors                 reciprocal lattice vectors
     3.850000000  0.000000000  0.000000000     0.259740260  0.000000000  0.000000000
     0.000000000  4.700000000  0.000000000     0.000000000  0.212765957  0.000000000
     0.000000000  0.000000000 11.142221000     0.000000000  0.000000000  0.089748713

  length of vectors
     3.850000000  4.700000000 11.142221000     0.259740260  0.212765957  0.089748713


 FORCES acting on ions
    electron-ion (+dipol)            ewald-force                    non-local-force                 convergence-correction
 -----------------------------------------------------------------------------------------------
   -.341E-06 0.169E+02 0.281E+02   -.199E-14 -.196E+02 -.312E+02   0.345E-06 0.263E+01 0.305E+01   -.839E-07 0.332E-04 -.135E-02
   -.907E-06 0.169E+02 -.281E+02   -.122E-13 -.196E+02 0.312E+02   0.623E-06 0.263E+01 -.305E+01   0.323E-06 0.332E-04 0.135E-02
   0.256E-06 -.169E+02 -.281E+02   -.266E-14 0.196E+02 0.312E+02   -.275E-06 -.263E+01 -.305E+01   0.985E-07 -.336E-04 0.136E-02
   0.256E-06 -.169E+02 0.281E+02   0.141E-13 0.196E+02 -.312E+02   -.331E-06 -.263E+01 0.305E+01   -.170E-07 -.332E-04 -.136E-02
   -.173E-05 -.157E+02 -.261E+02   0.163E-13 0.174E+02 0.278E+02   0.492E-06 -.165E+01 -.167E+01   0.124E-05 0.332E-03 0.289E-02
   -.371E-05 -.157E+02 0.261E+02   0.754E-15 0.174E+02 -.278E+02   0.135E-05 -.165E+01 0.167E+01   0.252E-05 0.333E-03 -.290E-02
   0.357E-05 0.157E+02 0.261E+02   -.136E-13 -.174E+02 -.278E+02   -.126E-05 0.165E+01 0.167E+01   -.212E-05 -.330E-03 -.290E-02
   0.405E-05 0.157E+02 -.261E+02   0.460E-14 -.174E+02 0.278E+02   -.151E-05 0.165E+01 -.167E+01   -.239E-05 -.329E-03 0.291E-02
 -----------------------------------------------------------------------------------------------
   0.143E-05 -.287E-05 0.145E-05   0.522E-14 0.000E+00 0.213E-13   -.560E-06 -.214E-05 -.638E-06   -.430E-06 0.495E-05 -.418E-06
 
 
 POSITION                                       TOTAL-FORCE (eV/Angst)
 -----------------------------------------------------------------------------------
      0.96250      0.52791      1.38530        -0.000000     -0.022770      0.014185
      2.88750      2.87791      4.18581        -0.000000     -0.022770     -0.014186
      2.88750      4.17209      9.75692         0.000000      0.022770     -0.014184
      0.96250      1.82209      6.95641        -0.000000      0.022770      0.014185
      0.96250      4.59447      3.90388        -0.000000      0.053585     -0.002761
      2.88750      2.24447      1.66723         0.000000      0.053585      0.002761
      2.88750      0.10553      7.23834         0.000000     -0.053586      0.002760
      0.96250      2.45553      9.47499         0.000000     -0.053586     -0.002760
 -----------------------------------------------------------------------------------
    total drift:                                0.000000     -0.000000      0.000000


--------------------------------------------------------------------------------------------------------



  FREE ENERGIE OF THE ION-ELECTRON SYSTEM (eV)
  ---------------------------------------------------
  free  energy   TOTEN  =       -33.80874355 eV

  energy  without entropy=      -33.80874355  energy(sigma->0) =      -33.80874355
 


--------------------------------------------------------------------------------------------------------


    POTLOK:  cpu time      0.1133: real time      0.1136


--------------------------------------------------------------------------------------------------------


     LOOP+:  cpu time      4.9097: real time      4.9529
    4ORBIT:  cpu time      0.0000: real time      0.0000

 total amount of memory used by VASP MPI-rank0    38761. kBytes
=======================================================================

   base      :      30000. kBytes
   nonl-proj :       6758. kBytes
   fftplans  :        368. kBytes
   grid      :        555. kBytes
   one-center:         16. kBytes
   wavefun   :       1064. kBytes
 
  
  
 General timing and accounting informations for this job:
 ========================================================
  
                  Total CPU time used (sec):        5.716
                            User time (sec):        5.402
                          System time (sec):        0.314
                         Elapsed time (sec):        7.072
  
                   Maximum memory used (kb):      190188.
                   Average memory used (kb):          N/A
  
                          Minor page faults:        21986
                          Major page faults:           33
                 Voluntary context switches:         5720
