 running  160 mpi-ranks, with    1 threads/rank, on   10 nodes
 distrk:  each k-point on   80 cores,    2 groups
 distr:  one band on    5 cores,   16 groups
 vasp.6.4.2 20Jul23 (build Oct 12 2023 10:31:02) complex                         
 POSCAR found type information on POSCAR GeSe
 POSCAR found :  2 types and       8 ions
 Reading from existing POTCAR
 scaLAPACK will be used
 Reading from existing POTCAR
 LDA part: xc-table for Pade appr. of Perdew
 POSCAR, INCAR and KPOINTS ok, starting setup
 FFT: planning ... GRIDC
 FFT: planning ... GRID_SOFT
 FFT: planning ... GRID
 WAVECAR not read
 entering main loop
       N       E                     dE             d eps       ncg     rms          rms(c)
DAV:   1     0.133203959947E+03    0.13320E+03   -0.12865E+04  2560   0.772E+02
DAV:   2    -0.250836989989E+02   -0.15829E+03   -0.15357E+03  3776   0.139E+02
DAV:   3    -0.340784902987E+02   -0.89948E+01   -0.89763E+01  3072   0.386E+01
DAV:   4    -0.341439164998E+02   -0.65426E-01   -0.65412E-01  3488   0.377E+00
DAV:   5    -0.341443655755E+02   -0.44908E-03   -0.44906E-03  3040   0.302E-01    0.647E+00
DAV:   6    -0.337376588354E+02    0.40671E+00   -0.81292E-01  3104   0.304E+00    0.406E+00
DAV:   7    -0.337282314214E+02    0.94274E-02   -0.24974E-01  3280   0.176E+00    0.131E+00
DAV:   8    -0.337270238406E+02    0.12076E-02   -0.27215E-02  3088   0.615E-01    0.176E-01
DAV:   9    -0.337273847902E+02   -0.36095E-03   -0.39520E-03  3056   0.272E-01    0.659E-02
DAV:  10    -0.337275480108E+02   -0.16322E-03   -0.37095E-04  3072   0.830E-02    0.237E-02
DAV:  11    -0.337275850018E+02   -0.36991E-04   -0.47627E-05  3184   0.307E-02    0.125E-02
DAV:  12    -0.337275865556E+02   -0.15538E-05   -0.80694E-06  3296   0.114E-02    0.242E-03
DAV:  13    -0.337275873678E+02   -0.81213E-06   -0.11224E-06  1904   0.454E-03
   1 F= -.33727587E+02 E0= -.33727587E+02  d E =-.147167E-11
