 vasp.6.4.2 20Jul23 (build Oct 12 2023 10:31:02) complex                         
 executed on              LinuxNV date 2024.11.01  23:05:11
 running  128 mpi-ranks, with    1 threads/rank, on    2 nodes
 distrk:  each k-point on   64 cores,    2 groups
 distr:  one band on NCORE=   8 cores,    8 groups


--------------------------------------------------------------------------------------------------------


 INCAR:
   ENCUT = 520.000000
   SIGMA = 0.050000
   EDIFF = 1.00e-06
   ALGO = N
   GGA = PE
   PREC = Accurate
   SYSTEM = 01_AOPT
   ICHARG = 0
   ISMEAR = 0
   ISPIN = 2
   ISTART = 1
   ISYM = -1
   KPAR = 2
   LORBIT = 11
   NBANDS = 220
   NELM = 100
   NELMIN = 5
   NPAR = 8
   LASPH = .TRUE.
   LCHARG = .FALSE.
   LWAVE = .FALSE.
   LREAL = .FALSE.

 POTCAR:    PAW_PBE Ge 05Jan2001                  
 POTCAR:    PAW_PBE Se 06Sep2000                  
 -----------------------------------------------------------------------------
|                                                                             |
|           W    W    AA    RRRRR   N    N  II  N    N   GGGG   !!!           |
|           W    W   A  A   R    R  NN   N  II  NN   N  G    G  !!!           |
|           W    W  A    A  R    R  N N  N  II  N N  N  G       !!!           |
|           W WW W  AAAAAA  RRRRR   N  N N  II  N  N N  G  GGG   !            |
|           WW  WW  A    A  R   R   N   NN  II  N   NN  G    G                |
|           W    W  A    A  R    R  N    N  II  N    N   GGGG   !!!           |
|                                                                             |
|     You use a magnetic or noncollinear calculation, but did not specify     |
|     the initial magnetic moment with the MAGMOM tag. Note that a            |
|     default of 1 will be used for all atoms. This ferromagnetic setup       |
|     may break the symmetry of the crystal, in particular it may rule        |
|     out finding an antiferromagnetic solution. Thence, we recommend         |
|     setting the initial magnetic moment manually or verifying carefully     |
|     that this magnetic setup is desired.                                    |
|                                                                             |
 -----------------------------------------------------------------------------

 POTCAR:    PAW_PBE Ge 05Jan2001                  
   VRHFIN =Ge: s2p2                                                                                 
   LEXCH  = PE                                                                                      
   EATOM  =   104.9960 eV,    7.7170 Ry                                                             
                                                                                                    
   TITEL  = PAW_PBE Ge 05Jan2001                                                                    
   LULTRA =        F    use ultrasoft PP ?                                                          
   IUNSCR =        1    unscreen: 0-lin 1-nonlin 2-no                                               
   RPACOR =    2.170    partial core radius                                                         
   POMASS =   72.610; ZVAL   =    4.000    mass and valenz                                          
   RCORE  =    2.300    outmost cutoff radius                                                       
   RWIGS  =    2.300; RWIGS  =    1.217    wigner-seitz radius (au A)                               
   ENMAX  =  173.807; ENMIN  =  130.355 eV                                                          
   ICORE  =        3    local potential                                                             
   LCOR   =        T    correct aug charges                                                         
   LPAW   =        T    paw PP                                                                      
   EAUG   =  385.843                                                                                
   DEXC   =    0.000                                                                                
   RMAX   =    2.342    core radius for proj-oper                                                   
   RAUG   =    1.300    factor for augmentation sphere                                              
   RDEP   =    2.318    radius for radial grids                                                     
   RDEPT  =    2.103    core radius for aug-charge                                                  
                                                                                                    
   Atomic configuration                                                                             
   10 entries                                                                                       
     n  l   j            E        occ.                                                              
     1  0  0.50    -10959.8463   2.0000                                                             
     2  0  0.50     -1371.6056   2.0000                                                             
     2  1  1.50     -1198.4791   6.0000                                                             
     3  0  0.50      -168.4733   2.0000                                                             
     3  1  1.50      -115.6019   6.0000                                                             
     3  2  2.50       -29.3106  10.0000                                                             
     4  0  0.50       -11.7309   2.0000                                                             
     4  1  0.50        -3.8952   2.0000                                                             
     4  2  1.50        -4.0817   0.0000                                                             
     4  3  2.50        -4.0817   0.0000                                                             
   Description                                                                                      
     l       E           TYP  RCUT    TYP  RCUT                                                     
     0    -11.7309493     23  2.300                                                                 
     0     -7.4578696     23  2.300                                                                 
     1     -3.8952261     23  2.300                                                                 
     1      6.1178114     23  2.300                                                                 
     2     -4.0817478     23  2.300                                                                 
     3     -1.3605826      7  2.300                                                                 
  local pseudopotential read in
  partial core-charges read in
  partial kinetic energy density read in
  atomic valenz-charges read in
  non local Contribution for L=            0  read in
    real space projection operators read in
  non local Contribution for L=            0  read in
    real space projection operators read in
  non local Contribution for L=            1  read in
    real space projection operators read in
  non local Contribution for L=            1  read in
    real space projection operators read in
  non local Contribution for L=            2  read in
    real space projection operators read in
    PAW grid and wavefunctions read in
 
   number of l-projection  operators is LMAX  =            5
   number of lm-projection operators is LMMAX =           13
 
 POTCAR:    PAW_PBE Se 06Sep2000                  
   VRHFIN =Se: s2p4                                                                                 
   LEXCH  = PE                                                                                      
   EATOM  =   257.1286 eV,   18.8984 Ry                                                             
                                                                                                    
   TITEL  = PAW_PBE Se 06Sep2000                                                                    
   LULTRA =        F    use ultrasoft PP ?                                                          
   IUNSCR =        1    unscreen: 0-lin 1-nonlin 2-no                                               
   RPACOR =    1.900    partial core radius                                                         
   POMASS =   78.960; ZVAL   =    6.000    mass and valenz                                          
   RCORE  =    2.100    outmost cutoff radius                                                       
   RWIGS  =    2.200; RWIGS  =    1.164    wigner-seitz radius (au A)                               
   ENMAX  =  211.555; ENMIN  =  158.666 eV                                                          
   ICORE  =        3    local potential                                                             
   LCOR   =        T    correct aug charges                                                         
   LPAW   =        T    paw PP                                                                      
   EAUG   =  446.842                                                                                
   DEXC   =    0.000                                                                                
   RMAX   =    2.147    core radius for proj-oper                                                   
   RAUG   =    1.300    factor for augmentation sphere                                              
   RDEP   =    2.177    radius for radial grids                                                     
   RDEPT  =    1.928    core radius for aug-charge                                                  
                                                                                                    
   Atomic configuration                                                                             
   10 entries                                                                                       
     n  l   j            E        occ.                                                              
     1  0  0.50    -12503.4787   2.0000                                                             
     2  0  0.50     -1606.9547   2.0000                                                             
     2  1  1.50     -1413.3140   6.0000                                                             
     3  0  0.50      -213.4885   2.0000                                                             
     3  1  1.50      -152.9538   6.0000                                                             
     3  2  2.50       -53.1221  10.0000                                                             
     4  0  0.50       -17.2865   2.0000                                                             
     4  1  0.50        -6.5110   4.0000                                                             
     4  2  2.50        -6.8029   0.0000                                                             
     4  3  2.50        -6.8029   0.0000                                                             
   Description                                                                                      
     l       E           TYP  RCUT    TYP  RCUT                                                     
     0    -17.2865377     23  2.100                                                                 
     0    -15.3094411     23  2.100                                                                 
     1     -6.5110275     23  2.100                                                                 
     1     -0.0695192     23  2.100                                                                 
     2     -6.8029130     23  2.100                                                                 
     3     -1.3605826      7  2.100                                                                 
  local pseudopotential read in
  partial core-charges read in
  partial kinetic energy density read in
  atomic valenz-charges read in
  non local Contribution for L=            0  read in
    real space projection operators read in
  non local Contribution for L=            0  read in
    real space projection operators read in
  non local Contribution for L=            1  read in
    real space projection operators read in
  non local Contribution for L=            1  read in
    real space projection operators read in
  non local Contribution for L=            2  read in
    real space projection operators read in
    PAW grid and wavefunctions read in
 
   number of l-projection  operators is LMAX  =            5
   number of lm-projection operators is LMMAX =           13
 
 -----------------------------------------------------------------------------
|                                                                             |
|               ----> ADVICE to this user running VASP <----                  |
|                                                                             |
|     You have a (more or less) 'large supercell' and for larger cells it     |
|     might be more efficient to use real-space projection operators.         |
|     Therefore, try LREAL= Auto in the INCAR file.                           |
|     Mind: For very accurate calculation, you might also keep the            |
|     reciprocal projection scheme (i.e. LREAL=.FALSE.).                      |
|                                                                             |
 -----------------------------------------------------------------------------

  PAW_PBE Ge 05Jan2001                  :
 energy of atom  1       EATOM= -104.9960
 kinetic energy error for atom=    0.0002 (will be added to EATOM!!)
  PAW_PBE Se 06Sep2000                  :
 energy of atom  2       EATOM= -257.1286
 kinetic energy error for atom=    0.0007 (will be added to EATOM!!)
 
 
 POSCAR: Ge Se
  positions in cartesian coordinates
  No initial velocities read in
 exchange correlation table for  LEXCH =        8
   RHO(1)=    0.500       N(1)  =     2000
   RHO(2)=  100.500       N(2)  =     4000
 


--------------------------------------------------------------------------------------------------------


 ion  position               nearest neighbor table
   1  0.093  0.025  0.130-  45 2.58  67 2.72  54 2.77
   2  0.263  0.858  0.383-  67 2.45  48 2.62  50 2.85
   3  0.574  0.208  0.383-  68 2.65  49 2.68  56 2.75
   4  0.562  0.524  0.377-  69 2.66  49 2.79  56 2.83
   5  0.565  0.879  0.379-  48 2.52  44 2.69  70 2.76
   6  0.934  0.189  0.373-  55 2.45  46 2.52  45 2.81
   7  0.895  0.547  0.352-  72 2.49  71 2.51  47 2.59
   8  0.869  0.847  0.379-  44 2.56  72 2.60  53 2.67
   9  0.082  0.152  0.641-  57 2.53  37 2.57  51 2.67
  10  0.066  0.508  0.617-  58 2.46  52 2.64  43 2.72
  11  0.063  0.839  0.625-  59 2.58  37 2.82
  12  0.386  0.120  0.567-  51 2.51  40 2.59  48 2.77
  13  0.362  0.493  0.623-  38 2.46  39 2.71  61 2.72
  14  0.399  0.815  0.627-  39 2.37  62 2.61  42 2.78
  15  0.701  0.187  0.635-  41 2.33  63 2.60  40 2.76
  16  0.756  0.500  0.637-  52 2.60  43 2.63  64 2.63
  17  0.230  0.529  0.362-  66 2.50  47 2.81
  18  0.230  0.186  0.362-  54 2.57  45 2.79  46 2.82
  19  0.708  0.836  0.615-  42 2.46  65 2.70
  20  0.885  0.667  0.841-  65 2.63  52 2.67  64 2.74  58 2.80
  21  0.891  0.966  0.855-  65 2.48  37 2.70  59 2.78
  22  0.029  0.348  0.128-  71 2.68  55 2.72
  23  0.056  0.713  0.106-  47 2.48  53 2.63  30 2.67
  24  0.391  0.044  0.092-  54 2.53  60 2.66  68 2.83
  25  0.415  0.360  0.123-  66 2.45  49 2.55
  26  0.735  0.042  0.113-  68 2.55  44 2.64  55 2.64
  27  0.717  0.397  0.130-  69 2.53  56 2.54  71 2.77
  28  0.407  0.711  0.098-  50 2.51  70 2.68
  29  0.188  0.354  0.895-  57 2.63  38 2.66
  30  0.209  0.640  0.958-  58 2.42  23 2.67
  31  0.240  0.982  0.869-  51 2.64  62 2.76  59 2.81
  32  0.577  0.331  0.900-  41 2.64
  33  0.558  0.630  0.879-  61 2.45  64 2.65  42 2.81
  34  0.560  0.008  0.873-  40 2.57  60 2.76
  35  0.911  0.320  0.895-  57 2.50  63 2.74  43 2.75
  36  0.718  0.696  0.120-  72 2.55  70 2.65  69 2.78
  37  0.926  0.018  0.619-   9 2.57  21 2.70  11 2.82
  38  0.231  0.349  0.658-  13 2.46  29 2.66
  39  0.261  0.685  0.634-  14 2.37  13 2.71
  40  0.557  0.019  0.639-  34 2.57  12 2.59  15 2.76
  41  0.579  0.328  0.660-  15 2.33  32 2.64
  42  0.581  0.686  0.633-  19 2.46  14 2.78  33 2.81
  43  0.911  0.357  0.649-  16 2.63  10 2.72  35 2.75
  44  0.739  0.004  0.348-   8 2.56  26 2.64   5 2.69
  45  0.081  0.019  0.364-   1 2.58  18 2.79   6 2.81
  46  0.066  0.341  0.389-   6 2.52  18 2.82
  47  0.059  0.673  0.327-  23 2.48   7 2.59  17 2.81
  48  0.409  0.006  0.353-   5 2.52   2 2.62  12 2.77
  49  0.417  0.354  0.354-  25 2.55   3 2.68   4 2.79
  50  0.399  0.681  0.324-  28 2.51   2 2.85
  51  0.234  0.001  0.630-  12 2.51  31 2.64   9 2.67
  52  0.904  0.643  0.601-  16 2.60  10 2.64  20 2.67
  53  0.895  0.847  0.139-  23 2.63   8 2.67
  54  0.247  0.184  0.129-  24 2.53  18 2.57   1 2.77
  55  0.889  0.182  0.156-   6 2.45  26 2.64  22 2.72
  56  0.725  0.367  0.358-  27 2.54   3 2.75   4 2.83
  57  0.060  0.188  0.867-  35 2.50   9 2.53  29 2.63
  58  0.076  0.549  0.835-  30 2.42  10 2.46  20 2.80
  59  0.071  0.833  0.859-  11 2.58  21 2.78  31 2.81
  60  0.409  0.169  0.896-  24 2.66  34 2.76
  61  0.410  0.502  0.865-  33 2.45  13 2.72
  62  0.394  0.823  0.864-  14 2.61  31 2.76
  63  0.748  0.175  0.864-  15 2.60  35 2.74
  64  0.734  0.511  0.875-  16 2.63  33 2.65  20 2.74
  65  0.749  0.828  0.856-  21 2.48  20 2.63  19 2.70
  66  0.248  0.462  0.149-  25 2.45  17 2.50
  67  0.233  0.861  0.164-   2 2.45   1 2.72
  68  0.576  0.167  0.146-  26 2.55   3 2.65  24 2.83
  69  0.566  0.533  0.135-  27 2.53   4 2.66  36 2.78
  70  0.570  0.848  0.131-  36 2.65  28 2.68   5 2.76
  71  0.902  0.520  0.126-   7 2.51  22 2.68  27 2.77
  72  0.746  0.680  0.349-   7 2.49  36 2.55   8 2.60
 

IMPORTANT INFORMATION: All symmetrisations will be switched off!
NOSYMM: (Re-)initialisation of all symmetry stuff for point group C_1.


----------------------------------------------------------------------------------------

                                     Primitive cell                                     

  volume of cell :    1709.8146

  direct lattice vectors                    reciprocal lattice vectors
    12.461162731  0.000004821 -0.000001587     0.080249333 -0.000000031  0.000000013
     0.000004824 12.469469014  0.000002244    -0.000000031  0.080195877 -0.000000019
    -0.000001805  0.000002549 11.003794956     0.000000012 -0.000000016  0.090877738

  length of vectors
    12.461162731 12.469469014 11.003794956     0.080249333  0.080195877  0.090877738

  position of ions in fractional coordinates (direct lattice)
     0.092574125  0.025186614  0.130160013
     0.263333509  0.857684153  0.383118956
     0.573525407  0.208339270  0.382673692
     0.562298966  0.523863337  0.377096437
     0.564717972  0.878774653  0.379123150
     0.933638744  0.189072183  0.372650199
     0.894511564  0.547148663  0.351818958
     0.868694149  0.846658434  0.379395979
     0.082227431  0.152453198  0.641347466
     0.066344637  0.508392128  0.616566010
     0.062918413  0.838647571  0.624927223
     0.386246559  0.120170417  0.567158820
     0.362047962  0.492787887  0.623397433
     0.399321271  0.814820739  0.626943092
     0.700528065  0.187365905  0.634653283
     0.756314556  0.499543205  0.637159992
     0.229707483  0.528868694  0.362202217
     0.229679951  0.186294259  0.361578235
     0.708130781  0.836021545  0.614772926
     0.885044396  0.667420871  0.840679640
     0.891484765  0.965772647  0.854546822
     0.029257195  0.347690411  0.128264339
     0.056399223  0.712802139  0.106276546
     0.390676654  0.044446876  0.091936989
     0.414959926  0.360424676  0.123156337
     0.734985832  0.042024158  0.112621462
     0.716946979  0.396604453  0.129992050
     0.406938480  0.710786262  0.097814628
     0.187778530  0.354106595  0.894662188
     0.209055304  0.639648484  0.957781532
     0.239554736  0.981861697  0.868610417
     0.577220360  0.331006582  0.899857775
     0.558263057  0.630139130  0.879126045
     0.559772247  0.008412640  0.872571030
     0.911142137  0.320210636  0.894864125
     0.718007694  0.695767024  0.120022191
     0.926322441  0.018499016  0.619430112
     0.231268240  0.348556929  0.658335653
     0.260834354  0.684532983  0.634114511
     0.556763239  0.019332110  0.639288255
     0.578832643  0.327595597  0.659696875
     0.581067615  0.685858063  0.632777364
     0.911286627  0.357277393  0.648594389
     0.738826032  0.003731019  0.348457488
     0.080995209  0.018981629  0.363718995
     0.066443453  0.340574170  0.388863960
     0.058804053  0.672507810  0.327226784
     0.409340444  0.006043899  0.353173528
     0.417377557  0.353988292  0.354436852
     0.398563862  0.681250865  0.323508593
     0.233510985  0.001051045  0.629576948
     0.903850286  0.643298972  0.600517168
     0.895475577  0.846624121  0.139024343
     0.247462717  0.184259071  0.129046819
     0.889372091  0.182468539  0.156007895
     0.725229717  0.366720269  0.358200957
     0.060331284  0.188324221  0.866502030
     0.075639134  0.549230864  0.835444240
     0.070505203  0.833033231  0.858703863
     0.408510556  0.168713431  0.896416183
     0.409588522  0.501650686  0.864809555
     0.393632352  0.823053444  0.863686625
     0.748295371  0.175377919  0.863824236
     0.733725571  0.510573988  0.874675129
     0.748751315  0.827590160  0.855809475
     0.247950250  0.461677963  0.149183636
     0.232835295  0.860516783  0.163501207
     0.575790278  0.167450490  0.146273074
     0.566350446  0.532820228  0.135282786
     0.569783588  0.847996107  0.131041426
     0.901512865  0.520125496  0.125930983
     0.745867210  0.680410305  0.348513607

  ion indices of the primitive-cell ions
   primitive index   ion index
                 1           1
                 2           2
                 3           3
                 4           4
                 5           5
                 6           6
                 7           7
                 8           8
                 9           9
                10          10
                11          11
                12          12
                13          13
                14          14
                15          15
                16          16
                17          17
                18          18
                19          19
                20          20
                21          21
                22          22
                23          23
                24          24
                25          25
                26          26
                27          27
                28          28
                29          29
                30          30
                31          31
                32          32
                33          33
                34          34
                35          35
                36          36
                37          37
                38          38
                39          39
                40          40
                41          41
                42          42
                43          43
                44          44
                45          45
                46          46
                47          47
                48          48
                49          49
                50          50
                51          51
                52          52
                53          53
                54          54
                55          55
                56          56
                57          57
                58          58
                59          59
                60          60
                61          61
                62          62
                63          63
                64          64
                65          65
                66          66
                67          67
                68          68
                69          69
                70          70
                71          71
                72          72

----------------------------------------------------------------------------------------

 
 
 KPOINTS: KPOINTS created by Atomic Simulation Env

Automatic generation of k-mesh.
 Grid dimensions read from file:
 generate k-points for:    2    2    2

 Generating k-lattice:

  Cartesian coordinates                     Fractional coordinates (reciprocal lattice)
     0.040124667 -0.000000016  0.000000007     0.500000000  0.000000000 -0.000000000
    -0.000000016  0.040097938 -0.000000009    -0.000000000  0.500000000  0.000000000
     0.000000006 -0.000000008  0.045438869    -0.000000000  0.000000000  0.500000000

  Length of vectors
     0.040124667  0.040097938  0.045438869

  Shift w.r.t. Gamma in fractional coordinates (k-lattice)
     0.000000000  0.000000000  0.000000000

 
 Subroutine IBZKPT returns following result:
 ===========================================
 
 Found      8 irreducible k-points:
 
 Following reciprocal coordinates:
            Coordinates               Weight
  0.000000  0.000000  0.000000      1.000000
  0.500000  0.000000  0.000000      1.000000
  0.000000  0.500000  0.000000      1.000000
  0.500000  0.500000  0.000000      1.000000
  0.000000  0.000000  0.500000      1.000000
  0.500000  0.000000  0.500000      1.000000
  0.000000  0.500000  0.500000      1.000000
  0.500000  0.500000  0.500000      1.000000
 
 Following cartesian coordinates:
            Coordinates               Weight
  0.000000  0.000000  0.000000      1.000000
  0.040125 -0.000000  0.000000      1.000000
 -0.000000  0.040098 -0.000000      1.000000
  0.040125  0.040098 -0.000000      1.000000
  0.000000 -0.000000  0.045439      1.000000
  0.040125 -0.000000  0.045439      1.000000
 -0.000000  0.040098  0.045439      1.000000
  0.040125  0.040098  0.045439      1.000000
 
 -----------------------------------------------------------------------------
|                                                                             |
|           W    W    AA    RRRRR   N    N  II  N    N   GGGG   !!!           |
|           W    W   A  A   R    R  NN   N  II  NN   N  G    G  !!!           |
|           W    W  A    A  R    R  N N  N  II  N N  N  G       !!!           |
|           W WW W  AAAAAA  RRRRR   N  N N  II  N  N N  G  GGG   !            |
|           WW  WW  A    A  R   R   N   NN  II  N   NN  G    G                |
|           W    W  A    A  R    R  N    N  II  N    N   GGGG   !!!           |
|                                                                             |
|     The number of bands has been changed from the values supplied in        |
|     the INCAR file. This is a result of running the parallel version.       |
|     The orbitals not found in the WAVECAR file will be initialized with     |
|     random numbers, which is usually adequate. For correlated               |
|     calculations, however, you should redo the groundstate calculation.     |
|     I found NBANDS = 220. Now, NBANDS = 224.                                |
|                                                                             |
 -----------------------------------------------------------------------------



--------------------------------------------------------------------------------------------------------




 Dimension of arrays:
   k-points           NKPTS =      8   k-points in BZ     NKDIM =      8   number of bands    NBANDS=    224
   number of dos      NEDOS =    301   number of ions     NIONS =     72
   non local maximal  LDIM  =      5   non local SUM 2l+1 LMDIM =     13
   total plane-waves  NPLWV = 774144
   max r-space proj   IRMAX =      1   max aug-charges    IRDMAX=  24805
   dimension x,y,z NGX =    96 NGY =   96 NGZ =   84
   dimension x,y,z NGXF=   192 NGYF=  192 NGZF=  168
   support grid    NGXF=   192 NGYF=  192 NGZF=  168
   ions per type =              36  36
   NGX,Y,Z   is equivalent  to a cutoff of  12.81, 12.80, 12.69 a.u.
   NGXF,Y,Z  is equivalent  to a cutoff of  25.61, 25.60, 25.38 a.u.

 SYSTEM =  01_AOPT                                 
 POSCAR =  Ge Se                                   

 Startparameter for this run:
   NWRITE =      2    write-flag & timer
   PREC   = accura    normal or accurate (medium, high low for compatibility)
   ISTART =      0    job   : 0-new  1-cont  2-samecut
   ICHARG =      2    charge: 1-file 2-atom 10-const
   ISPIN  =      2    spin polarized calculation?
   LNONCOLLINEAR =      F non collinear calculations
   LSORBIT =      F    spin-orbit coupling
   INIWAV =      1    electr: 0-lowe 1-rand  2-diag
   LASPH  =      T    aspherical Exc in radial PAW
 Electronic Relaxation 1
   ENCUT  =  520.0 eV  38.22 Ry    6.18 a.u.  23.17 23.18 20.46*2*pi/ulx,y,z
   ENINI  =  520.0     initial cutoff
   ENAUG  =  446.8 eV  augmentation charge cutoff
   NELM   =    100;   NELMIN=  5; NELMDL=  0     # of ELM steps 
   EDIFF  = 0.1E-05   stopping-criterion for ELM
   LREAL  =      F    real-space projection
   NLSPLINE    = F    spline interpolate recip. space projectors
   LCOMPAT=      F    compatible to vasp.4.4
   GGA_COMPAT  = T    GGA compatible to vasp.4.4-vasp.4.6
   LMAXPAW     = -100 max onsite density
   LMAXMIX     =    2 max onsite mixed and CHGCAR
   VOSKOWN=      0    Vosko Wilk Nusair interpolation
   ROPT   =    0.00000   0.00000
 Ionic relaxation
   EDIFFG = 0.1E-04   stopping-criterion for IOM
   NSW    =      0    number of steps for IOM
   NBLOCK =      1;   KBLOCK =      1    inner block; outer block 
   IBRION =     -1    ionic relax: 0-MD 1-quasi-New 2-CG
   NFREE  =      0    steps in history (QN), initial steepest desc. (CG)
   ISIF   =      2    stress and relaxation
   IWAVPR =     10    prediction:  0-non 1-charg 2-wave 3-comb
   ISYM   =     -1    0-nonsym 1-usesym 2-fastsym
   LCORR  =      T    Harris-Foulkes like correction to forces

   POTIM  = 0.5000    time-step for ionic-motion
   TEIN   =    0.0    initial temperature
   TEBEG  =    0.0;   TEEND  =   0.0 temperature during run
   SMASS  =  -3.00    Nose mass-parameter (am)
   estimated Nose-frequenzy (Omega)   =  0.10E-29 period in steps = 0.13E+47 mass=  -0.355E-26a.u.
   SCALEE = 1.0000    scale energy and forces
   NPACO  =    256;   APACO  = 10.0  distance and # of slots for P.C.
   PSTRESS=    0.0 pullay stress

  Mass of Ions in am
   POMASS =  72.61 78.96
  Ionic Valenz
   ZVAL   =   4.00  6.00
  Atomic Wigner-Seitz radii
   RWIGS  =  -1.00 -1.00
  virtual crystal weights 
   VCA    =   1.00  1.00
   NELECT =     360.0000    total number of electrons
   NUPDOWN=      -1.0000    fix difference up-down

 DOS related values:
   EMIN   =  10.00;   EMAX   =-10.00  energy-range for DOS
   EFERMI =   0.00;   METHOD = LEGACY      
   ISMEAR =     0;   SIGMA  =   0.05  broadening in eV -4-tet -1-fermi 0-gaus

 Electronic relaxation 2 (details)
   IALGO  =     38    algorithm
   LDIAG  =      T    sub-space diagonalisation (order eigenvalues)
   LSUBROT=      F    optimize rotation matrix (better conditioning)
   TURBO    =      0    0=normal 1=particle mesh
   IRESTART =      0    0=no restart 2=restart with 2 vectors
   NREBOOT  =      0    no. of reboots
   NMIN     =      0    reboot dimension
   EREF     =   0.00    reference energy to select bands
   IMIX   =      4    mixing-type and parameters
     AMIX     =   0.40;   BMIX     =  1.00
     AMIX_MAG =   1.60;   BMIX_MAG =  1.00
     AMIN     =   0.10
     WC   =   100.;   INIMIX=   1;  MIXPRE=   1;  MAXMIX= -45

 Intra band minimization:
   WEIMIN = 0.0000     energy-eigenvalue tresh-hold
   EBREAK =  0.11E-08  absolut break condition
   DEPER  =   0.30     relativ break condition  

   TIME   =   0.40     timestep for ELM

  volume/ion in A,a.u.               =      23.75       160.26
  Fermi-wavevector in a.u.,A,eV,Ry     =   0.973926  1.840453 12.905561  0.948532
  Thomas-Fermi vector in A             =   2.104345
 
 Write flags
   LWAVE        =      F    write WAVECAR
   LDOWNSAMPLE  =      F    k-point downsampling of WAVECAR
   LCHARG       =      F    write CHGCAR
   LVTOT        =      F    write LOCPOT, total local potential
   LVHAR        =      F    write LOCPOT, Hartree potential only
   LELF         =      F    write electronic localiz. function (ELF)
   LORBIT       =     11    0 simple, 1 ext, 2 COOP (PROOUT), +10 PAW based schemes


 Dipole corrections
   LMONO  =      F    monopole corrections only (constant potential shift)
   LDIPOL =      F    correct potential (dipole corrections)
   IDIPOL =      0    1-x, 2-y, 3-z, 4-all directions 
   EPSILON=  1.0000000 bulk dielectric constant

 Exchange correlation treatment:
   GGA     =    PE    GGA type
   LEXCH   =     8    internal setting for exchange type
   LIBXC   =     F    Libxc                    
   VOSKOWN =     0    Vosko Wilk Nusair interpolation
   LHFCALC =     F    Hartree Fock is set to
   LHFONE  =     F    Hartree Fock one center treatment
   AEXX    =    0.0000 exact exchange contribution

 Linear response parameters
   LEPSILON=     F    determine dielectric tensor
   LRPA    =     F    only Hartree local field effects (RPA)
   LNABLA  =     F    use nabla operator in PAW spheres
   LVEL    =     F    velocity operator in full k-point grid
   CSHIFT  =0.1000    complex shift for real part using Kramers Kronig
   OMEGAMAX=  -1.0    maximum frequency
   DEG_THRESHOLD= 0.2000000E-02 threshold for treating states as degnerate
   RTIME   =   -0.100 relaxation time in fs
  (WPLASMAI=    0.000 imaginary part of plasma frequency in eV, 0.658/RTIME)
   DFIELD  = 0.0000000 0.0000000 0.0000000 field for delta impulse in time
 
  Optional k-point grid parameters
   LKPOINTS_OPT  =     F    use optional k-point grid
   KPOINTS_OPT_MODE=     1    mode for optional k-point grid
 
 Orbital magnetization related:
   ORBITALMAG=     F  switch on orbital magnetization
   LCHIMAG   =     F  perturbation theory with respect to B field
   DQ        =  0.001000  dq finite difference perturbation B field
   LLRAUG    =     F  two centre corrections for induced B field
   LBONE     =     F  B-component reconstruction in AE one-centre
   LVGVCALC  =     T  calculate vGv susceptibility
   LVGVAPPL  =     F  apply vGv susceptibility instead of pGv for G=0

 Random number generation:
   RANDOM_GENERATOR = DEFAULT
   PCG_SEED         = not used


--------------------------------------------------------------------------------------------------------


 Static calculation
 charge density and potential will be updated during run
 spin polarized calculation
 Variant of blocked Davidson
 Davidson routine will perform the subspace rotation
 perform sub-space diagonalisation
    after iterative eigenvector-optimisation
 modified Broyden-mixing scheme, WC =      100.0
 initial mixing is a Kerker type mixing with AMIX =  0.4000 and BMIX =      1.0000
 Hartree-type preconditioning will be used
 using additional bands            44
 reciprocal scheme for non local part
 use partial core corrections
 calculate Harris-corrections to forces 
   (improved forces if not selfconsistent)
 use gradient corrections 
 use of overlap-Matrix (Vanderbilt PP)
 Gauss-broadening in eV      SIGMA  =   0.05


--------------------------------------------------------------------------------------------------------


  energy-cutoff  :      520.00
  volume of cell :     1709.81
      direct lattice vectors                 reciprocal lattice vectors
    12.461162731  0.000004821 -0.000001587     0.080249333 -0.000000031  0.000000013
     0.000004824 12.469469014  0.000002244    -0.000000031  0.080195877 -0.000000019
    -0.000001805  0.000002549 11.003794956     0.000000012 -0.000000016  0.090877738

  length of vectors
    12.461162731 12.469469014 11.003794956     0.080249333  0.080195877  0.090877738


 
 k-points in units of 2pi/SCALE and weight: KPOINTS created by Atomic Simulation Env
   0.00000000  0.00000000  0.00000000       0.125
   0.04012467 -0.00000002  0.00000001       0.125
  -0.00000002  0.04009794 -0.00000001       0.125
   0.04012465  0.04009792 -0.00000000       0.125
   0.00000001 -0.00000001  0.04543887       0.125
   0.04012467 -0.00000002  0.04543888       0.125
  -0.00000001  0.04009793  0.04543886       0.125
   0.04012466  0.04009791  0.04543887       0.125
 
 k-points in reciprocal lattice and weights: KPOINTS created by Atomic Simulation Env
   0.00000000  0.00000000  0.00000000       0.125
   0.50000000  0.00000000  0.00000000       0.125
   0.00000000  0.50000000  0.00000000       0.125
   0.50000000  0.50000000  0.00000000       0.125
   0.00000000  0.00000000  0.50000000       0.125
   0.50000000  0.00000000  0.50000000       0.125
   0.00000000  0.50000000  0.50000000       0.125
   0.50000000  0.50000000  0.50000000       0.125
 
 position of ions in fractional coordinates (direct lattice) 
   0.09257412  0.02518661  0.13016001
   0.26333351  0.85768415  0.38311896
   0.57352541  0.20833927  0.38267369
   0.56229897  0.52386334  0.37709644
   0.56471797  0.87877465  0.37912315
   0.93363874  0.18907218  0.37265020
   0.89451156  0.54714866  0.35181896
   0.86869415  0.84665843  0.37939598
   0.08222743  0.15245320  0.64134747
   0.06634464  0.50839213  0.61656601
   0.06291841  0.83864757  0.62492722
   0.38624656  0.12017042  0.56715882
   0.36204796  0.49278789  0.62339743
   0.39932127  0.81482074  0.62694309
   0.70052806  0.18736591  0.63465328
   0.75631456  0.49954320  0.63715999
   0.22970748  0.52886869  0.36220222
   0.22967995  0.18629426  0.36157823
   0.70813078  0.83602154  0.61477293
   0.88504440  0.66742087  0.84067964
   0.89148477  0.96577265  0.85454682
   0.02925720  0.34769041  0.12826434
   0.05639922  0.71280214  0.10627655
   0.39067665  0.04444688  0.09193699
   0.41495993  0.36042468  0.12315634
   0.73498583  0.04202416  0.11262146
   0.71694698  0.39660445  0.12999205
   0.40693848  0.71078626  0.09781463
   0.18777853  0.35410659  0.89466219
   0.20905530  0.63964848  0.95778153
   0.23955474  0.98186170  0.86861042
   0.57722036  0.33100658  0.89985777
   0.55826306  0.63013913  0.87912605
   0.55977225  0.00841264  0.87257103
   0.91114214  0.32021064  0.89486413
   0.71800769  0.69576702  0.12002219
   0.92632244  0.01849902  0.61943011
   0.23126824  0.34855693  0.65833565
   0.26083435  0.68453298  0.63411451
   0.55676324  0.01933211  0.63928826
   0.57883264  0.32759560  0.65969687
   0.58106762  0.68585806  0.63277736
   0.91128663  0.35727739  0.64859439
   0.73882603  0.00373102  0.34845749
   0.08099521  0.01898163  0.36371900
   0.06644345  0.34057417  0.38886396
   0.05880405  0.67250781  0.32722678
   0.40934044  0.00604390  0.35317353
   0.41737756  0.35398829  0.35443685
   0.39856386  0.68125087  0.32350859
   0.23351099  0.00105104  0.62957695
   0.90385029  0.64329897  0.60051717
   0.89547558  0.84662412  0.13902434
   0.24746272  0.18425907  0.12904682
   0.88937209  0.18246854  0.15600789
   0.72522972  0.36672027  0.35820096
   0.06033128  0.18832422  0.86650203
   0.07563913  0.54923086  0.83544424
   0.07050520  0.83303323  0.85870386
   0.40851056  0.16871343  0.89641618
   0.40958852  0.50165069  0.86480956
   0.39363235  0.82305344  0.86368662
   0.74829537  0.17537792  0.86382424
   0.73372557  0.51057399  0.87467513
   0.74875132  0.82759016  0.85580948
   0.24795025  0.46167796  0.14918364
   0.23283530  0.86051678  0.16350121
   0.57579028  0.16745049  0.14627307
   0.56635045  0.53282023  0.13528279
   0.56978359  0.84799611  0.13104143
   0.90151286  0.52012550  0.12593098
   0.74586721  0.68041030  0.34851361
 
 position of ions in cartesian coordinates  (Angst):
   1.15358112  0.31406449  1.43225401
   3.28144516 10.69486822  4.21576394
   7.14679374  2.59788381  4.21086239
   7.00690077  6.53230132  4.14949216
   7.03704610 10.95785699  4.17179448
  11.63422456  2.35763518  4.10056532
  11.14665617  6.82265850  3.87134348
  10.82494255 10.55738627  4.17479609
   1.02464898  1.90101246  7.05725623
   0.82673266  6.33938177  6.78456699
   0.78403950 10.45749180  6.87657281
   4.81308079  1.49846459  6.24089902
   4.51153982  6.14480662  6.85973806
   4.97601015 10.16038548  6.89875443
   8.72939397  2.33635834  6.98359390
   9.42456002  6.22904378  7.01117782
   2.86242423  6.59471382  3.98559975
   2.86207949  2.32299251  3.97873281
   8.82413582 10.42474973  6.76483597
  11.02868395  8.32239029  9.25066647
  11.10893985 12.04267857  9.40325877
   0.36458011  4.33551528  1.41139522
   0.70280315  8.88826473  1.16944683
   4.86828541  0.55423106  1.01165525
   5.17088468  4.49430665  1.35518723
   9.15877806  0.52402276  1.23926240
   8.93399465  4.94545072  1.43040562
   5.07092987  8.86312948  1.07633306
   2.33993891  4.41552440  9.84467977
   2.60507351  7.97608040 10.53923269
   2.98513372 12.24329738  9.55801274
   7.19283681  4.12748139  9.90185027
   6.95660825  7.85750529  9.67372327
   6.97541152  0.10490607  9.60159183
  11.35389038  3.99286327  9.84690062
   8.94721386  8.67584911  1.32070000
  11.54305365  0.23067895  6.81608051
   2.88187167  4.34632262  7.24419096
   3.25030149  8.53576569  6.97766717
   6.93791626  0.24106547  7.03459604
   7.21292815  4.08494762  7.25916896
   7.24078028  8.55229028  6.96295298
  11.35569151  4.45506543  7.13699902
   9.20663080  0.04652828  3.83435359
   1.00929391  0.23669215  4.00228916
   0.82796362  4.24678038  4.27897994
   0.73276952  8.38581641  3.60073785
   5.10085728  0.07536708  3.88624845
   5.20101073  4.41404895  3.90015058
   4.96657184  8.49483930  3.55982312
   2.90981726  0.01310870  6.92773527
  11.26302752  8.02160249  6.60796780
  11.15867071 10.55695791  1.52979584
   3.08367384  2.29761430  1.42000475
  11.08261096  2.27529048  1.71667789
   9.03720665  4.57281144  3.94156956
   0.75179729  2.34830554  9.53481099
   0.94255270  6.84861973  9.19305823
   0.87857928 10.38748459  9.44900299
   5.09051571  2.10377115  9.86397960
   5.10395009  6.25532186  9.51618750
   4.90511921 10.26304352  9.50383175
   9.32462967  2.18687534  9.50534397
   9.14307462  6.36659229  9.62474576
   9.33031443 10.31961564  9.41715266
   3.08975037  5.75688063  1.64158679
   2.90140236 10.73018890  1.79913532
   7.17501690  2.08802184  1.60955838
   7.05738739  6.64398839  1.48862434
   7.10016987 10.57406426  1.44195398
  11.23390079  6.48569342  1.38571845
   9.29437534  8.48435970  3.83497261
 


--------------------------------------------------------------------------------------------------------


 k-point   1 :   0.0000 0.0000 0.0000  plane waves:   45981
 k-point   2 :   0.5000 0.0000 0.0000  plane waves:   46074
 k-point   3 :   0.0000 0.5000 0.0000  plane waves:   46066
 k-point   4 :   0.5000 0.5000 0.0000  plane waves:   46120
 k-point   5 :   0.0000 0.0000 0.5000  plane waves:   45916
 k-point   6 :   0.5000 0.0000 0.5000  plane waves:   46036
 k-point   7 :   0.0000 0.5000 0.5000  plane waves:   46036
 k-point   8 :   0.5000 0.5000 0.5000  plane waves:   46040

 maximum and minimum number of plane-waves per node :      5798     5705

 maximum number of plane-waves:     46120
 maximum index in each direction: 
   IXMAX=   23   IYMAX=   23   IZMAX=   20
   IXMIN=  -23   IYMIN=  -23   IZMIN=  -20


 parallel 3D FFT for wavefunctions:
    minimum data exchange during FFTs selected (reduces bandwidth)
 parallel 3D FFT for charge:
    minimum data exchange during FFTs selected (reduces bandwidth)


 total amount of memory used by VASP MPI-rank0   110522. kBytes
=======================================================================

   base      :      30000. kBytes
   nonl-proj :      16287. kBytes
   fftplans  :       6177. kBytes
   grid      :      15593. kBytes
   one-center:        146. kBytes
   wavefun   :      42319. kBytes
 
     INWAV:  cpu time      0.0000: real time      0.0001
 Broyden mixing: mesh for mixing (old mesh)
   NGX = 47   NGY = 47   NGZ = 41
  (NGX  =192   NGY  =192   NGZ  =168)
  gives a total of  90569 points

 initial charge density was supplied:
 charge density of overlapping atoms calculated
 number of electron     360.0000000 magnetization      72.0000000
 keeping initial charge density in first step


--------------------------------------------------------------------------------------------------------


 Maximum index for augmentation-charges           904 (set IRDMAX)


--------------------------------------------------------------------------------------------------------


 First call to EWALD:  gamma=   0.148
 Maximum number of real-space cells 3x 3x 3
 Maximum number of reciprocal cells 3x 3x 3

    FEWALD:  cpu time      0.0024: real time      0.0024


--------------------------------------- Ionic step        1  -------------------------------------------




--------------------------------------- Iteration      1(   1)  ---------------------------------------


    POTLOK:  cpu time      0.1392: real time      0.1407
    SETDIJ:  cpu time      0.5966: real time      0.5982
     EDDAV:  cpu time      8.5469: real time      8.5931
       DOS:  cpu time      0.0016: real time      0.0016
    --------------------------------------------
      LOOP:  cpu time      9.2843: real time      9.3337

 eigenvalue-minimisations  :  7168
 total energy-change (2. order) : 0.1814990E+04  (-0.1419901E+05)
 number of electron     360.0000000 magnetization      72.0000000
 augmentation part      360.0000000 magnetization      72.0000000

 Free energy of the ion-electron system (eV)
  ---------------------------------------------------
  alpha Z        PSCENC =       802.71866528
  Ewald energy   TEWEN  =    -12889.35433574
  -Hartree energ DENC   =     -1112.49950626
  -exchange      EXHF   =         0.00000000
  -V(xc)+E(xc)   XCENC  =      -293.01023308
  PAW double counting   =     10738.42099860    -9719.93139476
  entropy T*S    EENTRO =        -0.02357890
  eigenvalues    EBANDS =      1252.21791495
  atomic energy  EATOM  =     13036.45147835
  Solvation  Ediel_sol  =         0.00000000
  ---------------------------------------------------
  free energy    TOTEN  =      1814.99000844 eV

  energy without entropy =     1815.01358734  energy(sigma->0) =     1815.00179789


--------------------------------------------------------------------------------------------------------




--------------------------------------- Iteration      1(   2)  ---------------------------------------


     EDDAV:  cpu time      9.6625: real time      9.7242
       DOS:  cpu time      0.0015: real time      0.0015
    --------------------------------------------
      LOOP:  cpu time      9.6640: real time      9.7257

 eigenvalue-minimisations  :  8456
 total energy-change (2. order) :-0.1876108E+04  (-0.1801984E+04)
 number of electron     360.0000000 magnetization      72.0000000
 augmentation part      360.0000000 magnetization      72.0000000

 Free energy of the ion-electron system (eV)
  ---------------------------------------------------
  alpha Z        PSCENC =       802.71866528
  Ewald energy   TEWEN  =    -12889.35433574
  -Hartree energ DENC   =     -1112.49950626
  -exchange      EXHF   =         0.00000000
  -V(xc)+E(xc)   XCENC  =      -293.01023308
  PAW double counting   =     10738.42099860    -9719.93139476
  entropy T*S    EENTRO =        -0.02590094
  eigenvalues    EBANDS =      -623.88776553
  atomic energy  EATOM  =     13036.45147835
  Solvation  Ediel_sol  =         0.00000000
  ---------------------------------------------------
  free energy    TOTEN  =       -61.11799408 eV

  energy without entropy =      -61.09209314  energy(sigma->0) =      -61.10504361


--------------------------------------------------------------------------------------------------------




--------------------------------------- Iteration      1(   3)  ---------------------------------------


     EDDAV:  cpu time      9.7732: real time      9.8332
       DOS:  cpu time      0.0013: real time      0.0013
    --------------------------------------------
      LOOP:  cpu time      9.7745: real time      9.8345

 eigenvalue-minimisations  :  8632
 total energy-change (2. order) :-0.2166069E+03  (-0.2098074E+03)
 number of electron     360.0000000 magnetization      72.0000000
 augmentation part      360.0000000 magnetization      72.0000000

 Free energy of the ion-electron system (eV)
  ---------------------------------------------------
  alpha Z        PSCENC =       802.71866528
  Ewald energy   TEWEN  =    -12889.35433574
  -Hartree energ DENC   =     -1112.49950626
  -exchange      EXHF   =         0.00000000
  -V(xc)+E(xc)   XCENC  =      -293.01023308
  PAW double counting   =     10738.42099860    -9719.93139476
  entropy T*S    EENTRO =        -0.00324655
  eigenvalues    EBANDS =      -840.51733893
  atomic energy  EATOM  =     13036.45147835
  Solvation  Ediel_sol  =         0.00000000
  ---------------------------------------------------
  free energy    TOTEN  =      -277.72491309 eV

  energy without entropy =     -277.72166655  energy(sigma->0) =     -277.72328982


--------------------------------------------------------------------------------------------------------




--------------------------------------- Iteration      1(   4)  ---------------------------------------


     EDDAV:  cpu time      9.9493: real time     10.0013
       DOS:  cpu time      0.0013: real time      0.0013
    --------------------------------------------
      LOOP:  cpu time      9.9506: real time     10.0026

 eigenvalue-minimisations  :  8736
 total energy-change (2. order) :-0.8004982E+01  (-0.7906820E+01)
 number of electron     360.0000000 magnetization      72.0000000
 augmentation part      360.0000000 magnetization      72.0000000

 Free energy of the ion-electron system (eV)
  ---------------------------------------------------
  alpha Z        PSCENC =       802.71866528
  Ewald energy   TEWEN  =    -12889.35433574
  -Hartree energ DENC   =     -1112.49950626
  -exchange      EXHF   =         0.00000000
  -V(xc)+E(xc)   XCENC  =      -293.01023308
  PAW double counting   =     10738.42099860    -9719.93139476
  entropy T*S    EENTRO =        -0.00280956
  eigenvalues    EBANDS =      -848.52275799
  atomic energy  EATOM  =     13036.45147835
  Solvation  Ediel_sol  =         0.00000000
  ---------------------------------------------------
  free energy    TOTEN  =      -285.72989516 eV

  energy without entropy =     -285.72708560  energy(sigma->0) =     -285.72849038


--------------------------------------------------------------------------------------------------------




--------------------------------------- Iteration      1(   5)  ---------------------------------------


     EDDAV:  cpu time     10.1740: real time     10.2341
       DOS:  cpu time      0.0044: real time      0.0044
    CHARGE:  cpu time      0.4358: real time      0.4376
    MIXING:  cpu time      0.0072: real time      0.0073
    --------------------------------------------
      LOOP:  cpu time     10.6213: real time     10.6834

 eigenvalue-minimisations  :  9056
 total energy-change (2. order) :-0.2936850E+00  (-0.2927621E+00)
 number of electron     359.9999991 magnetization      48.6893792
 augmentation part      -66.7782531 magnetization      48.8521756

 Broyden mixing:
  rms(total) = 0.29160E+01    rms(broyden)= 0.29160E+01
  rms(prec ) = 0.30957E+01
  weight for this iteration     100.00

 Free energy of the ion-electron system (eV)
  ---------------------------------------------------
  alpha Z        PSCENC =       802.71866528
  Ewald energy   TEWEN  =    -12889.35433574
  -Hartree energ DENC   =     -1112.49950626
  -exchange      EXHF   =         0.00000000
  -V(xc)+E(xc)   XCENC  =      -293.01023308
  PAW double counting   =     10738.42099860    -9719.93139476
  entropy T*S    EENTRO =        -0.00299415
  eigenvalues    EBANDS =      -848.81625839
  atomic energy  EATOM  =     13036.45147835
  Solvation  Ediel_sol  =         0.00000000
  ---------------------------------------------------
  free energy    TOTEN  =      -286.02358015 eV

  energy without entropy =     -286.02058600  energy(sigma->0) =     -286.02208308


--------------------------------------------------------------------------------------------------------




--------------------------------------- Iteration      1(   6)  ---------------------------------------


    POTLOK:  cpu time      0.1360: real time      0.1376
    SETDIJ:  cpu time      0.6044: real time      0.6060
     EDDAV:  cpu time      9.2833: real time      9.3330
       DOS:  cpu time      0.0011: real time      0.0011
    CHARGE:  cpu time      0.4185: real time      0.4200
    MIXING:  cpu time      0.0071: real time      0.0071
    --------------------------------------------
      LOOP:  cpu time     10.4504: real time     10.5049

 eigenvalue-minimisations  :  8024
 total energy-change (2. order) : 0.1785481E+01  (-0.2875345E+01)
 number of electron     359.9999991 magnetization      27.8743180
 augmentation part      -66.1739960 magnetization      29.0333412

 Broyden mixing:
  rms(total) = 0.17207E+01    rms(broyden)= 0.17207E+01
  rms(prec ) = 0.17580E+01
  weight for this iteration     100.00

 eigenvalues of (default mixing * dielectric matrix)
  average eigenvalue GAMMA=   1.0124
  1.0124

 Free energy of the ion-electron system (eV)
  ---------------------------------------------------
  alpha Z        PSCENC =       802.71866528
  Ewald energy   TEWEN  =    -12889.35433574
  -Hartree energ DENC   =     -1166.31667599
  -exchange      EXHF   =         0.00000000
  -V(xc)+E(xc)   XCENC  =      -286.61264234
  PAW double counting   =     13002.10377251   -11987.12837737
  entropy T*S    EENTRO =        -0.00182932
  eigenvalues    EBANDS =      -796.09815475
  atomic energy  EATOM  =     13036.45147835
  Solvation  Ediel_sol  =         0.00000000
  ---------------------------------------------------
  free energy    TOTEN  =      -284.23809938 eV

  energy without entropy =     -284.23627006  energy(sigma->0) =     -284.23718472


--------------------------------------------------------------------------------------------------------




--------------------------------------- Iteration      1(   7)  ---------------------------------------


    POTLOK:  cpu time      0.1326: real time      0.1337
    SETDIJ:  cpu time      0.6038: real time      0.6054
     EDDAV:  cpu time      9.2429: real time      9.2961
       DOS:  cpu time      0.0009: real time      0.0009
    CHARGE:  cpu time      0.4174: real time      0.4190
    MIXING:  cpu time      0.0072: real time      0.0073
    --------------------------------------------
      LOOP:  cpu time     10.4050: real time     10.4625

 eigenvalue-minimisations  :  7976
 total energy-change (2. order) :-0.8081306E+01  (-0.1004063E+01)
 number of electron     359.9999991 magnetization       9.9528392
 augmentation part      -66.1606549 magnetization      10.6131472

 Broyden mixing:
  rms(total) = 0.91124E+00    rms(broyden)= 0.91124E+00
  rms(prec ) = 0.92775E+00
  weight for this iteration     100.00

 eigenvalues of (default mixing * dielectric matrix)
  average eigenvalue GAMMA=   1.4163
  0.8659  1.9668

 Free energy of the ion-electron system (eV)
  ---------------------------------------------------
  alpha Z        PSCENC =       802.71866528
  Ewald energy   TEWEN  =    -12889.35433574
  -Hartree energ DENC   =     -1181.84307930
  -exchange      EXHF   =         0.00000000
  -V(xc)+E(xc)   XCENC  =      -289.57389097
  PAW double counting   =     15053.46970914   -14040.06710296
  entropy T*S    EENTRO =        -0.00003782
  eigenvalues    EBANDS =      -784.12081179
  atomic energy  EATOM  =     13036.45147835
  Solvation  Ediel_sol  =         0.00000000
  ---------------------------------------------------
  free energy    TOTEN  =      -292.31940581 eV

  energy without entropy =     -292.31936800  energy(sigma->0) =     -292.31938691


--------------------------------------------------------------------------------------------------------




--------------------------------------- Iteration      1(   8)  ---------------------------------------


    POTLOK:  cpu time      0.1309: real time      0.1315
    SETDIJ:  cpu time      0.6048: real time      0.6067
     EDDAV:  cpu time      9.5057: real time      9.5550
       DOS:  cpu time      0.0012: real time      0.0012
    CHARGE:  cpu time      0.4171: real time      0.4189
    MIXING:  cpu time      0.0074: real time      0.0075
    --------------------------------------------
      LOOP:  cpu time     10.6672: real time     10.7209

 eigenvalue-minimisations  :  8200
 total energy-change (2. order) :-0.3168085E+01  (-0.1762547E+00)
 number of electron     359.9999991 magnetization       4.5120392
 augmentation part      -66.2030762 magnetization       4.8297982

 Broyden mixing:
  rms(total) = 0.35956E+00    rms(broyden)= 0.35956E+00
  rms(prec ) = 0.36456E+00
  weight for this iteration     100.00

 eigenvalues of (default mixing * dielectric matrix)
  average eigenvalue GAMMA=   1.3456
  2.4704  0.9238  0.6425

 Free energy of the ion-electron system (eV)
  ---------------------------------------------------
  alpha Z        PSCENC =       802.71866528
  Ewald energy   TEWEN  =    -12889.35433574
  -Hartree energ DENC   =     -1183.05442748
  -exchange      EXHF   =         0.00000000
  -V(xc)+E(xc)   XCENC  =      -289.70596665
  PAW double counting   =     16705.25071683   -15692.68155795
  entropy T*S    EENTRO =        -0.00000000
  eigenvalues    EBANDS =      -785.11206345
  atomic energy  EATOM  =     13036.45147835
  Solvation  Ediel_sol  =         0.00000000
  ---------------------------------------------------
  free energy    TOTEN  =      -295.48749082 eV

  energy without entropy =     -295.48749082  energy(sigma->0) =     -295.48749082


--------------------------------------------------------------------------------------------------------




--------------------------------------- Iteration      1(   9)  ---------------------------------------


    POTLOK:  cpu time      0.1308: real time      0.1315
    SETDIJ:  cpu time      0.6018: real time      0.6083
     EDDAV:  cpu time     10.0586: real time     10.1051
       DOS:  cpu time      0.0007: real time      0.0008
    CHARGE:  cpu time      0.4103: real time      0.4118
    MIXING:  cpu time      0.0084: real time      0.0084
    --------------------------------------------
      LOOP:  cpu time     11.2106: real time     11.2658

 eigenvalue-minimisations  :  8928
 total energy-change (2. order) :-0.4429970E+00  (-0.4694088E-01)
 number of electron     359.9999991 magnetization       2.2781034
 augmentation part      -66.2412918 magnetization       2.4302716

 Broyden mixing:
  rms(total) = 0.15280E+00    rms(broyden)= 0.15280E+00
  rms(prec ) = 0.15524E+00
  weight for this iteration     100.00

 eigenvalues of (default mixing * dielectric matrix)
  average eigenvalue GAMMA=   1.3259
  2.6271  1.2156  0.8420  0.6189

 Free energy of the ion-electron system (eV)
  ---------------------------------------------------
  alpha Z        PSCENC =       802.71866528
  Ewald energy   TEWEN  =    -12889.35433574
  -Hartree energ DENC   =     -1182.21792057
  -exchange      EXHF   =         0.00000000
  -V(xc)+E(xc)   XCENC  =      -289.73391354
  PAW double counting   =     17053.71807601   -16041.53012201
  entropy T*S    EENTRO =        -0.00000000
  eigenvalues    EBANDS =      -785.98241557
  atomic energy  EATOM  =     13036.45147835
  Solvation  Ediel_sol  =         0.00000000
  ---------------------------------------------------
  free energy    TOTEN  =      -295.93048779 eV

  energy without entropy =     -295.93048779  energy(sigma->0) =     -295.93048779


--------------------------------------------------------------------------------------------------------




--------------------------------------- Iteration      1(  10)  ---------------------------------------


    POTLOK:  cpu time      0.1307: real time      0.1313
    SETDIJ:  cpu time      0.6053: real time      0.6071
     EDDAV:  cpu time      9.6629: real time      9.7086
       DOS:  cpu time      0.0009: real time      0.0009
    CHARGE:  cpu time      0.4256: real time      0.4274
    MIXING:  cpu time      0.0075: real time      0.0075
    --------------------------------------------
      LOOP:  cpu time     10.8329: real time     10.8829

 eigenvalue-minimisations  :  8352
 total energy-change (2. order) :-0.1117210E+00  (-0.1012822E-01)
 number of electron     359.9999991 magnetization       0.8126451
 augmentation part      -66.2400983 magnetization       0.8798288

 Broyden mixing:
  rms(total) = 0.74541E-01    rms(broyden)= 0.74541E-01
  rms(prec ) = 0.75679E-01
  weight for this iteration     100.00

 eigenvalues of (default mixing * dielectric matrix)
  average eigenvalue GAMMA=   1.3646
  2.7017  1.6897  0.9684  0.8392  0.6242

 Free energy of the ion-electron system (eV)
  ---------------------------------------------------
  alpha Z        PSCENC =       802.71866528
  Ewald energy   TEWEN  =    -12889.35433574
  -Hartree energ DENC   =     -1182.69433527
  -exchange      EXHF   =         0.00000000
  -V(xc)+E(xc)   XCENC  =      -289.70723551
  PAW double counting   =     17081.72062129   -16069.56214332
  entropy T*S    EENTRO =        -0.00000000
  eigenvalues    EBANDS =      -785.61492382
  atomic energy  EATOM  =     13036.45147835
  Solvation  Ediel_sol  =         0.00000000
  ---------------------------------------------------
  free energy    TOTEN  =      -296.04220875 eV

  energy without entropy =     -296.04220875  energy(sigma->0) =     -296.04220875


--------------------------------------------------------------------------------------------------------




--------------------------------------- Iteration      1(  11)  ---------------------------------------


    POTLOK:  cpu time      0.1308: real time      0.1315
    SETDIJ:  cpu time      0.6042: real time      0.6059
     EDDAV:  cpu time     10.0880: real time     10.1340
       DOS:  cpu time      0.0007: real time      0.0007
    CHARGE:  cpu time      0.4161: real time      0.4176
    MIXING:  cpu time      0.0078: real time      0.0078
    --------------------------------------------
      LOOP:  cpu time     11.2476: real time     11.2975

 eigenvalue-minimisations  :  8920
 total energy-change (2. order) :-0.3181095E-01  (-0.3788247E-02)
 number of electron     359.9999991 magnetization       0.2625723
 augmentation part      -66.2284626 magnetization       0.2834496

 Broyden mixing:
  rms(total) = 0.30683E-01    rms(broyden)= 0.30683E-01
  rms(prec ) = 0.31441E-01
  weight for this iteration     100.00

 eigenvalues of (default mixing * dielectric matrix)
  average eigenvalue GAMMA=   1.3803
  2.8586  2.0900  1.1373  0.8700  0.7074  0.6184

 Free energy of the ion-electron system (eV)
  ---------------------------------------------------
  alpha Z        PSCENC =       802.71866528
  Ewald energy   TEWEN  =    -12889.35433574
  -Hartree energ DENC   =     -1183.60438930
  -exchange      EXHF   =         0.00000000
  -V(xc)+E(xc)   XCENC  =      -289.68414830
  PAW double counting   =     17006.58086005   -15994.39288399
  entropy T*S    EENTRO =        -0.00000000
  eigenvalues    EBANDS =      -784.78926605
  atomic energy  EATOM  =     13036.45147835
  Solvation  Ediel_sol  =         0.00000000
  ---------------------------------------------------
  free energy    TOTEN  =      -296.07401970 eV

  energy without entropy =     -296.07401970  energy(sigma->0) =     -296.07401970


--------------------------------------------------------------------------------------------------------




--------------------------------------- Iteration      1(  12)  ---------------------------------------


    POTLOK:  cpu time      0.1311: real time      0.1325
    SETDIJ:  cpu time      0.6026: real time      0.6045
     EDDAV:  cpu time      9.9717: real time     10.0225
       DOS:  cpu time      0.0015: real time      0.0015
    CHARGE:  cpu time      0.4168: real time      0.4184
    MIXING:  cpu time      0.0077: real time      0.0077
    --------------------------------------------
      LOOP:  cpu time     11.1314: real time     11.1870

 eigenvalue-minimisations  :  8680
 total energy-change (2. order) :-0.3721187E-02  (-0.4748806E-03)
 number of electron     359.9999991 magnetization       0.0819444
 augmentation part      -66.2286683 magnetization       0.0889523

 Broyden mixing:
  rms(total) = 0.13463E-01    rms(broyden)= 0.13463E-01
  rms(prec ) = 0.13921E-01
  weight for this iteration     100.00

 eigenvalues of (default mixing * dielectric matrix)
  average eigenvalue GAMMA=   1.3516
  2.9453  2.3006  1.1349  0.9035  0.9035  0.6121  0.6613

 Free energy of the ion-electron system (eV)
  ---------------------------------------------------
  alpha Z        PSCENC =       802.71866528
  Ewald energy   TEWEN  =    -12889.35433574
  -Hartree energ DENC   =     -1183.65829299
  -exchange      EXHF   =         0.00000000
  -V(xc)+E(xc)   XCENC  =      -289.69457277
  PAW double counting   =     16968.84826393   -15956.63608822
  entropy T*S    EENTRO =        -0.00000000
  eigenvalues    EBANDS =      -784.75285873
  atomic energy  EATOM  =     13036.45147835
  Solvation  Ediel_sol  =         0.00000000
  ---------------------------------------------------
  free energy    TOTEN  =      -296.07774089 eV

  energy without entropy =     -296.07774089  energy(sigma->0) =     -296.07774089


--------------------------------------------------------------------------------------------------------




--------------------------------------- Iteration      1(  13)  ---------------------------------------


    POTLOK:  cpu time      0.1298: real time      0.1304
    SETDIJ:  cpu time      0.6039: real time      0.6056
     EDDAV:  cpu time     10.3484: real time     10.4020
       DOS:  cpu time      0.0008: real time      0.0008
    CHARGE:  cpu time      0.4174: real time      0.4192
    MIXING:  cpu time      0.0082: real time      0.0082
    --------------------------------------------
      LOOP:  cpu time     11.5085: real time     11.5662

 eigenvalue-minimisations  :  9200
 total energy-change (2. order) :-0.3352528E-03  (-0.8963413E-04)
 number of electron     359.9999991 magnetization       0.0202608
 augmentation part      -66.2286997 magnetization       0.0214007

 Broyden mixing:
  rms(total) = 0.49817E-02    rms(broyden)= 0.49817E-02
  rms(prec ) = 0.52161E-02
  weight for this iteration     100.00

 eigenvalues of (default mixing * dielectric matrix)
  average eigenvalue GAMMA=   1.3512
  3.0245  2.4392  1.1241  1.1241  0.9630  0.8774  0.6081  0.6492

 Free energy of the ion-electron system (eV)
  ---------------------------------------------------
  alpha Z        PSCENC =       802.71866528
  Ewald energy   TEWEN  =    -12889.35433574
  -Hartree energ DENC   =     -1183.65093816
  -exchange      EXHF   =         0.00000000
  -V(xc)+E(xc)   XCENC  =      -289.70185764
  PAW double counting   =     16951.23942338   -15939.01587860
  entropy T*S    EENTRO =        -0.00000000
  eigenvalues    EBANDS =      -784.76463301
  atomic energy  EATOM  =     13036.45147835
  Solvation  Ediel_sol  =         0.00000000
  ---------------------------------------------------
  free energy    TOTEN  =      -296.07807614 eV

  energy without entropy =     -296.07807614  energy(sigma->0) =     -296.07807614


--------------------------------------------------------------------------------------------------------




--------------------------------------- Iteration      1(  14)  ---------------------------------------


    POTLOK:  cpu time      0.1296: real time      0.1304
    SETDIJ:  cpu time      0.6045: real time      0.6064
     EDDAV:  cpu time      9.7507: real time      9.7952
       DOS:  cpu time      0.0010: real time      0.0010
    CHARGE:  cpu time      0.4146: real time      0.4166
    MIXING:  cpu time      0.0084: real time      0.0085
    --------------------------------------------
      LOOP:  cpu time     10.9088: real time     10.9580

 eigenvalue-minimisations  :  8456
 total energy-change (2. order) :-0.3218126E-04  (-0.1070616E-04)
 number of electron     359.9999991 magnetization       0.0071286
 augmentation part      -66.2283520 magnetization       0.0075793

 Broyden mixing:
  rms(total) = 0.19663E-02    rms(broyden)= 0.19663E-02
  rms(prec ) = 0.20695E-02
  weight for this iteration     100.00

 eigenvalues of (default mixing * dielectric matrix)
  average eigenvalue GAMMA=   1.3213
  3.0556  2.4509  1.3695  1.0947  0.9757  0.9016  0.7902  0.6101  0.6429

 Free energy of the ion-electron system (eV)
  ---------------------------------------------------
  alpha Z        PSCENC =       802.71866528
  Ewald energy   TEWEN  =    -12889.35433574
  -Hartree energ DENC   =     -1183.67501584
  -exchange      EXHF   =         0.00000000
  -V(xc)+E(xc)   XCENC  =      -289.70146009
  PAW double counting   =     16946.07811169   -15933.85161598
  entropy T*S    EENTRO =        -0.00000000
  eigenvalues    EBANDS =      -784.74393600
  atomic energy  EATOM  =     13036.45147835
  Solvation  Ediel_sol  =         0.00000000
  ---------------------------------------------------
  free energy    TOTEN  =      -296.07810832 eV

  energy without entropy =     -296.07810832  energy(sigma->0) =     -296.07810832


--------------------------------------------------------------------------------------------------------




--------------------------------------- Iteration      1(  15)  ---------------------------------------


    POTLOK:  cpu time      0.1329: real time      0.1336
    SETDIJ:  cpu time      0.6042: real time      0.6061
     EDDAV:  cpu time      9.6521: real time      9.6966
       DOS:  cpu time      0.0008: real time      0.0008
    CHARGE:  cpu time      0.4253: real time      0.4271
    MIXING:  cpu time      0.0081: real time      0.0081
    --------------------------------------------
      LOOP:  cpu time     10.8234: real time     10.8723

 eigenvalue-minimisations  :  8392
 total energy-change (2. order) :-0.4867927E-05  (-0.2471250E-05)
 number of electron     359.9999991 magnetization       0.0020953
 augmentation part      -66.2284547 magnetization       0.0023438

 Broyden mixing:
  rms(total) = 0.10307E-02    rms(broyden)= 0.10307E-02
  rms(prec ) = 0.10870E-02
  weight for this iteration     100.00

 eigenvalues of (default mixing * dielectric matrix)
  average eigenvalue GAMMA=   1.3017
  3.0713  2.4386  1.6987  1.1152  0.9533  0.9533  0.8436  0.7037  0.6198  0.6198

 Free energy of the ion-electron system (eV)
  ---------------------------------------------------
  alpha Z        PSCENC =       802.71866528
  Ewald energy   TEWEN  =    -12889.35433574
  -Hartree energ DENC   =     -1183.66539456
  -exchange      EXHF   =         0.00000000
  -V(xc)+E(xc)   XCENC  =      -289.70171569
  PAW double counting   =     16945.58092229   -15933.35366615
  entropy T*S    EENTRO =        -0.00000000
  eigenvalues    EBANDS =      -784.75406697
  atomic energy  EATOM  =     13036.45147835
  Solvation  Ediel_sol  =         0.00000000
  ---------------------------------------------------
  free energy    TOTEN  =      -296.07811319 eV

  energy without entropy =     -296.07811319  energy(sigma->0) =     -296.07811319


--------------------------------------------------------------------------------------------------------




--------------------------------------- Iteration      1(  16)  ---------------------------------------


    POTLOK:  cpu time      0.1298: real time      0.1307
    SETDIJ:  cpu time      0.6059: real time      0.6076
     EDDAV:  cpu time      7.0482: real time      7.0833
       DOS:  cpu time      0.0006: real time      0.0006
    --------------------------------------------
      LOOP:  cpu time      7.7845: real time      7.8221

 eigenvalue-minimisations  :  5312
 total energy-change (2. order) :-0.6423729E-06  (-0.2519151E-06)
 number of electron     359.9999991 magnetization       0.0020953
 augmentation part      -66.2284547 magnetization       0.0023438

 Free energy of the ion-electron system (eV)
  ---------------------------------------------------
  alpha Z        PSCENC =       802.71866528
  Ewald energy   TEWEN  =    -12889.35433574
  -Hartree energ DENC   =     -1183.65970196
  -exchange      EXHF   =         0.00000000
  -V(xc)+E(xc)   XCENC  =      -289.70197721
  PAW double counting   =     16945.40767778   -15933.18007066
  entropy T*S    EENTRO =        -0.00000000
  eigenvalues    EBANDS =      -784.75984968
  atomic energy  EATOM  =     13036.45147835
  Solvation  Ediel_sol  =         0.00000000
  ---------------------------------------------------
  free energy    TOTEN  =      -296.07811383 eV

  energy without entropy =     -296.07811383  energy(sigma->0) =     -296.07811383


--------------------------------------------------------------------------------------------------------




 average (electrostatic) potential at core
  the test charge radii are     1.1631  1.0808
  (the norm of the test charge is              1.0000)
       1 -33.5499       2 -33.4077       3 -33.5302       4 -33.6441       5 -33.5386
       6 -33.2562       7 -33.1878       8 -33.4022       9 -33.3303      10 -33.3594
      11 -33.7389      12 -33.6970      13 -33.2717      14 -33.1545      15 -33.0212
      16 -33.3018      17 -33.5619      18 -33.6475      19 -33.6516      20 -33.5759
      21 -33.2629      22 -33.8532      23 -33.7337      24 -33.4505      25 -33.4479
      26 -33.4376      27 -33.3693      28 -33.5335      29 -33.6345      30 -33.8214
      31 -33.7434      32 -33.6010      33 -33.3216      34 -33.6519      35 -33.5997
      36 -33.4393      37 -54.5334      38 -54.5158      39 -54.2641      40 -54.9946
      41 -54.3951      42 -54.6402      43 -54.5680      44 -54.6840      45 -54.6877
      46 -54.8122      47 -54.7865      48 -55.0685      49 -54.7799      50 -54.6144
      51 -55.2380      52 -54.9224      53 -54.7325      54 -55.0457      55 -54.7522
      56 -54.5963      57 -54.9286      58 -55.0639      59 -54.8472      60 -54.4616
      61 -54.6163      62 -54.5608      63 -54.6260      64 -54.8328      65 -54.9159
      66 -54.8044      67 -54.8952      68 -54.6878      69 -55.0619      70 -54.7578
      71 -54.9574      72 -55.0142
 
 
 
 E-fermi :   3.5574     XC(G=0):  -9.4124     alpha+bet : -8.8854

 Fermi energy:         3.5574428869

 spin component 1

 k-point     1 :       0.0000    0.0000    0.0000
  band No.  band energies     occupation 
      1     -10.9156      1.00000
      2     -10.5824      1.00000
      3     -10.5079      1.00000
      4     -10.3548      1.00000
      5     -10.2521      1.00000
      6     -10.1923      1.00000
      7     -10.1177      1.00000
      8      -9.9777      1.00000
      9      -9.9612      1.00000
     10      -9.9101      1.00000
     11      -9.8936      1.00000
     12      -9.8513      1.00000
     13      -9.7626      1.00000
     14      -9.7258      1.00000
     15      -9.6809      1.00000
     16      -9.6139      1.00000
     17      -9.5344      1.00000
     18      -9.4859      1.00000
     19      -9.4291      1.00000
     20      -9.3959      1.00000
     21      -9.3688      1.00000
     22      -9.2821      1.00000
     23      -9.2341      1.00000
     24      -9.2145      1.00000
     25      -9.1702      1.00000
     26      -9.1153      1.00000
     27      -9.1076      1.00000
     28      -9.0701      1.00000
     29      -9.0035      1.00000
     30      -8.9580      1.00000
     31      -8.9401      1.00000
     32      -8.9205      1.00000
     33      -8.8532      1.00000
     34      -8.8045      1.00000
     35      -8.7582      1.00000
     36      -8.6880      1.00000
     37      -5.8683      1.00000
     38      -5.5685      1.00000
     39      -5.4192      1.00000
     40      -5.3573      1.00000
     41      -5.2197      1.00000
     42      -5.1318      1.00000
     43      -5.1148      1.00000
     44      -5.0428      1.00000
     45      -4.8669      1.00000
     46      -4.7078      1.00000
     47      -4.6738      1.00000
     48      -4.6222      1.00000
     49      -4.5158      1.00000
     50      -4.4583      1.00000
     51      -4.4579      1.00000
     52      -4.4405      1.00000
     53      -4.3964      1.00000
     54      -4.3251      1.00000
     55      -4.2741      1.00000
     56      -4.2357      1.00000
     57      -4.2308      1.00000
     58      -4.1480      1.00000
     59      -4.0850      1.00000
     60      -4.0647      1.00000
     61      -4.0329      1.00000
     62      -3.9818      1.00000
     63      -3.8876      1.00000
     64      -3.8592      1.00000
     65      -3.7674      1.00000
     66      -3.7200      1.00000
     67      -3.6179      1.00000
     68      -3.5401      1.00000
     69      -3.4213      1.00000
     70      -3.2762      1.00000
     71      -2.6681      1.00000
     72      -2.4908      1.00000
     73      -1.7613      1.00000
     74      -1.6203      1.00000
     75      -1.5343      1.00000
     76      -1.5103      1.00000
     77      -1.4236      1.00000
     78      -1.3726      1.00000
     79      -1.3217      1.00000
     80      -1.2038      1.00000
     81      -1.1352      1.00000
     82      -1.0712      1.00000
     83      -1.0607      1.00000
     84      -0.9739      1.00000
     85      -0.9420      1.00000
     86      -0.8267      1.00000
     87      -0.7902      1.00000
     88      -0.7066      1.00000
     89      -0.6942      1.00000
     90      -0.6234      1.00000
     91      -0.5894      1.00000
     92      -0.4645      1.00000
     93      -0.3873      1.00000
     94      -0.3554      1.00000
     95      -0.1678      1.00000
     96      -0.1325      1.00000
     97      -0.0865      1.00000
     98      -0.0556      1.00000
     99      -0.0331      1.00000
    100       0.0838      1.00000
    101       0.1085      1.00000
    102       0.1703      1.00000
    103       0.2003      1.00000
    104       0.2661      1.00000
    105       0.2770      1.00000
    106       0.3298      1.00000
    107       0.3751      1.00000
    108       0.4004      1.00000
    109       0.4362      1.00000
    110       0.4726      1.00000
    111       0.4926      1.00000
    112       0.5180      1.00000
    113       0.5605      1.00000
    114       0.6215      1.00000
    115       0.6843      1.00000
    116       0.6999      1.00000
    117       0.7324      1.00000
    118       0.8008      1.00000
    119       0.8208      1.00000
    120       0.9004      1.00000
    121       0.9398      1.00000
    122       0.9552      1.00000
    123       0.9849      1.00000
    124       1.0191      1.00000
    125       1.0322      1.00000
    126       1.0845      1.00000
    127       1.1459      1.00000
    128       1.1702      1.00000
    129       1.2280      1.00000
    130       1.2651      1.00000
    131       1.3434      1.00000
    132       1.3468      1.00000
    133       1.3737      1.00000
    134       1.4021      1.00000
    135       1.4403      1.00000
    136       1.4958      1.00000
    137       1.5121      1.00000
    138       1.5647      1.00000
    139       1.5836      1.00000
    140       1.6071      1.00000
    141       1.6739      1.00000
    142       1.6975      1.00000
    143       1.7072      1.00000
    144       1.7412      1.00000
    145       1.7984      1.00000
    146       1.8451      1.00000
    147       1.8644      1.00000
    148       1.9012      1.00000
    149       1.9408      1.00000
    150       1.9743      1.00000
    151       2.0436      1.00000
    152       2.0952      1.00000
[...]
   0.717E+01 -.782E+01 -.924E+01   -.749E+01 0.960E+01 0.112E+02   -.483E+00 -.185E+01 -.291E+01   0.444E-03 -.148E-03 -.211E-03
   -.699E+01 -.717E+01 0.233E+02   0.793E+01 0.608E+01 -.259E+02   -.885E+00 0.157E+01 0.258E+01   -.368E-04 0.215E-03 0.539E-04
   0.355E+02 -.400E+01 0.121E+02   -.369E+02 0.402E+01 -.136E+02   0.137E+01 -.765E+00 0.223E+01   -.182E-03 0.430E-03 0.128E-03
   -.210E+02 0.297E+02 0.175E+02   0.206E+02 -.310E+02 -.188E+02   0.129E+00 0.120E+01 0.167E+01   -.104E-04 0.326E-03 -.101E-03
   0.194E+02 0.126E+02 0.121E+02   -.210E+02 -.131E+02 -.119E+02   0.644E+00 -.618E+00 -.374E+00   0.742E-03 -.807E-04 -.285E-03
   -.151E+02 0.284E+01 0.469E+01   0.157E+02 -.328E+01 -.560E+01   -.109E+00 0.121E+00 0.124E+01   0.615E-03 0.213E-03 0.173E-03
   0.355E+02 -.196E+02 0.237E+02   -.370E+02 0.211E+02 -.247E+02   0.485E+00 -.202E+00 0.144E+01   0.529E-03 -.672E-03 -.922E-04
   0.132E+02 0.238E+02 0.166E+02   -.136E+02 -.254E+02 -.179E+02   -.160E+00 0.129E+01 0.159E+01   -.503E-03 0.371E-03 -.168E-04
   0.720E+01 0.349E+02 0.208E+02   -.690E+01 -.365E+02 -.219E+02   -.203E+00 0.163E+01 0.183E+01   0.148E-03 -.562E-03 -.190E-03
   -.880E+01 -.280E+02 -.347E+02   0.887E+01 0.297E+02 0.360E+02   -.459E+00 -.174E+01 -.138E+01   0.101E-03 0.454E-04 0.634E-03
   0.191E+02 0.163E+02 -.180E+02   -.198E+02 -.174E+02 0.193E+02   0.738E+00 0.156E+01 -.180E+01   -.951E-04 0.270E-03 0.231E-03
   -.630E+01 -.142E+02 -.143E+02   0.672E+01 0.153E+02 0.155E+02   0.284E+00 -.119E+01 -.235E+01   -.132E-03 -.200E-03 0.366E-03
   -.272E+02 -.129E+02 -.325E+02   0.280E+02 0.144E+02 0.342E+02   0.676E-01 -.164E+01 -.141E+01   0.222E-03 -.695E-04 -.186E-03
   -.496E+01 -.168E+02 -.599E+01   0.482E+01 0.181E+02 0.513E+01   -.485E-01 -.739E+00 0.123E+01   -.190E-03 0.640E-04 0.325E-03
   0.139E+02 0.266E+01 -.521E+02   -.151E+02 -.264E+01 0.535E+02   0.138E+01 -.334E+00 -.115E+01   -.210E-04 -.187E-03 0.475E-03
   0.267E+01 0.873E+01 -.388E+02   -.236E+01 -.884E+01 0.398E+02   -.830E+00 0.381E-01 -.319E+00   -.403E-03 0.102E-03 0.293E-03
   0.130E+01 -.128E+01 -.321E+01   -.168E+01 0.275E+00 0.235E+01   0.174E+00 0.630E+00 0.166E+01   -.694E-04 0.103E-03 0.142E-03
   -.411E+01 -.335E+02 0.130E+02   0.418E+01 0.347E+02 -.145E+02   -.617E-01 0.184E+00 0.226E+01   0.145E-03 -.111E-03 -.243E-03
   -.721E+01 -.294E+02 0.225E+02   0.675E+01 0.306E+02 -.236E+02   0.101E+01 -.142E+01 0.111E+01   0.319E-03 0.148E-03 -.509E-05
   0.214E+02 -.124E+02 0.178E+02   -.217E+02 0.140E+02 -.194E+02   -.125E+00 -.158E+01 0.211E+01   -.102E-03 0.677E-05 -.481E-03
   0.157E+01 0.818E+01 0.204E+02   -.119E+01 -.817E+01 -.218E+02   0.183E+00 0.260E+00 0.568E+00   0.471E-03 0.270E-03 0.107E-03
   -.183E+02 0.220E+02 -.388E+02   0.196E+02 -.223E+02 0.404E+02   -.165E+01 0.156E+00 -.143E+01   0.288E-03 -.418E-03 0.625E-04
   -.486E+01 0.339E+02 -.157E+02   0.518E+01 -.354E+02 0.177E+02   0.175E+00 0.996E+00 -.181E+01   0.163E-03 0.431E-03 -.780E-05
   0.115E+01 0.771E+01 -.150E+02   -.266E+01 -.838E+01 0.163E+02   0.116E+01 -.707E+00 -.344E+00   0.318E-03 -.714E-03 0.554E-03
   -.322E+01 -.105E+02 -.130E+02   0.356E+01 0.988E+01 0.142E+02   -.164E+00 0.963E+00 -.143E+01   0.125E-04 0.315E-03 0.169E-03
   0.159E+02 -.182E+02 0.419E+02   -.167E+02 0.189E+02 -.425E+02   0.139E+01 -.103E+01 -.578E-01   0.554E-04 -.311E-03 0.243E-03
   0.199E+02 0.154E+02 0.115E+02   -.210E+02 -.163E+02 -.109E+02   0.725E+00 0.542E+00 -.120E+01   -.116E-03 0.433E-04 -.422E-03
   -.527E+01 -.230E+01 -.771E+01   0.545E+01 0.167E+01 0.848E+01   -.215E+00 0.196E+01 -.112E+01   0.145E-03 0.118E-03 -.260E-03
   -.990E+01 0.196E+02 -.513E+01   0.997E+01 -.205E+02 0.647E+01   -.977E-01 0.110E+01 -.116E+01   -.220E-03 -.563E-05 -.796E-03
   -.622E+01 0.122E+02 0.260E+00   0.687E+01 -.129E+02 0.105E+01   -.359E+00 0.863E+00 -.191E+01   -.261E-03 -.361E-03 -.796E-04
   0.212E+02 -.155E+02 -.643E+01   -.226E+02 0.153E+02 0.752E+01   0.870E+00 0.321E+00 -.196E+01   -.735E-04 0.583E-03 -.326E-03
   0.251E+02 -.140E+02 0.139E+02   -.266E+02 0.143E+02 -.150E+02   0.308E+00 0.909E+00 0.431E+00   -.673E-03 0.271E-03 -.462E-03
   0.844E+01 0.608E+01 0.271E+02   -.804E+01 -.651E+01 -.287E+02   -.681E+00 0.907E-01 0.193E+00   -.234E-03 -.443E-03 -.235E-03
   -.754E+01 -.621E+01 0.774E+01   0.702E+01 0.738E+01 -.902E+01   0.242E+00 -.942E+00 0.177E+01   -.150E-03 0.431E-03 -.451E-03
   0.156E+02 -.216E+01 0.754E+01   -.163E+02 0.237E+01 -.835E+01   0.468E+00 -.262E+00 0.123E+01   -.673E-04 -.511E-03 -.324E-03
   -.320E+01 -.213E+02 0.222E+02   0.309E+01 0.227E+02 -.232E+02   -.733E-02 -.161E+01 0.163E+01   -.129E-03 0.127E-03 -.428E-03
   -.186E+02 0.372E+01 0.277E+02   0.187E+02 -.308E+01 -.296E+02   -.459E-01 -.114E+01 0.161E+01   0.643E-03 -.484E-03 0.285E-03
   0.266E+02 -.641E+01 -.334E+02   -.282E+02 0.628E+01 0.349E+02   0.737E+00 0.302E+00 -.148E+01   0.197E-03 0.131E-03 0.351E-03
 -----------------------------------------------------------------------------------------------
   0.825E+01 -.263E+01 0.501E+00   -.178E-13 -.462E-13 -.853E-13   -.826E+01 0.263E+01 -.499E+00   0.108E-02 -.590E-03 -.116E-02
 
 
 POSITION                                       TOTAL-FORCE (eV/Angst)
 -----------------------------------------------------------------------------------
      1.15358      0.31406      1.43225        -0.209004     -0.037896      0.297954
      3.28145     10.69487      4.21576        -0.041955     -0.342078      0.600229
      7.14679      2.59788      4.21086         0.174262      0.552596     -0.585376
      7.00690      6.53230      4.14949        -0.069690     -0.149088     -0.116541
      7.03705     10.95786      4.17179         0.448545     -0.297275     -0.649280
     11.63422      2.35764      4.10057        -0.447968     -0.542621      0.868013
     11.14666      6.82266      3.87134         0.529398     -0.634704      0.279203
     10.82494     10.55739      4.17480         0.435871      0.285757     -0.320786
      1.02465      1.90101      7.05726        -0.391574      0.219244     -0.421450
      0.82673      6.33938      6.78457         0.130475     -0.702657     -0.739708
      0.78404     10.45749      6.87657        -0.125035     -0.002901      0.006108
      4.81308      1.49846      6.24090         0.309902      0.393132     -0.289257
      4.51154      6.14481      6.85974         0.537514      0.470272      0.421382
      4.97601     10.16039      6.89875         0.788141      0.175831      0.317351
      8.72939      2.33636      6.98359         1.062517     -0.982653     -0.298762
      9.42456      6.22904      7.01118        -0.504301     -0.689868      0.173399
      2.86242      6.59471      3.98560         0.016992      0.618246      0.203785
      2.86208      2.32299      3.97873        -0.578003      0.208741      0.042947
      8.82414     10.42475      6.76484        -0.003647      0.010393      0.578604
     11.02868      8.32239      9.25067        -0.104139     -0.105981     -0.112450
     11.10894     12.04268      9.40326         0.635218      0.774516     -0.018060
      0.36458      4.33552      1.41140        -0.079444      0.361528      0.643054
      0.70280      8.88826      1.16945        -0.556041      0.538663      0.858658
      4.86829      0.55423      1.01166         0.582273      0.267279      0.007111
      5.17088      4.49431      1.35519         0.431061     -0.277668      0.052931
      9.15878      0.52402      1.23926        -0.125837     -0.176476      0.293011
      8.93399      4.94545      1.43041         0.520476     -0.625711     -0.071451
      5.07093      8.86313      1.07633         0.276048      0.324059      0.267048
      2.33994      4.41552      9.84468         0.231104      0.024990     -0.827408
      2.60507      7.97608     10.53923         0.967489      0.227428     -0.136457
      2.98513     12.24330      9.55801         0.390656     -0.620843     -0.287903
      7.19284      4.12748      9.90185        -0.174937     -0.502863     -0.674607
      6.95661      7.85751      9.67372         0.293435      0.680801     -0.434238
      6.97541      0.10491      9.60159        -0.661512      0.062091     -0.226393
     11.35389      3.99286      9.84690        -0.806403     -0.065283     -0.972348
      8.94721      8.67585      1.32070         0.048294      0.490033     -0.088801
     11.54305      0.23068      6.81608         0.000611     -0.737304      0.733167
      2.88187      4.34632      7.24419        -0.263007     -0.163921      0.425942
      3.25030      8.53577      6.97767        -0.984765     -1.039154     -0.149501
      6.93792      0.24107      7.03460         0.515351     -0.318022      0.327249
      7.21293      4.08495      7.25917        -0.998270      1.268070      0.458378
      7.24078      8.55229      6.96295        -0.605015     -0.267502      0.302195
     11.35569      4.45507      7.13700         0.093680      0.030606      0.669874
      9.20663      0.04653      3.83435        -0.389102     -0.041151     -0.023075
      1.00929      0.23669      4.00229         0.090125      0.418595     -0.423296
      0.82796      4.24678      4.27898         0.708624     -0.057889     -1.149999
      0.73277      8.38582      3.60074         0.830222     -0.107193      0.293966
      5.10086      0.07537      3.88625        -0.186310      0.560167      0.373137
      5.20101      4.41405      3.90015         0.275676     -0.311655      0.272255
      4.96657      8.49484      3.55982        -0.514745     -0.079736      0.702478
      2.90982      0.01311      6.92774        -0.205067     -0.373485      0.799349
     11.26303      8.02160      6.60797         0.009386      1.405465      0.789383
     11.15867     10.55696      1.52980         0.552127     -0.214341     -0.038364
      3.08367      2.29761      1.42000        -0.435248     -0.011087      0.518363
     11.08261      2.27529      1.71668         0.571679      0.267834     -0.800753
      9.03721      4.57281      3.94157        -0.260921     -0.185669      0.210965
      0.75180      2.34831      9.53481         0.490510     -0.495865      0.219137
      0.94255      6.84862      9.19306        -0.357747     -1.371352      0.939175
      0.87858     10.38748      9.44900         0.173141      0.349729     -0.256613
      5.09052      2.10377      9.86398         0.531620     -0.381129     -0.694992
      5.10395      6.25532      9.51619        -0.345296     -0.367111     -0.613522
      4.90512     10.26304      9.50383        -0.038428      1.332913     -0.353097
      9.32463      2.18688      9.50534        -0.030703      0.230726      0.186344
      9.14307      6.36659      9.62475         0.287612      0.138483     -0.601598
      9.33031     10.31962      9.41715        -0.499455      0.129732     -0.872084
      3.08975      5.75688      1.64159        -1.194693      1.179588     -0.665972
      2.90140     10.73019      1.79914        -0.278897     -0.339509     -1.411132
      7.17502      2.08802      1.60956        -0.279976      0.227579      0.492508
      7.05739      6.64399      1.48862        -0.228869     -0.052394      0.417039
      7.10017     10.57406      1.44195        -0.112779     -0.215702      0.600567
     11.23390      6.48569      1.38572         0.006953     -0.506368     -0.336481
      9.29438      8.48436      3.83497        -0.858206      0.169023      0.019500
 -----------------------------------------------------------------------------------
    total drift:                               -0.000228      0.000547      0.000191


--------------------------------------------------------------------------------------------------------



  FREE ENERGIE OF THE ION-ELECTRON SYSTEM (eV)
  ---------------------------------------------------
  free  energy   TOTEN  =      -296.07811383 eV

  energy  without entropy=     -296.07811383  energy(sigma->0) =     -296.07811383
 


--------------------------------------------------------------------------------------------------------


    POTLOK:  cpu time      0.7356: real time      0.7382


--------------------------------------------------------------------------------------------------------


     LOOP+:  cpu time    180.4871: real time    181.4075
    4ORBIT:  cpu time      0.0000: real time      0.0000



 total charge

# of ion       s       p       d       tot
------------------------------------------
    1        1.337   0.716   0.050   2.103
    2        1.329   0.770   0.062   2.161
    3        1.310   0.750   0.048   2.108
    4        1.353   0.671   0.051   2.074
    5        1.315   0.761   0.054   2.130
    6        1.326   0.788   0.062   2.175
    7        1.304   0.847   0.074   2.226
    8        1.324   0.764   0.058   2.146
    9        1.320   0.790   0.060   2.170
   10        1.328   0.768   0.068   2.164
   11        1.345   0.680   0.045   2.070
   12        1.327   0.755   0.056   2.138
   13        1.311   0.778   0.053   2.141
   14        1.294   0.838   0.068   2.200
   15        1.302   0.847   0.069   2.219
   16        1.330   0.753   0.059   2.142
   17        1.326   0.727   0.049   2.102
   18        1.314   0.744   0.049   2.107
   19        1.310   0.763   0.051   2.124
   20        1.337   0.739   0.058   2.134
   21        1.328   0.764   0.052   2.144
   22        1.324   0.714   0.048   2.086
   23        1.259   0.846   0.063   2.168
   24        1.334   0.748   0.062   2.144
   25        1.324   0.784   0.068   2.175
   26        1.323   0.756   0.060   2.139
   27        1.316   0.791   0.060   2.167
   28        1.317   0.758   0.061   2.136
   29        1.337   0.720   0.048   2.104
   30        1.325   0.752   0.058   2.135
   31        1.323   0.717   0.044   2.085
   32        1.333   0.683   0.050   2.066
   33        1.310   0.793   0.061   2.163
   34        1.335   0.700   0.044   2.079
   35        1.302   0.771   0.056   2.129
   36        1.328   0.758   0.059   2.145
   37        1.484   2.265   0.027   3.775
   38        1.478   2.301   0.029   3.809
   39        1.474   2.320   0.029   3.822
   40        1.477   2.291   0.034   3.802
   41        1.476   2.331   0.032   3.839
   42        1.477   2.288   0.028   3.792
   43        1.479   2.268   0.026   3.772
   44        1.478   2.294   0.030   3.802
   45        1.481   2.271   0.029   3.781
   46        1.486   2.250   0.029   3.765
   47        1.478   2.299   0.032   3.808
   48        1.477   2.306   0.036   3.819
   49        1.478   2.290   0.030   3.798
   50        1.477   2.288   0.028   3.793
   51        1.477   2.301   0.040   3.817
   52        1.483   2.289   0.037   3.810
   53        1.481   2.262   0.026   3.768
   54        1.486   2.287   0.038   3.811
   55        1.474   2.319   0.033   3.826
   56        1.479   2.279   0.027   3.786
   57        1.477   2.321   0.037   3.834
   58        1.473   2.343   0.042   3.858
   59        1.478   2.279   0.029   3.786
   60        1.483   2.254   0.024   3.761
   61        1.477   2.291   0.028   3.797
   62        1.484   2.253   0.026   3.763
   63        1.477   2.274   0.026   3.776
   64        1.480   2.285   0.034   3.799
   65        1.483   2.295   0.035   3.813
   66        1.475   2.324   0.035   3.834
   67        1.476   2.305   0.033   3.814
   68        1.479   2.286   0.029   3.794
   69        1.478   2.308   0.040   3.827
   70        1.480   2.266   0.027   3.773
   71        1.480   2.287   0.034   3.801
   72        1.475   2.334   0.041   3.849
--------------------------------------------------
tot        100.795 109.806   3.176 213.777



 magnetization (x)

# of ion       s       p       d       tot
------------------------------------------
    1       -0.000   0.000   0.000   0.000
    2       -0.000   0.000   0.000   0.000
    3       -0.000   0.000  -0.000   0.000
    4       -0.000   0.000  -0.000  -0.000
    5       -0.000   0.000   0.000   0.000
    6       -0.000   0.000  -0.000   0.000
    7       -0.000   0.000  -0.000   0.000
    8       -0.000   0.000   0.000   0.000
    9       -0.000   0.000   0.000   0.000
   10       -0.000   0.000   0.000   0.000
   11       -0.000   0.000   0.000   0.000
   12       -0.000   0.000   0.000   0.000
   13       -0.000   0.000   0.000  -0.000
   14       -0.000   0.000   0.000   0.000
   15       -0.000   0.000  -0.000  -0.000
   16       -0.000   0.000  -0.000   0.000
   17       -0.000   0.000   0.000   0.000
   18       -0.000   0.000   0.000   0.000
   19       -0.000   0.000  -0.000   0.000
   20       -0.000   0.000   0.000   0.000
   21       -0.000   0.000   0.000   0.000
   22       -0.000   0.000   0.000   0.000
   23       -0.000   0.000   0.000   0.000
   24       -0.000   0.000   0.000   0.000
   25       -0.000   0.000  -0.000   0.000
   26       -0.000   0.000  -0.000   0.000
   27       -0.000   0.000  -0.000  -0.000
   28       -0.000   0.000   0.000   0.000
   29       -0.000   0.000   0.000   0.000
   30       -0.000   0.000   0.000   0.000
   31       -0.000   0.000   0.000   0.000
   32       -0.000   0.000   0.000   0.000
   33       -0.000   0.000   0.000   0.000
   34       -0.000   0.000   0.000   0.000
   35       -0.000   0.000   0.000   0.000
   36       -0.000   0.000  -0.000   0.000
   37       -0.000  -0.000   0.000  -0.000
   38       -0.000  -0.000   0.000  -0.000
   39       -0.000  -0.000   0.000  -0.000
   40       -0.000  -0.000   0.000  -0.000
   41       -0.000  -0.000  -0.000  -0.000
   42       -0.000  -0.000   0.000  -0.000
   43       -0.000  -0.000   0.000  -0.000
   44       -0.000  -0.000   0.000  -0.000
   45       -0.000  -0.000   0.000  -0.000
   46       -0.000  -0.000   0.000  -0.000
   47       -0.000  -0.000   0.000  -0.000
   48       -0.000  -0.000   0.000  -0.000
   49       -0.000  -0.000  -0.000  -0.000
   50       -0.000  -0.000   0.000  -0.000
   51       -0.000  -0.000   0.000  -0.000
   52       -0.000  -0.000   0.000  -0.000
   53       -0.000  -0.000   0.000  -0.000
   54       -0.000  -0.000   0.000  -0.000
   55       -0.000  -0.000   0.000  -0.000
   56       -0.000  -0.000  -0.000  -0.000
   57       -0.000  -0.000   0.000  -0.000
   58       -0.000  -0.000   0.000  -0.000
   59       -0.000  -0.000   0.000  -0.000
   60       -0.000  -0.000   0.000  -0.000
   61       -0.000  -0.000   0.000  -0.000
   62       -0.000  -0.000   0.000  -0.000
   63       -0.000  -0.000   0.000  -0.000
   64       -0.000  -0.000   0.000  -0.000
   65       -0.000  -0.000   0.000  -0.000
   66       -0.000  -0.000   0.000  -0.000
   67       -0.000  -0.000   0.000  -0.000
   68       -0.000  -0.000   0.000  -0.000
   69       -0.000  -0.000  -0.000  -0.000
   70       -0.000  -0.000   0.000  -0.000
   71       -0.000  -0.000   0.000  -0.000
   72       -0.000  -0.000   0.000  -0.000
--------------------------------------------------
tot         -0.000  -0.000   0.000  -0.000
 

 total amount of memory used by VASP MPI-rank0   110522. kBytes
=======================================================================

   base      :      30000. kBytes
   nonl-proj :      16287. kBytes
   fftplans  :       6177. kBytes
   grid      :      15593. kBytes
   one-center:        146. kBytes
   wavefun   :      42319. kBytes
 
  
  
 General timing and accounting informations for this job:
 ========================================================
  
                  Total CPU time used (sec):      192.006
                            User time (sec):      186.227
                          System time (sec):        5.779
                         Elapsed time (sec):      194.561
  
                   Maximum memory used (kb):      315016.
                   Average memory used (kb):          N/A
  
                          Minor page faults:       104613
                          Major page faults:           65
                 Voluntary context switches:         4924
