72
Lattice="12.416081961208135 5.9546546126e-06 -2.4893416444e-06 5.9992609556e-06 12.50908208824587 -2.5173259736e-06 -2.8542391771e-06 -2.864864845e-06 11.059119947430498" Properties=species:S:1:pos:R:3:forces:R:3:magmoms:R:1 energy=-300.36380955 stress="0.003809610264411618 0.0021377195719469587 0.0006628298317508442 0.0021377195719469587 -0.002864077586969618 -0.00046401812406224324 0.0006628298317508442 -0.00046401812406224324 -0.012275353737329981" dipole="_JSON [[0.0, 0.0, 0.0]]" magmom=0.0017199 free_energy=-300.36380955 pbc="T T T"
Ge       0.83504302       0.50289792       1.34425124      -0.02810512       0.37645077       0.19127606       0.00000000
Ge       2.92123399      10.90469764       4.07940477      -0.44057737       0.00189434      -0.06000602       0.00000000
Ge       7.09465150       2.47257503       4.19562056      -0.10933017       0.58433678      -0.41696934       0.00000000
Ge       7.04658792       6.85627883       4.29322976       0.35591964      -0.23778498      -0.72801639       0.00000000
Ge       6.77556156      10.60111677       4.06003214       0.09490129       0.35899379       1.03838316      -0.00000000
Ge      11.11048161       2.60793072       4.24038484      -0.24177588       0.15588158      -0.53226687       0.00000000
Ge      11.12609087       6.82181412       3.95705490       0.43959721      -0.45333248       0.29148382       0.00000000
Ge      11.23716086      11.08163037       4.22456898      -0.17960215       0.12338451      -0.55871527      -0.00000000
Ge       1.28783190       1.95997776       6.85460461      -0.27037334       0.16414155       0.36591112       0.00000000
Ge       0.97503423       5.90335222       6.84965242      -0.47699504       0.25657100       0.08952990       0.00000000
Ge       0.99871082      10.22735894       6.79713994      -0.35828969      -0.19026450       0.07540022       0.00000000
Ge       5.18659905       2.01666610       6.86031436      -0.00947740      -0.63738820      -0.09221439       0.00000000
Ge       5.13010254       6.27699073       6.89599739       0.13108287       0.19198226      -0.21653861       0.00000000
Ge       4.94069339      10.12021780       7.05829541       0.13364940       0.17637014       0.46663210       0.00000000
Ge       8.92962066       1.89722314       7.02071479       0.17585588      -0.53569954      -0.32675246       0.00000000
Ge       9.22514472       5.97231440       6.73969744       0.21990990       0.05537437      -0.14960846      -0.00000000
Ge       2.64722344       6.53641629       4.13756897       0.22788442      -0.04543375      -0.32541008       0.00000000
Ge       2.95553515       2.36879605       4.09932625       0.21461241       0.64654695       0.24238565       0.00000000
Ge       9.49718738      10.47935013       6.92807980      -0.15937901       0.02805918       0.24084361      -0.00000000
Ge      11.36128108       8.07719260       9.69111615      -0.55165472       0.42543970      -0.33263445      -0.00000000
Ge      11.30434434      12.44430538       9.54485498       0.19446956      -0.07633341       0.30216798       0.00000000
Ge       0.80045175       4.71318827       1.65203124      -0.16791085      -0.13803240      -0.50924880       0.00000000
Ge       0.91199807       8.81727993       1.34946253      -0.43176283       0.10653139      -0.50340293       0.00000000
Ge       5.07190767       0.63765567       1.45166306      -0.27855046      -0.20851863      -0.10804389       0.00000000
Ge       4.89635144       4.71464070       1.37809931       0.77768649      -0.45369231       0.43828483       0.00000000
Ge       9.19127972       0.67125427       1.44732332       0.72468535      -0.73874851       0.04116224      -0.00000000
Ge       9.07053348       4.51561421       1.43400972       0.00273600       0.34916612       0.18977236       0.00000000
Ge       4.85296530       8.70474045       1.49138094       0.06316627       0.19224235      -0.21374138       0.00000000
Ge       3.35403916       4.30838579       9.69623165       0.19319297      -0.23679132       0.03055504       0.00000000
Ge       2.78394681       8.04032839       9.66932547       0.08327231      -0.01543666       0.89703677       0.00000000
Ge       2.87951412      12.14338645       9.68195827       0.01362384       0.20881777      -0.32247866       0.00000000
Ge       7.25580099       3.99114434       9.49400357       0.09182874       0.17072476      -0.28257398       0.00000000
Ge       7.52469946       8.22388183       9.73809562       0.08954047       0.24624382       0.22401258       0.00000000
Ge       6.93492421      12.44851068       9.63936266       0.30500997      -0.57184256      -0.25726832       0.00000000
Ge      11.43152882       3.81710681       9.55570582      -0.24932974      -0.05905684       0.59988789       0.00000000
Ge       9.24522176       8.90730686       1.43956569      -0.17729495       0.19180398      -0.13573448      -0.00000000
Se      11.07097633       0.23138354       7.08780207      -0.14401070      -0.22193667      -0.47075816      -0.00000000
Se       2.90137639       4.29061047       7.19010400       0.19070310      -0.37100654      -0.11766484      -0.00000000
Se       2.85982701       8.47506235       7.29932190       0.09847350       0.03758249      -1.26229927      -0.00000000
Se       7.00440407      -0.02803100       7.06690434      -0.02966862       0.70597329       0.16247024      -0.00000000
Se       6.96543924       4.41439081       6.80587027       0.46863847      -0.09566952       0.85283164      -0.00000000
Se       6.90331826       8.48784898       7.32481543      -0.03631738      -0.31370761      -0.75993166      -0.00000000
Se      11.26729816       4.26350592       7.12581576      -0.12336145       0.08905659      -0.85529622      -0.00000000
Se       9.46307227       0.58046051       3.99694544      -0.03569187      -0.74299060       0.01169104      -0.00000000
Se       0.86581023       0.12568658       3.91307308       0.29360273       0.12422798      -0.05686383      -0.00000000
Se       1.01843098       4.46008561       4.11437724       0.07314030      -0.22893936       0.04451251      -0.00000000
Se       0.91255695       8.37629888       3.77652708      -0.22601552       0.16676011       0.82813544      -0.00000000
Se       4.84002567       0.10785311       3.93860163       0.42215020       0.08214445      -0.03542527      -0.00000000
Se       5.12280701       4.26425807       3.97461691      -0.39463913      -0.31472384      -0.45098694      -0.00000000
Se       5.12105565       8.59498843       4.03808691      -0.31705342      -0.21114695       0.06115336      -0.00000000
Se       3.04800901       0.17170257       7.02067239       0.23144651      -0.01704800       0.51191545      -0.00000000
Se      11.24572998       8.57874477       7.11151054       0.40332625       0.01766676      -0.06569733      -0.00000000
Se      11.28325316      10.57459314       1.55208071       0.09137410      -0.04324352       0.45488282      -0.00000000
Se       2.87751849       2.32111399       1.64105072       0.24329340      -0.37620549      -0.48077327      -0.00000000
Se      11.38396297       2.42979915       1.48738075       0.10530039      -0.13331917       0.45975724      -0.00000000
Se       8.97624213       4.34708930       3.99469001       0.60023881      -0.46764126      -0.15717631      -0.00000000
Se       0.80294806       1.98915993       9.42857609       0.04120602       0.24417771      -0.23773664      -0.00000000
Se       0.75052917       6.37603975       9.39319845       0.57493076      -0.52421086       0.08848817      -0.00000000
Se       0.77221141      10.56728472       9.29394020       0.21923428       0.22722363       0.25644699      -0.00000000
Se       5.32420066       2.30483763       9.34223514      -0.75928943       0.21198625       0.44768323      -0.00000000
Se       4.92319990       6.43358164       9.38482582      -0.18936128      -0.29046544       0.46445762      -0.00000000
Se       4.97048814      10.61257358       9.64507731      -0.08879448      -0.08946551      -0.40800459      -0.00000000
Se       9.13777825       2.14639254       9.47155977      -0.05900332       0.38862387       0.33937493      -0.00000000
Se       9.27467082       6.40279100       9.20237813      -0.03096346       0.10230369       0.61159102      -0.00000000
Se       9.11357618      10.48654590       9.48073885      -0.31968316       0.24829783      -0.06034040      -0.00000000
Se       3.13100980       6.45246338       1.46678766      -0.44451324       0.42401884       0.59245991      -0.00000000
Se       2.83415597      10.51562801       1.53210295       0.53700838       0.05904826       0.10740176      -0.00000000
Se       7.26101956       2.18517960       1.54473152      -0.85033373       0.66633827       0.34949114      -0.00000000
Se       7.11370407       6.20186456       1.60112900      -0.22482511       0.52555879       0.31715114      -0.00000000
Se       7.09105255      10.64217774       1.71889250       0.37693470      -0.04851966      -1.32899410      -0.00000000
Se      11.27404218       6.52495431       1.47761315      -0.34568644      -0.62628544      -0.09231135      -0.00000000
Se       9.28157368       8.49048773       3.92400388      -0.75400641       0.38293562       0.22526399      -0.00000000
