72
Lattice="12.41746820625691 5.9553194448e-06 -2.4896195773e-06 5.9969854248e-06 12.504337370154612 -2.5163711471e-06 -2.853027719e-06 -2.863648877e-06 11.054425996037141" Properties=species:S:1:pos:R:3:forces:R:3:magmoms:R:1 energy=-300.50251928 stress="-0.00022389003518281776 0.002216862587987653 0.0004626233964329734 0.002216862587987653 -0.008227190822081929 0.00027959876219908953 0.0004626233964329734 0.00027959876219908953 -0.006597874792806364" dipole="_JSON [[0.0, 0.0, 0.0]]" magmom=0.0018695 free_energy=-300.50251928 pbc="T T T"
Ge       0.90404905       0.71235887       1.53124191      -0.17511805      -0.23052247      -0.41204771       0.00000000
Ge       2.72566590      10.66121836       4.18625589       0.33279796       0.17405876      -0.38650492      -0.00000000
Ge       6.97840080       2.59001027       3.96170478       0.18905798      -0.33963582       0.75277742      -0.00000000
Ge       7.38532471       7.02554037       4.16537359      -0.61015058      -0.14698280      -0.03550993      -0.00000000
Ge       6.64358329      10.92814790       4.13189483       1.01031840      -1.05897341      -0.15858353      -0.00000000
Ge      11.01165978       2.62574844       4.13184790       0.53557863      -0.73848973       0.29036063       0.00000000
Ge      11.13250019       6.68945434       4.04446097      -0.04113059       0.49381728       0.34544827       0.00000000
Ge      11.33911009      11.05769309       3.99844844       0.15043960      -0.39315207       0.58144210       0.00000000
Ge       1.14891602       2.03615168       7.05433181      -0.03970442       0.49057283      -0.57661675       0.00000000
Ge       0.83696458       5.83941168       6.91155554       0.27543002      -0.10306949       0.22896424       0.00000000
Ge       0.87339611      10.08798775       6.73357627       0.11598076       0.04372802       0.20754705       0.00000000
Ge       5.04636812       1.78589728       6.88279868       0.36990108       0.63899437       0.00315804      -0.00000000
Ge       5.26279696       6.31207949       6.87896879       0.30492318      -0.21588533      -0.01358735      -0.00000000
Ge       4.91041114      10.18772986       7.06676917       0.12471035      -0.28851574      -0.26223236      -0.00000000
Ge       9.08310919       1.73010915       6.86859755      -0.02454206       0.50770410       0.27230541      -0.00000000
Ge       9.33779389       6.02798776       6.70497072      -0.04966385      -0.32715362       0.44626884      -0.00000000
Ge       2.82018677       6.37149968       4.22772854      -0.26759760       0.34100141      -0.54006534      -0.00000000
Ge       2.78466737       2.69343680       3.98594410       0.23083552      -0.42872683       0.00922585       0.00000000
Ge       9.46265120      10.54943778       6.84889942      -0.03642989      -0.26927564      -0.09431582       0.00000000
Ge      11.11617654       8.10771051       9.60041370       0.82996241       0.18075287       0.05326249       0.00000000
Ge      11.66740516      12.58079951       9.62575433      -0.33319343       0.25824008       0.25338247       0.00000000
Ge       0.86791838       4.88179289       1.11290999      -0.02217920       0.00463850       0.46522129       0.00000000
Ge       0.73634152       8.95209821       1.29919106       0.56832883      -0.43543045       0.27044202       0.00000000
Ge       4.87442416       0.38475410       1.44436914       0.14697820       0.07407172       0.18178588       0.00000000
Ge       5.34007129       4.52694136       1.58949865      -0.44038586       0.43641173       0.25051558      -0.00000000
Ge       9.35389869       0.37071372       1.45692614      -0.25744033       0.35209604      -0.01336445       0.00000000
Ge       9.01912555       4.73293304       1.43705207      -0.05381509      -0.19159212      -0.14508843       0.00000000
Ge       4.92088832       8.64193022       1.20868189      -0.18191300       0.11188040       0.68753490       0.00000000
Ge       3.43695392       4.14491637       9.69974967      -0.71820795       0.31439047      -0.17881705       0.00000000
Ge       2.82455877       7.99774972       9.56336638      -0.00003672      -0.01232609      -0.16836610       0.00000000
Ge       2.92071976      12.47634191       9.74419710       0.25284680      -0.41572528       0.18093278       0.00000000
Ge       7.13496694       4.04978861       9.57353104       0.11031550      -0.25156933       0.21386211      -0.00000000
Ge       7.54869765       8.32074792       9.53795424      -0.50738448       0.29976091       0.24064727       0.00000000
Ge       7.10502509      12.08285655       9.77852070      -0.52381718       0.53019430       0.06313147       0.00000000
Ge      11.16310812       3.81440633       9.85619329       0.02109367       0.08065731      -0.62926480       0.00000000
Ge       9.04730807       9.06352572       1.43939675       0.39579296      -0.56364432       0.30568722       0.00000000
Se      11.04522219       0.09180685       7.13689906       0.34339292      -0.05360182      -0.14515951      -0.00000000
Se       2.87254092       4.07764025       7.13345929      -0.32286986       0.36439814      -0.06579482      -0.00000000
Se       2.86737359       8.39832893       6.98361671       0.09215150       0.21248325       0.39253399      -0.00000000
Se       7.07693154       0.18553078       7.24474525      -0.12230108      -0.46818719      -0.26649241      -0.00000000
Se       7.23734898       4.44290707       7.11135345      -0.20666140       0.14632807      -0.33128350      -0.00000000
Se       6.93449806       8.36112569       7.07114358      -0.18540612       0.27778256      -0.07007263      -0.00000000
Se      11.27215520       4.24343407       7.12339809      -0.35626857       0.04105270       0.30330517      -0.00000000
Se       9.38772769       0.11006868       3.95886943      -0.40151379       0.59755133       0.07363337      -0.00000000
Se       1.02101560       0.10977960       3.99213055      -0.11584716       0.24514373       0.08720780      -0.00000000
Se       0.85342704       4.33930943       3.84613665       0.26454141       0.49328863      -0.23641652      -0.00000000
Se       0.84622539       8.29041066       3.89599062       0.01434227       0.11701852      -0.25434438      -0.00000000
Se       4.91758297       0.06762396       4.02009700      -0.98889653       0.60334087      -0.19945124      -0.00000000
Se       4.94141797       4.19452965       4.17318085       0.21486256       0.39722052      -0.65464160      -0.00000000
Se       5.23439072       8.52158410       3.88287852      -0.08440290       0.19029605      -0.29296960      -0.00000000
Se       3.03768163       0.33408168       7.27105199      -0.05226176      -0.85738250      -0.41757107      -0.00000000
Se      11.27785160       8.49627548       7.04896803      -0.07965863       0.27823568       0.20812266      -0.00000000
Se      11.24059220      10.60767403       1.53999581      -0.07393069       0.36086462      -0.43597036      -0.00000000
Se       3.03122893       2.20115331       1.42110750      -0.14381487       0.39296906       0.42471337      -0.00000000
Se      11.28104444       2.42714438       1.63420691       0.22738839      -0.53584546      -0.38947758      -0.00000000
Se       9.21414305       4.26188689       3.96012232      -1.00246727       0.52220241       0.02854448      -0.00000000
Se       0.88264675       2.25297523       9.50467704      -0.43561009      -0.31137926       0.56065105      -0.00000000
Se       0.86386600       6.28850432       9.48529730      -0.31811590       0.37370549      -0.08522260      -0.00000000
Se       0.97402012      10.78751178       9.32932533       0.21085658      -0.47048555      -0.11768712      -0.00000000
Se       5.06124188       2.28261910       9.43166719       0.78280648      -0.00675196      -0.03130891      -0.00000000
Se       4.84064383       6.33508432       9.38200938       0.19490974       0.02397665       0.27119987      -0.00000000
Se       4.95712429      10.56434298       9.53790351      -0.16429785       0.03509884       0.17431814      -0.00000000
Se       9.12839621       2.29592039       9.46328823      -0.14635786      -0.16529311      -0.10261101      -0.00000000
Se       9.26648067       6.46404254       9.37165766      -0.01011262      -0.41755907      -0.38965958      -0.00000000
Se       9.03243165      10.56195978       9.36263732       0.48454535      -0.76433982       0.19715468      -0.00000000
Se       3.08888526       6.41333392       1.64656907       0.10810049      -0.20019763       0.04162297      -0.00000000
Se       3.00669696      10.43392465       1.61444713      -0.31212118       0.00417604       0.06436918      -0.00000000
Se       6.94213082       2.18018915       1.55258673       0.29338026      -0.13728264      -0.47735414      -0.00000000
Se       7.15476756       6.56042674       1.60551977       0.09413907      -0.59222842       0.11309907      -0.00000000
Se       7.27690336      10.75628854       1.46820427      -0.66941683       0.21076648       0.40364298      -0.00000000
Se      11.01842867       6.30722458       1.59579324       0.64872327       0.51564543      -0.54098867      -0.00000000
Se       9.17307820       8.76126621       4.05550955       0.53561107      -0.34531120      -0.52918035      -0.00000000
72
Lattice="12.419150049723033 5.9561260436e-06 -2.4899567757e-06 5.9949421206e-06 12.500076868747662 -2.5155137644e-06 -2.8514618428e-06 -2.8620771714e-06 11.048358805508103" Properties=species:S:1:pos:R:3:forces:R:3:magmoms:R:1 energy=-300.54359662 stress="0.0033251746036213293 -0.0010428907639194532 -0.0008520858201752636 -0.0010428907639194532 -0.004185843921908763 0.0013187278621910098 -0.0008520858201752636 0.0013187278621910098 -0.012155581174487203" dipole="_JSON [[0.0, 0.0, 0.0]]" magmom=0.0017791 free_energy=-300.54359662 pbc="T T T"
Ge       0.97641093       0.53721796       1.36767316       0.33328856       0.11758294       0.51452846      -0.00000000
Ge       2.96608869      10.93615657       4.06936088      -0.98692111      -0.75482808       0.13643521       0.00000000
Ge       7.08060549       2.46749922       4.08092924      -0.44898858       0.09405770       0.17488709       0.00000000
Ge       7.09571156       6.91886059       4.01097262       0.14196054      -0.17684446       0.32713587       0.00000000
Ge       7.06455387      10.69627172       4.10795003      -0.48438048       0.12251697      -0.35628437       0.00000000
Ge      10.98892040       2.20744094       4.04668954      -0.28863404       0.26234590       0.73946638       0.00000000
Ge      11.11027071       6.78317823       4.18624398       0.64696481       0.08919054      -0.48208865       0.00000000
Ge      11.39861919      10.96197939       3.96031120      -0.09592797      -0.03124795       0.06694001       0.00000000
Ge       1.12227886       2.15504847       7.06437169       0.02688166      -0.32881851       0.24326593       0.00000000
Ge       0.73728797       5.88704594       6.96988754      -0.01280664       0.11467307       0.31221570       0.00000000
Ge       1.00897399      10.21108543       6.88864212       0.22169780       0.04757291       0.19239760       0.00000000
Ge       5.20280148       1.89828690       6.99029413      -0.27540402      -0.13535056      -0.07985398      -0.00000000
Ge       5.47521771       6.10279698       6.97663648      -0.35890075       0.46367037       0.28303291       0.00000000
Ge       4.95748179      10.18373566       6.88042795      -0.16249186      -0.03795726      -0.13658792       0.00000000
Ge       9.25687792       1.72632570       6.99237611      -0.15686298      -0.11319832      -0.16705810       0.00000000
Ge       9.31950775       6.02468224       7.09560257      -0.16719698       0.21999744      -0.47381651       0.00000000
Ge       2.71159156       6.62178135       3.93217723       0.01098755       0.01514037       0.82414077      -0.00000000
Ge       2.91653465       2.74812404       3.96895549       0.07638993       0.25698901      -0.00666644      -0.00000000
Ge       9.37862977      10.36531994       6.95451158       0.25217287       0.04896261      -0.03880395       0.00000000
Ge      11.48960003       8.30983452       9.59857249      -0.45301061      -0.11484421       0.04328784       0.00000000
Ge      11.62448160      12.46443855       9.73455684       0.34761679       0.16502119      -0.40663250       0.00000000
Ge       0.82870280       4.86443724       1.11905805       0.11597794      -0.19466241      -0.25493953      -0.00000000
Ge       0.88384183       8.73906187       1.33305805      -0.19447145       0.44566257       0.56737398       0.00000000
Ge       4.94030869       0.42142749       1.56228432      -0.18278353       0.12910049      -0.45979931      -0.00000000
Ge       5.21230698       4.76632832       1.62515546      -0.00955728      -0.47690090      -0.75611040      -0.00000000
Ge       9.05724689       0.45995645       1.44750870       0.06582507      -0.42355775       0.00169395       0.00000000
Ge       9.18988420       4.79757418       1.35977458      -0.10355944      -0.15552473      -0.11547639       0.00000000
Ge       4.94395108       8.71568831       1.35750315      -0.14891467       0.27342082      -0.20248360      -0.00000000
Ge       3.04740796       4.15126013       9.53927864       0.40426574       0.08747973       0.12812006      -0.00000000
Ge       3.01501844       8.07761060       9.55617187       0.03106632      -0.30243474      -0.55301649      -0.00000000
Ge       3.16230815      12.31238428       9.62273063      -0.14491998       0.26570395       0.48633392      -0.00000000
Ge       7.18989019       3.96846757       9.82095761      -0.16425155       0.21898271      -0.04373269       0.00000000
Ge       7.19099868       8.56023462       9.52836608      -0.10007036      -0.86978899      -0.53444780       0.00000000
Ge       7.00375053      12.07913086       9.65215555       0.21000257       0.02457100      -0.13901180       0.00000000
Ge      10.82781215       4.10228651       9.67932150       0.35387473      -0.48043964      -0.06878560       0.00000000
Ge       9.24253655       8.98277631       1.39718256      -0.04867496       0.11052816       0.11783566       0.00000000
Se      11.19239800      -0.01291748       7.15776659      -0.31184151      -0.00947995       0.23905245      -0.00000000
Se       2.74523029       4.27026789       7.02167475       0.00258209      -0.11403878      -0.07211199      -0.00000000
Se       2.96301128       8.44167773       6.86582279      -0.15247920      -0.09355161       0.81420502      -0.00000000
Se       7.03993859       0.08726345       7.11837735       0.13521346      -0.06368096       0.08807362      -0.00000000
Se       7.29886989       4.38135054       7.28624291       0.06955906      -0.09891761      -0.19246283      -0.00000000
Se       6.94944857       8.50842172       6.85337560       0.04587330      -0.40313498       0.72461525      -0.00000000
Se      11.11687452       4.12499677       7.11561976       0.14467573       0.27302376       0.14265262      -0.00000000
Se       9.14976579       0.11427799       4.00911457       0.27722142      -0.02165299      -0.03566629      -0.00000000
Se       0.90591465       0.22731799       4.02096117       0.15015984      -0.13977130      -0.40932215      -0.00000000
Se       1.03574653       4.58099663       3.56404275      -0.25488984      -0.40880180       1.10198106      -0.00000000
Se       0.82405918       8.52278021       3.95940669      -0.37713081      -0.50852601      -0.41856552      -0.00000000
Se       4.72338702       0.05900519       4.02549941       1.36861169       0.71059868       0.13232083      -0.00000000
Se       5.07445532       4.45764940       4.03223723       0.03212794      -0.50089902       0.74472871      -0.00000000
Se       5.12350245       8.57368354       3.82988087      -0.00807717      -0.07591676       0.41606159      -0.00000000
Se       3.00429334       0.16525583       7.19924745       0.17991005       0.65726797      -0.54049183      -0.00000000
Se      11.33145879       8.58505032       7.08543179       0.05188278      -0.02765493      -0.11028552      -0.00000000
Se      11.31158956      10.68945540       1.43051320      -0.02708514      -0.40788199       0.08127130      -0.00000000
Se       3.00480603       2.39817922       1.49179524       0.03757376      -0.57919351      -0.07868237      -0.00000000
Se      11.29068607       1.99832750       1.67451163      -0.21246515       0.72547908      -1.05449645      -0.00000000
Se       8.90343079       4.13220977       3.82421290       0.97479893       0.26677587       0.19431278      -0.00000000
Se       0.69315100       2.27871044       9.61795351      -0.21205003      -0.26760980      -0.20714146      -0.00000000
Se       0.79774336       6.45296570       9.58288967       0.35732340      -0.20171658      -0.72229147      -0.00000000
Se       1.18272232      10.64886429       9.53296693      -0.65571014      -0.09992578      -0.35346209      -0.00000000
Se       5.12255099       2.45016860       9.47907917      -0.31515905      -0.34285759       0.07541782      -0.00000000
Se       4.89043670       6.19985068       9.57132557      -0.19375126       0.24881986      -0.57709966      -0.00000000
Se       4.92853664      10.40807416       9.44348294       0.31026534       0.03155330       0.05841130      -0.00000000
Se       8.97632028       2.16268519       9.48147889       0.50319521      -0.02061027       0.35044920      -0.00000000
Se       9.23101718       6.57382806       9.52417841       0.17801505       0.08286462       0.21403269      -0.00000000
Se       9.03853753      10.22445721       9.47203169      -0.07469632       1.08570229       0.12224827      -0.00000000
Se       3.21365027       6.39156695       1.53703615      -0.46844718       0.48605124      -0.91114285      -0.00000000
Se       2.79998003      10.45658165       1.55217941       0.44147867       0.07843412      -0.04890227      -0.00000000
Se       7.00436775       2.02347776       1.61106194      -0.20099168       0.36272937      -0.18249319      -0.00000000
Se       7.17905819       6.46675363       1.53585621       0.17185076       0.30662046      -0.25353444      -0.00000000
Se       6.98990727      10.62031513       1.53586546       0.55792913      -0.06964688       0.12707750      -0.00000000
Se      11.19329210       6.50721102       1.48220782      -0.21173197      -0.15714943       0.68525269      -0.00000000
Se       9.30006116       8.54831439       3.94293404      -0.56398480       0.31992591      -0.02750767      -0.00000000
72
Lattice="12.413619360524724 5.9534735689e-06 -2.4888479094e-06 6.0006980157e-06 12.51207850788421 -2.5179289726e-06 -2.856112307e-06 -2.8667449482e-06 11.066377632355472" Properties=species:S:1:pos:R:3:forces:R:3:magmoms:R:1 energy=-300.46291073 stress="0.0026492064014020096 0.0003226528856362152 -0.000750779180262521 0.0003226528856362152 -0.004514965669882281 0.0004716631613452639 -0.000750779180262521 0.0004716631613452639 -0.010321902907147951" dipole="_JSON [[0.0, 0.0, 0.0]]" magmom=0.0017139 free_energy=-300.46291073 pbc="T T T"
Ge       1.04987377       0.49865572       1.26905514      -0.21617391      -0.05969608       0.42173853       0.00000000
Ge       2.85906824      11.15712803       3.96797917       0.39849480      -0.19979540       0.32094300       0.00000000
Ge       7.00460032       2.71982008       4.13992263       0.24475962      -0.21850404      -0.13568651       0.00000000
Ge       7.00025249       6.71552314       3.90018860      -0.38857378      -0.21894750       1.28180107       0.00000000
Ge       7.02747556      10.56280160       4.21475230      -0.18839544       0.38567864      -0.61516323       0.00000000
Ge      11.14482167       2.43408224       4.03297016      -0.08897885       0.12440090       0.31727289       0.00000000
Ge      11.33242450       6.61528320       4.10515044      -0.22259280       0.14158465      -0.26388038       0.00000000
Ge      11.25358105      11.05868036       4.14037973       0.11874103       0.22084824      -0.24813677       0.00000000
Ge       1.22995063       2.18739248       6.91357191       0.07148766      -0.34278105       0.12691747       0.00000000
Ge       0.72613319       6.05170643       6.93276571       0.43073529      -0.27475500       0.63908559       0.00000000
Ge       0.98809043      10.20602581       6.86223754       0.12301269       0.02861665       0.58578738       0.00000000
Ge       5.06298801       1.77795980       7.01358321      -0.07164318       0.38664889       0.03407421      -0.00000000
Ge       5.31089011       6.34868941       7.02147949       0.02795548      -0.22136132       0.28224103      -0.00000000
Ge       5.05304879      10.14623699       7.08955748      -0.21675753      -0.07686285      -0.02990246       0.00000000
Ge       9.17421698       1.77711024       7.04236070      -0.18621168       0.13871850      -0.13713933       0.00000000
Ge       9.24135996       6.07023924       6.94435088      -0.03960862       0.28561353       0.14112549       0.00000000
Ge       2.71898964       6.89452213       3.97322888       0.11595858      -0.23920619       1.07202425      -0.00000000
Ge       3.23522681       2.61672491       4.18218225      -0.44206488      -0.18620370      -0.30402264      -0.00000000
Ge       9.29517790      10.37540920       7.10123930       0.20049451      -0.04118018      -0.08612982       0.00000000
Ge      11.35051184       8.11946327       9.45871354       0.27759695      -0.01413774       0.84887785       0.00000000
Ge      11.34659328      12.39492984       9.53795810       0.29502215       0.04087303      -0.08232270       0.00000000
Ge       0.65246962       4.38783258       1.57656484       0.41232505       0.11838627      -0.09641405      -0.00000000
Ge       0.86330777       8.90725313       1.44156646       0.13579304       0.13397330       0.23278576      -0.00000000
Ge       5.07185550       0.57892156       1.28988089       0.13612101      -0.03099308       0.17073009      -0.00000000
Ge       5.08129060       4.72762425       1.29238303      -0.39093382       0.00019348      -0.36167503      -0.00000000
Ge       9.21980040       0.46228695       1.48029915      -0.38223320       0.14717692      -0.35337403       0.00000000
Ge       9.11303896       4.77293509       1.36977064      -0.42501911      -0.62474796       0.14174973       0.00000000
Ge       5.02982596       8.92942424       1.65802296      -0.23947450      -0.21910795      -0.83373077      -0.00000000
Ge       3.18931338       4.14043577       9.62748202      -0.20599694       0.36558247      -0.19677134      -0.00000000
Ge       2.97898067       8.01378976       9.82286693      -0.48368194       0.12978202      -0.51399836      -0.00000000
Ge       2.94282263      12.25546355       9.55855754       0.01644137      -0.09047283       0.31107597       0.00000000
Ge       7.28009076       4.12190614       9.59243710      -0.22335391      -0.06432788       0.18022056       0.00000000
Ge       7.31913632       8.33201130       9.77744931       0.18445617      -0.19365589      -0.46238507       0.00000000
Ge       7.04805363      12.21348718       9.54650619      -0.61050169       0.34646352      -0.28535969       0.00000000
Ge      11.26443571       3.83325418       9.38481775      -0.15529997       0.43099010       0.19066538       0.00000000
Ge       9.11924900       8.91857845       1.44116060       0.54739042      -0.39326634      -0.21732373       0.00000000
Se      10.98954361      -0.09355834       6.97490434       0.01525918       0.11914016       0.44635240      -0.00000000
Se       2.81881382       4.21146097       7.03759354      -0.12955961       0.21122485       0.35659823      -0.00000000
Se       2.91824515       8.54240976       7.07840791       0.08778031      -0.27385910       0.47024972      -0.00000000
Se       7.06285442       0.15867146       6.85627853       0.10260347      -0.32432506       0.86444674      -0.00000000
Se       7.24648411       4.47463685       7.10531498      -0.41288483      -0.12080391      -0.21754223      -0.00000000
Se       7.00901146       8.29412895       7.14390275      -0.09940883       0.34604551       0.38921514      -0.00000000
Se      11.15694944       4.29724529       6.84044942       0.17482407      -0.16883789       0.37722271      -0.00000000
Se       9.14979831       0.20125347       3.91207995       0.31153315      -0.00365060       0.51809621      -0.00000000
Se       0.88148775       0.33501128       3.86708843      -0.21495737      -0.35969501      -0.08800890      -0.00000000
Se       1.15771281       4.42885569       4.07996293      -0.46752984      -0.18535260      -0.11654269      -0.00000000
Se       0.75785427       8.61677640       4.07435320      -0.08188759      -0.25580362      -0.60984087      -0.00000000
Se       5.16468805       0.06436084       3.82419745      -0.39324748      -0.01210204       0.05372250      -0.00000000
Se       4.99912810       4.33983584       3.73854942       0.18321704       0.26234272       0.81863371      -0.00000000
Se       5.01635777       8.58203408       4.06233003       0.27626782       0.11128160       0.66999436      -0.00000000
Se       3.13600846       0.03842969       7.07065078      -0.34998401       0.48725218      -0.19755846      -0.00000000
Se      11.36706038       8.54551451       7.03368346      -0.36151604       0.08260013      -0.42445838      -0.00000000
Se      11.21945849      10.59223366       1.61805188      -0.15028223       0.03323288      -0.00612450      -0.00000000
Se       2.97884643       2.12676252       1.59415044       0.19134336       0.44071612       0.14263156      -0.00000000
Se      11.33026089       2.28344921       1.55224339       0.01736695      -0.06345993      -0.44245068      -0.00000000
Se       9.25215606       4.30028799       3.91697686      -0.45986692      -0.05105618      -0.10977362      -0.00000000
Se       0.63931646       2.03362206       9.44250351       0.31739201      -0.12133963      -0.22106525      -0.00000000
Se       0.85702240       6.27585429       9.64445598      -0.15566012       0.30700499      -0.81333057      -0.00000000
Se       0.85593379      10.60695837       9.62105280       0.08210180       0.14936940      -0.74159015      -0.00000000
Se       5.04695118       2.47430085       9.57160618       0.62770583      -0.57686929      -0.42606025      -0.00000000
Se       4.87320093       6.35433012       9.65060832       0.15976392      -0.25848590      -0.62341824      -0.00000000
Se       4.90292602      10.44982433       9.61964388       0.32404687       0.22810165      -0.17481278      -0.00000000
Se       9.11574594       2.31044915       9.57687238      -0.01564876      -0.46566323      -0.23338708      -0.00000000
Se       9.28265368       6.50860836       9.54194559      -0.19672034      -0.08572941      -0.23458241      -0.00000000
Se       8.92846892      10.58859435       9.63659439       0.46925342      -0.58766207      -0.32934045      -0.00000000
Se       3.00068490       6.63151899       1.62503340       0.11536483      -0.30431683      -1.24140758      -0.00000000
Se       2.96247081      10.64914805       1.50147538      -0.33028047      -0.15364994      -0.03076981      -0.00000000
Se       7.03601517       2.31848701       1.61102533       0.25289636      -0.26659934      -0.07880721      -0.00000000
Se       6.96154067       6.44274607       1.52561751       0.32382342       0.06440475      -1.10667786      -0.00000000
Se       7.25857536      10.55368130       1.50245074      -0.51683293       0.58813971       0.66351469      -0.00000000
Se      11.18277991       6.13945396       1.54409498       0.53365928       1.04272504       0.32939910      -0.00000000
Se       8.86266503       8.32250303       3.88588555       1.21077425       0.45015182       0.29177256      -0.00000000
72
Lattice="12.412009042018497 5.9527012728e-06 -2.4885250513e-06 6.0019512938e-06 12.514691722713806 -2.5184548556e-06 -2.8572791693e-06 -2.8679161544e-06 11.070898791432745" Properties=species:S:1:pos:R:3:forces:R:3:magmoms:R:1 energy=-300.781976 stress="0.003899850440259277 -0.000803617674409146 -3.9562317398159355e-05 -0.000803617674409146 -0.004816741231779183 -9.818284573485646e-05 -3.9562317398159355e-05 -9.818284573485646e-05 -0.014932194896249482" dipole="_JSON [[0.0, 0.0, 0.0]]" magmom=0.0018344 free_energy=-300.781976 pbc="T T T"
Ge       1.03503482       0.59430095       1.41473826      -0.10137062      -0.04074883       0.06949491       0.00000000
Ge       3.05214008      11.13514366       4.08567147      -0.16341893      -0.40374446       0.05126087       0.00000000
Ge       7.01093092       2.73341685       4.08938866       0.09414499       0.11565448      -0.05939170       0.00000000
Ge       6.94695024       6.72369755       4.03571297       0.31995728       0.02746172      -0.61112241      -0.00000000
Ge       7.13389890      10.85912867       3.99607809      -0.25503188      -0.06907313       1.01404107       0.00000000
Ge      11.25894845       2.33499926       3.97082058       0.00650483       0.39341270      -0.23797725       0.00000000
Ge      11.10795323       6.57312537       4.14277822       0.34236386       0.08315428       0.19899842      -0.00000000
Ge      11.40261313      10.95862582       4.01973652      -0.49779178      -0.10612648       0.17534785       0.00000000
Ge       1.10935287       2.14752601       6.93886045       0.04078590      -0.13362816       0.02275097       0.00000000
Ge       0.82394940       5.96024718       7.18133487      -0.52783897       0.43104838      -1.03013843       0.00000000
Ge       0.98508076      10.17207276       7.06740576       0.05263804       0.12859738      -0.44045617       0.00000000