72
Lattice="12.405810789305951 5.9497286399e-06 -2.487282343e-06 6.0064870737e-06 12.524149294876148 -2.5203580962e-06 -2.8599684751e-06 -2.8706154719e-06 11.081318855804836" Properties=species:S:1:pos:R:3:forces:R:3:magmoms:R:1 energy=-300.70921406 stress="0.004454493554172827 -0.0014413520332402043 0.0005918328901382506 -0.0014413520332402043 -0.007431846567611581 0.00011773564633954745 0.0005918328901382506 0.00011773564633954745 -0.004223858732017269" dipole="_JSON [[0.0, 0.0, 0.0]]" magmom=0.0017516 free_energy=-300.70921406 pbc="T T T"
Ge       0.92934779       0.43829365       1.50350201      -0.41957141       0.12586497      -0.10905573       0.00000000
Ge       2.94925182      11.01858552       4.21916754       0.03197273      -0.32322324      -0.27021814       0.00000000
Ge       7.23461877       2.71798943       4.15509232      -0.36694971      -0.41684994      -0.02546559       0.00000000
Ge       7.12726334       6.96522869       4.33023085       0.47867789      -0.28385268      -0.38552761       0.00000000
Ge       7.03875067      10.87055015       4.16986480       0.23258430       0.15159991      -0.16876010       0.00000000
Ge      11.12648324       2.69609056       4.11318360       0.19592888       0.08156048       0.05832616       0.00000000
Ge      11.43854711       6.61845911       4.16302973       0.12135366       0.71943458      -0.60653498       0.00000000
Ge      11.42839772      11.04448313       4.16522865      -0.64195619      -0.42861317      -0.33628337       0.00000000
Ge       1.10324638       1.97073420       7.01717258      -0.37906050       0.76406548      -0.10774483       0.00000000
Ge       0.65455571       5.95581648       6.77990195       0.28191360      -0.53153046       0.56058620      -0.00000000
Ge       0.88473736      10.38505707       6.86375665       0.56497921      -0.28460712       0.07670574       0.00000000
Ge       5.15726296       1.69129289       6.84243919       0.03105062       0.73205202       0.15321279       0.00000000
Ge       5.14588794       6.13116781       6.92471186       0.06035457      -0.05919687       0.21978149      -0.00000000
Ge       4.94427436       9.98926058       6.77393807      -0.19438563       0.44476520       0.08909816       0.00000000
Ge       9.01802662       1.82117215       6.92035531      -0.05846489      -0.02689975       0.03587633       0.00000000
Ge       9.16334943       6.06146833       6.86470930       0.01092176      -0.40946482       0.26472693      -0.00000000
Ge       3.04693170       6.68132748       4.16252686      -0.14645507      -0.11316693      -0.35856130      -0.00000000
Ge       2.80420108       2.56972903       3.98391595       0.36446518       0.23712889      -0.07344121       0.00000000
Ge       9.67521044      10.64066283       6.88680911      -0.80045753      -0.60695178       0.17175335       0.00000000
Ge      11.39463956       8.17203802       9.75141202      -0.28715847      -0.04374674       0.21504654       0.00000000
Ge      11.46316429      12.41980907       9.65995540       0.29947742       0.30013874       0.27666673       0.00000000
Ge       0.79428802       4.97129938       1.24685287       0.19623791      -0.37970705       0.00944909       0.00000000
Ge       1.24247686       8.76362946       1.41243389      -0.54486065      -0.21264619       0.23234828       0.00000000
Ge       4.92309629       0.61308238       1.53337360      -0.15323750      -0.04436027      -0.13126443       0.00000000
Ge       5.33868338       4.54506893       1.49003219      -0.47730146      -0.19142465      -0.02875980       0.00000000
Ge       9.20858117       0.37988111       1.29330036       0.16946329       0.02623342       0.57645990       0.00000000
Ge       9.09881787       4.60656766       1.43150266       0.20149723       0.44600592      -0.13048693       0.00000000
Ge       4.83509281       8.95093272       0.99609344       0.31792980       0.01438897       0.47361957      -0.00000000
Ge       3.27938829       4.22902439       9.49842076      -0.16704421      -0.07543200       0.20145847       0.00000000
Ge       2.91571153       8.02879017       9.70991955       0.14726631      -0.33047621       0.15019635       0.00000000
Ge       3.10666258      12.37834914       9.54923693      -0.02402795       0.02205027       0.51355238       0.00000000
Ge       7.26226732       3.90534644       9.75857774      -0.30289660       0.30387087      -0.23900526      -0.00000000
Ge       7.26581087       8.42990207       9.54924150       0.10928806       0.04316539      -0.33947349       0.00000000
Ge       6.92941439      12.22056867       9.68212048       0.46372108      -0.17599365       0.33637367       0.00000000
Ge      11.10178310       3.64875374       9.89342931       0.26285485       0.09823924      -0.32808247       0.00000000
Ge       9.02979345       9.04562712       1.60740994       0.58100212      -0.32319855      -0.30546674       0.00000000
Se      11.09294202       0.13856142       7.17180464       0.31956754       0.41581945      -0.17978745      -0.00000000
Se       2.64082884       4.14953047       7.00954928       0.05676045       0.27234254      -0.16194084      -0.00000000
Se       2.96454780       8.49659598       7.25664506      -0.68342445      -0.07093730      -0.50180681      -0.00000000
Se       7.04875588       0.03754230       7.20925825       0.13435733      -0.15641333      -0.48708597      -0.00000000
Se       7.12619552       4.36365900       7.17062786       0.31296659       0.18225875       0.01595818      -0.00000000
Se       6.71979938       8.26040961       6.90365283       0.56500983      -0.01369440       0.67970618      -0.00000000
Se      11.14643418       4.20975176       7.27456873      -0.31455302       0.44393585      -0.06518708      -0.00000000
Se       9.06519664       0.07680547       3.92121436       0.20409059       0.16797872      -0.02439193      -0.00000000
Se       0.94457312       0.15762294       4.05729199       0.09228341       0.30666505      -0.07733136      -0.00000000
Se       0.82983593       4.48639052       3.83764908      -0.34420484      -0.34695885       0.09122427      -0.00000000
Se       1.01769487       8.61922274       3.97347822      -0.23710660      -0.72935507      -0.10013257      -0.00000000
Se       4.82931682       0.18419155       4.04197493       0.42478632       0.20147594      -0.05732256      -0.00000000
Se       4.96603251       4.17652659       3.98499359      -0.07618783       0.16012303       0.07559978      -0.00000000
Se       5.02033078       8.23542716       3.81025944      -0.09873348       1.06373888      -0.40805632      -0.00000000
Se       2.97003211       0.31452158       7.10144931       0.50181899      -0.63980149      -0.27171541      -0.00000000
Se      11.39455120       8.78630789       7.27514616      -0.03308580      -0.55374367      -0.39178420      -0.00000000
Se      11.23637683      10.59873975       1.64504307      -0.14199406       0.00237813       0.04325957      -0.00000000
Se       2.72924200       2.24265373       1.46570287       0.53929153       0.14117132       0.15067024      -0.00000000
Se      11.23424841       2.18070813       1.62558633      -0.10499944      -0.24623523      -0.19603750      -0.00000000
Se       9.14334947       4.43852836       3.95932442       0.34874914      -0.16945453       0.00553067      -0.00000000
Se       0.83659218       2.11646890       9.52690689      -0.63043932      -0.19039609       0.34753042      -0.00000000
Se       0.88056973       6.37271192       9.41206068      -0.09406468       0.15853723      -0.20939066      -0.00000000
Se       1.03239666      10.77134725       9.37195041      -0.04164378      -0.18403794       0.23242994      -0.00000000
Se       5.14487819       2.41663736       9.45501941      -0.08630310      -0.36206197      -0.21296692      -0.00000000
Se       4.97268242       6.25802884       9.48979692      -0.44948035       0.23170756      -0.19098440      -0.00000000
Se       4.99790980      10.52997966       9.41152096      -0.18535292       0.08032487      -0.18289009      -0.00000000
Se       8.99823014       2.05810038       9.47628975       0.43760512       0.00290088       0.04828453      -0.00000000
Se       9.05082192       6.66762690       9.35166180       0.76811075      -0.29622572       0.13054115      -0.00000000
Se       9.03501823      10.39191613       9.47887831      -0.46905268       0.47332735      -0.17393844      -0.00000000
Se       3.09554472       6.31621762       1.54043414      -0.46306906       0.39727975       0.24052507      -0.00000000
Se       2.94556743      10.63708703       1.47711051       0.24588635       0.16780484       0.43095600      -0.00000000
Se       6.96756123       2.23018829       1.59934646       0.46181768       0.00309992       0.11638359      -0.00000000
Se       7.12760435       6.26441545       1.68044901       0.34200914       0.49481399       0.05436052      -0.00000000
Se       7.11918590      10.72499323       1.62206058      -0.74629893      -0.06837090      -0.06545962      -0.00000000
Se      11.20289440       6.56652104       1.55074031      -0.35586622      -0.20272065       0.39088421      -0.00000000
Se       9.14571636       8.68320126       4.07440507      -0.35836290      -0.38649914       0.23325966      -0.00000000
