72
Lattice="12.412864298581713 5.9531114471e-06 -2.4886965245e-06 6.0013064124e-06 12.513347078120043 -2.5181842596e-06 -2.8566189546e-06 -2.8672534819e-06 11.068340704022145" Properties=species:S:1:pos:R:3:forces:R:3:magmoms:R:1 energy=-300.68704615 stress="0.003234765251668813 -0.0008308719854714286 -0.0009266513633551081 -0.0008308719854714286 -0.005112975850259018 0.0004072268447371418 -0.0009266513633551081 0.0004072268447371418 -0.010501600554874358" dipole="_JSON [[0.0, 0.0, 0.0]]" magmom=0.0016292 free_energy=-300.68704615 pbc="T T T"
Ge       1.10231527       0.57902164       1.30827312      -0.71548314      -0.42246144       0.33422609       0.00000000
Ge       2.93182414      11.16742407       3.99213909       0.24445797      -0.20176809       0.34819319       0.00000000
Ge       6.97990467       2.71917812       4.14347285       0.28721725       0.07288537      -0.31489053       0.00000000
Ge       6.95239213       6.72485061       3.98535275       0.23365990      -0.07895247      -0.34281069       0.00000000
Ge       7.08009205      10.65809236       4.07462679       0.03674249       0.53545879       0.21125496       0.00000000
Ge      11.21644543       2.34171350       4.02570095      -0.14745769       0.42206259      -0.29371583       0.00000000
Ge      11.24590329       6.56769532       4.11703185      -0.31045617       0.24213571       0.10348150       0.00000000
Ge      11.36208096      10.97854287       4.12464303      -0.34247812       0.32317688      -0.48427536      -0.00000000
Ge       1.19322786       2.26923860       6.89884033      -0.33798707      -1.13534308       0.26473067       0.00000000
Ge       0.78956174       5.96542021       7.06362706      -0.20228952       0.47529499       0.01593471       0.00000000
Ge       0.96477415      10.15865351       6.92371656       0.21731154       0.36483947       0.51054691       0.00000000
Ge       5.04305083       1.84224169       7.08181963       0.00462015      -0.09857485      -0.39149586       0.00000000
Ge       5.39165561       6.28912155       7.11731010      -0.07762575      -0.03335703      -0.28444124       0.00000000
Ge       5.05531497      10.03495830       7.01188756      -0.18953307       0.49175525       0.22998472       0.00000000
Ge       9.22645307       1.82394471       7.03354661      -0.27097504      -0.40509451      -0.26600225       0.00000000
Ge       9.26527031       6.11264964       7.08198318      -0.10145931       0.66959984      -0.30709875       0.00000000
Ge       2.77109678       6.96727499       4.08345114       0.29585700      -0.39527521      -0.17946975       0.00000000
Ge       3.11335323       2.63114304       4.11322781       0.07162843       0.23440468      -0.10921668       0.00000000
Ge       9.21725264      10.36006728       7.08598756       0.35564196      -0.09904649      -0.05576410      -0.00000000
Ge      11.43442791       8.09544010       9.50496427      -0.64333207       0.70043221       0.22038861      -0.00000000
Ge      11.45357253      12.46857340       9.52840778       0.08586439      -0.19335776       0.25674777      -0.00000000
Ge       0.72084218       4.38725615       1.48361287       0.29566517       0.08301986      -0.14721940       0.00000000
Ge       0.89146820       8.96243845       1.55028452      -0.14675350      -0.06800891      -0.48954189      -0.00000000
Ge       5.16330339       0.45375380       1.27153365      -0.21471044       0.22144196       0.08911623      -0.00000000
Ge       5.09560832       4.78329682       1.26043539      -0.46988600       0.15828046       0.32011089       0.00000000
Ge       9.10250813       0.41717387       1.43993846       0.00007975       0.07376002      -0.03170183      -0.00000000
Ge       9.05522335       4.80770790       1.35325227      -0.04122568      -0.39438425       0.17996953      -0.00000000
Ge       5.03059213       8.98264720       1.64490100      -0.00414272      -0.41564491      -0.88069582      -0.00000000
Ge       3.08394011       4.10878830       9.56638311       0.29634264       0.04291395      -0.01966025       0.00000000
Ge       2.91905176       7.99258133       9.67324828       0.02205826       0.37612830      -0.01719164       0.00000000
Ge       3.02352464      12.30365457       9.64723268      -0.14218190      -0.10477129      -0.32889254       0.00000000
Ge       7.18432690       4.10205826       9.78351169       0.13538294      -0.26289534      -0.64559088       0.00000000
Ge       7.28906563       8.33987057       9.64865658       0.27316512      -0.05793972       0.20651802      -0.00000000
Ge       6.92771258      12.20615540       9.57673117       0.26630925       0.00154920      -0.33841470      -0.00000000
Ge      11.18295467       3.85356645       9.34181149      -0.26170301       0.39477991       0.81044520       0.00000000
Ge       9.09824944       8.81478384       1.49326715       0.46307802       0.20544369      -0.46366263      -0.00000000
Se      11.00101784      -0.25176210       7.06360967      -0.03843320       0.77916760      -0.08035659      -0.00000000
Se       2.67342445       4.22542791       6.99869388       0.93565751       0.31108394       0.41418527      -0.00000000
Se       2.96790655       8.50516619       7.09759162      -0.16392205      -0.45905283       0.09374078      -0.00000000
Se       7.06300602       0.15978761       6.93158570      -0.01346943      -0.02687391       0.67027343      -0.00000000
Se       7.30748245       4.53937319       7.08924304      -0.53252595      -0.55079689       0.50285201      -0.00000000
Se       7.03826560       8.35176034       7.14388756      -0.21172189      -0.13927935      -0.23891509      -0.00000000
Se      11.09269405       4.36000738       6.89270992       0.51170854      -0.46697022      -0.16372513      -0.00000000
Se       9.01809333       0.09235368       3.92166630       0.66950457       0.20500949       0.41730618      -0.00000000
Se       0.89322399       0.34339948       3.94023630      -0.09957743      -0.41529781      -0.24692680      -0.00000000
Se       1.06248826       4.31558264       3.97505502      -0.29833376      -0.17894350       0.19509762      -0.00000000
Se       0.80360058       8.62518676       4.02891544      -0.17491351      -0.10708006       0.11288266      -0.00000000
Se       5.15228935       0.07161545       3.77293695      -0.21820090       0.00302584       0.31991131      -0.00000000
Se       5.08963599       4.51017962       3.81573712      -0.31572058      -0.45215096       0.14578996      -0.00000000
Se       5.06187912       8.56877608       4.05462073      -0.12452074      -0.02545190       0.63733603      -0.00000000
Se       3.05351028       0.07727610       7.05114194      -0.01741224       0.70995730       0.33682865      -0.00000000
Se      11.40083664       8.53606996       6.98901545      -0.49756461      -0.14116655       0.20089333      -0.00000000
Se      11.10936029      10.66891126       1.56035686       0.27592212      -0.31765042       0.31808160      -0.00000000
Se       2.97581042       2.14749948       1.61697308       0.72061847       0.54378103      -0.18638284      -0.00000000
Se      11.30960519       2.20268075       1.46807139       0.02016243       0.04035000       0.25714448      -0.00000000
Se       9.21750732       4.39858465       3.88893096      -0.42543088      -0.50662113      -0.06570755      -0.00000000
Se       0.64725108       2.13862753       9.50090576       0.40176727      -0.20707334      -0.54431673      -0.00000000
Se       0.82807517       6.40961265       9.65899718       0.36329418      -0.81406720      -0.48994235      -0.00000000
Se       0.95025994      10.66014482       9.63456571       0.02617509      -0.04991488      -0.64823798      -0.00000000
Se       5.09122002       2.36804811       9.55933955      -0.04314695       0.05497990      -0.06370480      -0.00000000
Se       4.88351852       6.29461721       9.60277361      -0.19616202      -0.26604700      -0.20266469      -0.00000000
Se       4.95142666      10.51618946       9.64816529       0.06590802      -0.10081656      -0.50886049      -0.00000000
Se       9.09695875       2.28067754       9.51619879      -0.04558737      -0.16973615       0.06230701      -0.00000000
Se       9.23073407       6.47466683       9.57132055       0.13850597       0.11909567       0.16285177      -0.00000000
Se       8.95513793      10.44123526       9.59245140      -0.14252665       0.09966204      -0.06606066      -0.00000000
Se       2.92162200       6.58679160       1.54932611       0.15362090      -0.26030786      -0.01203797      -0.00000000
Se       2.98479671      10.57726296       1.53091401      -0.32744791       0.29877329       0.00051300      -0.00000000
Se       6.99622962       2.24640075       1.54070594       0.31897592       0.05652442       0.26474642      -0.00000000
Se       6.97436301       6.53210740       1.31698284       0.25999511       0.06140805       0.70802575      -0.00000000
Se       7.27475182      10.67131430       1.57107616      -0.42852124      -0.25993413      -0.24059237      -0.00000000
Se      11.24820698       6.11942868       1.64809615       0.07891449       0.82631220      -0.37970836      -0.00000000
Se       9.04692589       8.32440231       3.90212888       0.40900669       0.08361411       0.60747676      -0.00000000
