 running  128 mpi-ranks, with    1 threads/rank, on    2 nodes
 distrk:  each k-point on   64 cores,    2 groups
 distr:  one band on    4 cores,   16 groups
 vasp.6.4.2 20Jul23 (build Oct 12 2023 10:31:02) complex                         
 POSCAR found type information on POSCAR GeSe
 POSCAR found :  2 types and       8 ions
 Reading from existing POTCAR
 scaLAPACK will be used
 Reading from existing POTCAR
 LDA part: xc-table for Pade appr. of Perdew
 POSCAR, INCAR and KPOINTS ok, starting setup
 FFT: planning ... GRIDC
 FFT: planning ... GRID_SOFT
 FFT: planning ... GRID
 WAVECAR not read
 entering main loop
       N       E                     dE             d eps       ncg     rms          rms(c)
DAV:   1     0.131463202449E+03    0.13146E+03   -0.12846E+04  2560   0.772E+02
DAV:   2    -0.255474804889E+02   -0.15701E+03   -0.15175E+03  3792   0.139E+02
DAV:   3    -0.340736238574E+02   -0.85261E+01   -0.85104E+01  3136   0.377E+01
DAV:   4    -0.341303591972E+02   -0.56735E-01   -0.56730E-01  3296   0.353E+00
DAV:   5    -0.341307103259E+02   -0.35113E-03   -0.35112E-03  3152   0.269E-01    0.661E+00
DAV:   6    -0.337628389105E+02    0.36787E+00   -0.73533E-01  3088   0.292E+00    0.417E+00
DAV:   7    -0.337469476916E+02    0.15891E-01   -0.23206E-01  2896   0.173E+00    0.126E+00
DAV:   8    -0.337453041134E+02    0.16436E-02   -0.21861E-02  2976   0.563E-01    0.189E-01
DAV:   9    -0.337456189599E+02   -0.31485E-03   -0.37210E-03  3056   0.261E-01    0.665E-02
DAV:  10    -0.337457102802E+02   -0.91320E-04   -0.25768E-04  3152   0.676E-02    0.243E-02
DAV:  11    -0.337457404392E+02   -0.30159E-04   -0.40204E-05  2864   0.286E-02    0.124E-02
DAV:  12    -0.337457411588E+02   -0.71964E-06   -0.53932E-06  3440   0.101E-02
   1 F= -.33745741E+02 E0= -.33745741E+02  d E =-.110013E-14
