 running  128 mpi-ranks, with    1 threads/rank, on    2 nodes
 distrk:  each k-point on   64 cores,    2 groups
 distr:  one band on    4 cores,   16 groups
 vasp.6.4.2 20Jul23 (build Oct 12 2023 10:31:02) complex                         
 POSCAR found type information on POSCAR GeSe
 POSCAR found :  2 types and       8 ions
 Reading from existing POTCAR
 scaLAPACK will be used
 Reading from existing POTCAR
 LDA part: xc-table for Pade appr. of Perdew
 POSCAR, INCAR and KPOINTS ok, starting setup
 FFT: planning ... GRIDC
 FFT: planning ... GRID_SOFT
 FFT: planning ... GRID
 WAVECAR not read
 entering main loop
       N       E                     dE             d eps       ncg     rms          rms(c)
DAV:   1     0.137372778973E+03    0.13737E+03   -0.12436E+04  2560   0.754E+02
DAV:   2    -0.226890249918E+02   -0.16006E+03   -0.15509E+03  3728   0.135E+02
DAV:   3    -0.332995373310E+02   -0.10611E+02   -0.10583E+02  3104   0.407E+01
DAV:   4    -0.333891563734E+02   -0.89619E-01   -0.89610E-01  3152   0.434E+00
DAV:   5    -0.333897805417E+02   -0.62417E-03   -0.62417E-03  3136   0.355E-01    0.608E+00
DAV:   6    -0.325802368295E+02    0.80954E+00   -0.19015E+00  2832   0.437E+00    0.365E+00
DAV:   7    -0.325745512968E+02    0.56855E-02   -0.32947E-01  2864   0.200E+00    0.178E+00
DAV:   8    -0.325740466228E+02    0.50467E-03   -0.35038E-02  2976   0.747E-01    0.199E-01
DAV:   9    -0.325734960074E+02    0.55062E-03   -0.75083E-03  3104   0.340E-01    0.880E-02
DAV:  10    -0.325738127050E+02   -0.31670E-03   -0.88276E-04  2784   0.127E-01    0.324E-02
DAV:  11    -0.325738648367E+02   -0.52132E-04   -0.67122E-05  3072   0.376E-02    0.169E-02
DAV:  12    -0.325738669191E+02   -0.20824E-05   -0.16515E-05  2912   0.159E-02    0.385E-03
DAV:  13    -0.325738679660E+02   -0.10469E-05   -0.22137E-06  2416   0.562E-03    0.147E-03
DAV:  14    -0.325738680930E+02   -0.12699E-06   -0.20755E-07  1280   0.198E-03
   1 F= -.32573868E+02 E0= -.32573868E+02  d E =-.307632E-12
