 running  128 mpi-ranks, with    1 threads/rank, on    2 nodes
 distrk:  each k-point on   64 cores,    2 groups
 distr:  one band on    8 cores,    8 groups
 vasp.6.4.2 20Jul23 (build Oct 12 2023 10:31:02) complex                         
 POSCAR found type information on POSCAR GeSe
 POSCAR found :  2 types and      72 ions
 Reading from existing POTCAR
 -----------------------------------------------------------------------------
|                                                                             |
|           W    W    AA    RRRRR   N    N  II  N    N   GGGG   !!!           |
|           W    W   A  A   R    R  NN   N  II  NN   N  G    G  !!!           |
|           W    W  A    A  R    R  N N  N  II  N N  N  G       !!!           |
|           W WW W  AAAAAA  RRRRR   N  N N  II  N  N N  G  GGG   !            |
|           WW  WW  A    A  R   R   N   NN  II  N   NN  G    G                |
|           W    W  A    A  R    R  N    N  II  N    N   GGGG   !!!           |
|                                                                             |
|     You use a magnetic or noncollinear calculation, but did not specify     |
|     the initial magnetic moment with the MAGMOM tag. Note that a            |
|     default of 1 will be used for all atoms. This ferromagnetic setup       |
|     may break the symmetry of the crystal, in particular it may rule        |
|     out finding an antiferromagnetic solution. Thence, we recommend         |
|     setting the initial magnetic moment manually or verifying carefully     |
|     that this magnetic setup is desired.                                    |
|                                                                             |
 -----------------------------------------------------------------------------

 scaLAPACK will be used
 Reading from existing POTCAR
 -----------------------------------------------------------------------------
|                                                                             |
|               ----> ADVICE to this user running VASP <----                  |
|                                                                             |
|     You have a (more or less) 'large supercell' and for larger cells it     |
|     might be more efficient to use real-space projection operators.         |
|     Therefore, try LREAL= Auto in the INCAR file.                           |
|     Mind: For very accurate calculation, you might also keep the            |
|     reciprocal projection scheme (i.e. LREAL=.FALSE.).                      |
|                                                                             |
 -----------------------------------------------------------------------------

 LDA part: xc-table for Pade appr. of Perdew
 -----------------------------------------------------------------------------
|                                                                             |
|           W    W    AA    RRRRR   N    N  II  N    N   GGGG   !!!           |
|           W    W   A  A   R    R  NN   N  II  NN   N  G    G  !!!           |
|           W    W  A    A  R    R  N N  N  II  N N  N  G       !!!           |
|           W WW W  AAAAAA  RRRRR   N  N N  II  N  N N  G  GGG   !            |
|           WW  WW  A    A  R   R   N   NN  II  N   NN  G    G                |
|           W    W  A    A  R    R  N    N  II  N    N   GGGG   !!!           |
|                                                                             |
|     The number of bands has been changed from the values supplied in        |
|     the INCAR file. This is a result of running the parallel version.       |
|     The orbitals not found in the WAVECAR file will be initialized with     |
|     random numbers, which is usually adequate. For correlated               |
|     calculations, however, you should redo the groundstate calculation.     |
|     I found NBANDS = 220. Now, NBANDS = 224.                                |
|                                                                             |
 -----------------------------------------------------------------------------

 POSCAR, INCAR and KPOINTS ok, starting setup
 FFT: planning ... GRIDC
 FFT: planning ... GRID_SOFT
 FFT: planning ... GRID
 WAVECAR not read
 WARNING: random wavefunctions but no delay for mixing, default for NELMDL
 entering main loop
       N       E                     dE             d eps       ncg     rms          rms(c)
DAV:   1     0.182012307101E+04    0.18201E+04   -0.14197E+05  7168   0.135E+03
DAV:   2    -0.637020638942E+02   -0.18838E+04   -0.18080E+04  8464   0.206E+02
DAV:   3    -0.281908371494E+03   -0.21821E+03   -0.21233E+03  8576   0.693E+01
DAV:   4    -0.289809654024E+03   -0.79013E+01   -0.78137E+01  8720   0.130E+01
DAV:   5    -0.290100413538E+03   -0.29076E+00   -0.28997E+00  9128   0.213E+00    0.292E+01
DAV:   6    -0.289788175727E+03    0.31224E+00   -0.26299E+01  7904   0.761E+00    0.173E+01
DAV:   7    -0.297240350044E+03   -0.74522E+01   -0.86945E+00  7968   0.455E+00    0.907E+00
DAV:   8    -0.300426076150E+03   -0.31857E+01   -0.17787E+00  8208   0.228E+00    0.323E+00
DAV:   9    -0.300783216582E+03   -0.35714E+00   -0.41209E-01  8992   0.102E+00    0.146E+00
DAV:  10    -0.300881297915E+03   -0.98081E-01   -0.90200E-02  8200   0.453E-01    0.724E-01
DAV:  11    -0.300912014544E+03   -0.30717E-01   -0.34962E-02  8736   0.280E-01    0.281E-01
DAV:  12    -0.300915328271E+03   -0.33137E-02   -0.45247E-03  8648   0.119E-01    0.103E-01
DAV:  13    -0.300915436988E+03   -0.10872E-03   -0.51882E-04  9792   0.358E-02    0.444E-02
DAV:  14    -0.300915452264E+03   -0.15276E-04   -0.86660E-05  8296   0.189E-02    0.166E-02
DAV:  15    -0.300915456240E+03   -0.39761E-05   -0.17104E-05  8544   0.937E-03    0.712E-03
DAV:  16    -0.300915457062E+03   -0.82240E-06   -0.15504E-06  4848   0.284E-03
   1 F= -.30091546E+03 E0= -.30091546E+03  d E =-.126928E-12  mag=     0.0005
