 running   32 mpi-ranks, with    1 threads/rank, on    2 nodes
 distrk:  each k-point on   16 cores,    2 groups
 distr:  one band on    1 cores,   16 groups
 vasp.6.4.2 20Jul23 (build Oct 12 2023 10:31:02) complex                         
 POSCAR found type information on POSCAR GeSe
 POSCAR found :  2 types and       4 ions
 Reading from existing POTCAR
 -----------------------------------------------------------------------------
|                                                                             |
|           W    W    AA    RRRRR   N    N  II  N    N   GGGG   !!!           |
|           W    W   A  A   R    R  NN   N  II  NN   N  G    G  !!!           |
|           W    W  A    A  R    R  N N  N  II  N N  N  G       !!!           |
|           W WW W  AAAAAA  RRRRR   N  N N  II  N  N N  G  GGG   !            |
|           WW  WW  A    A  R   R   N   NN  II  N   NN  G    G                |
|           W    W  A    A  R    R  N    N  II  N    N   GGGG   !!!           |
|                                                                             |
|     You use a magnetic or noncollinear calculation, but did not specify     |
|     the initial magnetic moment with the MAGMOM tag. Note that a            |
|     default of 1 will be used for all atoms. This ferromagnetic setup       |
|     may break the symmetry of the crystal, in particular it may rule        |
|     out finding an antiferromagnetic solution. Thence, we recommend         |
|     setting the initial magnetic moment manually or verifying carefully     |
|     that this magnetic setup is desired.                                    |
|                                                                             |
 -----------------------------------------------------------------------------

 scaLAPACK will be used
 Reading from existing POTCAR
 LDA part: xc-table for Pade appr. of Perdew
 -----------------------------------------------------------------------------
|                                                                             |
|           W    W    AA    RRRRR   N    N  II  N    N   GGGG   !!!           |
|           W    W   A  A   R    R  NN   N  II  NN   N  G    G  !!!           |
|           W    W  A    A  R    R  N N  N  II  N N  N  G       !!!           |
|           W WW W  AAAAAA  RRRRR   N  N N  II  N  N N  G  GGG   !            |
|           WW  WW  A    A  R   R   N   NN  II  N   NN  G    G                |
|           W    W  A    A  R    R  N    N  II  N    N   GGGG   !!!           |
|                                                                             |
|     The number of bands has been changed from the values supplied in        |
|     the INCAR file. This is a result of running the parallel version.       |
|     The orbitals not found in the WAVECAR file will be initialized with     |
|     random numbers, which is usually adequate. For correlated               |
|     calculations, however, you should redo the groundstate calculation.     |
|     I found NBANDS = 220. Now, NBANDS = 224.                                |
|                                                                             |
 -----------------------------------------------------------------------------

 POSCAR, INCAR and KPOINTS ok, starting setup
 FFT: planning ... GRIDC
 FFT: planning ... GRID_SOFT
 FFT: planning ... GRID
 WAVECAR not read
 WARNING: random wavefunctions but no delay for mixing, default for NELMDL
 entering main loop
       N       E                     dE             d eps       ncg     rms          rms(c)
DAV:   1     0.968647002880E+02    0.96865E+02   -0.39774E+03 28672   0.630E+01
DAV:   2    -0.114051876663E+02   -0.10827E+03   -0.96930E+02 34368   0.232E+01
DAV:   3    -0.162207018546E+02   -0.48155E+01   -0.47632E+01 34208   0.508E+00
DAV:   4    -0.162382600818E+02   -0.17558E-01   -0.17555E-01 33600   0.267E-01
DAV:   5    -0.162383097961E+02   -0.49714E-04   -0.49713E-04 32896   0.153E-02    0.684E+00
DAV:   6    -0.130006255559E+02    0.32377E+01   -0.31748E+00 31280   0.944E-01    0.435E+00
DAV:   7    -0.127464493717E+02    0.25418E+00   -0.22238E-01 30976   0.282E-01    0.274E+00
DAV:   8    -0.139345702980E+02   -0.11881E+01   -0.14123E-01 31984   0.261E-01    0.144E+00
DAV:   9    -0.149468243484E+02   -0.10123E+01   -0.13378E-01 31376   0.222E-01    0.986E-01
DAV:  10    -0.161169845716E+02   -0.11702E+01   -0.20265E-01 31696   0.265E-01    0.543E-01
DAV:  11    -0.166834467158E+02   -0.56646E+00   -0.59315E-02 32032   0.157E-01    0.234E-01
DAV:  12    -0.167124549216E+02   -0.29008E-01   -0.53460E-03 31776   0.528E-02    0.151E-01
DAV:  13    -0.167426111690E+02   -0.30156E-01   -0.28974E-03 30928   0.327E-02    0.826E-02
DAV:  14    -0.167503678332E+02   -0.77567E-02   -0.48865E-04 30624   0.155E-02    0.429E-02
DAV:  15    -0.167547653517E+02   -0.43975E-02   -0.17090E-04 30816   0.832E-03    0.210E-02
DAV:  16    -0.167580553404E+02   -0.32900E-02   -0.13573E-04 31520   0.719E-03    0.127E-02
DAV:  17    -0.167589950660E+02   -0.93973E-03   -0.38910E-05 31664   0.401E-03    0.822E-03
DAV:  18    -0.167596312041E+02   -0.63614E-03   -0.25091E-05 31440   0.353E-03    0.395E-03
DAV:  19    -0.167597361296E+02   -0.10493E-03   -0.39571E-06 31232   0.163E-03    0.233E-03
DAV:  20    -0.167597752590E+02   -0.39129E-04   -0.22136E-06 32000   0.116E-03    0.138E-03
DAV:  21    -0.167598210978E+02   -0.45839E-04   -0.15011E-06 31472   0.936E-04    0.757E-04
DAV:  22    -0.167598270771E+02   -0.59792E-05   -0.42924E-07 32896   0.573E-04    0.547E-04
DAV:  23    -0.167598308623E+02   -0.37853E-05   -0.38502E-07 32352   0.570E-04    0.398E-04
DAV:  24    -0.167598302788E+02    0.58351E-06   -0.26319E-07 32752   0.476E-04
   1 F= -.16759830E+02 E0= -.16759830E+02  d E =-.129802E-11  mag=     0.0001
 writing wavefunctions
