 vasp.6.4.2 20Jul23 (build Oct 12 2023 10:31:02) complex                         
 executed on              LinuxNV date 2025.05.18  11:53:32
 running  160 mpi-ranks, with    1 threads/rank, on   10 nodes
 distrk:  each k-point on   80 cores,    2 groups
 distr:  one band on NCORE=   5 cores,   16 groups


--------------------------------------------------------------------------------------------------------


 INCAR:
   ENCUT = 520.000000
   SIGMA = 0.050000
   EDIFF = 1.00e-06
   ALGO = Normal
   GGA = PE
   PREC = Normal
   SYSTEM = ./
   ICHARG = 2
   ISMEAR = 0
   ISPIN = 1
   ISTART = 0
   ISYM = 0
   KPAR = 2
   LMAXMIX = 4
   NELM = 100
   NPAR = 16
   LASPH = .TRUE.
   LCHARG = .FALSE.
   LWAVE = .FALSE.

 POTCAR:    PAW_PBE Ge 05Jan2001                  
 POTCAR:    PAW_PBE Se 06Sep2000                  
 POTCAR:    PAW_PBE Ge 05Jan2001                  
   VRHFIN =Ge: s2p2                                                                                 
   LEXCH  = PE                                                                                      
   EATOM  =   104.9960 eV,    7.7170 Ry                                                             
                                                                                                    
   TITEL  = PAW_PBE Ge 05Jan2001                                                                    
   LULTRA =        F    use ultrasoft PP ?                                                          
   IUNSCR =        1    unscreen: 0-lin 1-nonlin 2-no                                               
   RPACOR =    2.170    partial core radius                                                         
   POMASS =   72.610; ZVAL   =    4.000    mass and valenz                                          
   RCORE  =    2.300    outmost cutoff radius                                                       
   RWIGS  =    2.300; RWIGS  =    1.217    wigner-seitz radius (au A)                               
   ENMAX  =  173.807; ENMIN  =  130.355 eV                                                          
   ICORE  =        3    local potential                                                             
   LCOR   =        T    correct aug charges                                                         
   LPAW   =        T    paw PP                                                                      
   EAUG   =  385.843                                                                                
   DEXC   =    0.000                                                                                
   RMAX   =    2.342    core radius for proj-oper                                                   
   RAUG   =    1.300    factor for augmentation sphere                                              
   RDEP   =    2.318    radius for radial grids                                                     
   RDEPT  =    2.103    core radius for aug-charge                                                  
                                                                                                    
   Atomic configuration                                                                             
   10 entries                                                                                       
     n  l   j            E        occ.                                                              
     1  0  0.50    -10959.8463   2.0000                                                             
     2  0  0.50     -1371.6056   2.0000                                                             
     2  1  1.50     -1198.4791   6.0000                                                             
     3  0  0.50      -168.4733   2.0000                                                             
     3  1  1.50      -115.6019   6.0000                                                             
     3  2  2.50       -29.3106  10.0000                                                             
     4  0  0.50       -11.7309   2.0000                                                             
     4  1  0.50        -3.8952   2.0000                                                             
     4  2  1.50        -4.0817   0.0000                                                             
     4  3  2.50        -4.0817   0.0000                                                             
   Description                                                                                      
     l       E           TYP  RCUT    TYP  RCUT                                                     
     0    -11.7309493     23  2.300                                                                 
     0     -7.4578696     23  2.300                                                                 
     1     -3.8952261     23  2.300                                                                 
     1      6.1178114     23  2.300                                                                 
     2     -4.0817478     23  2.300                                                                 
     3     -1.3605826      7  2.300                                                                 
  local pseudopotential read in
  partial core-charges read in
  partial kinetic energy density read in
  atomic valenz-charges read in
  non local Contribution for L=            0  read in
    real space projection operators read in
  non local Contribution for L=            0  read in
    real space projection operators read in
  non local Contribution for L=            1  read in
    real space projection operators read in
  non local Contribution for L=            1  read in
    real space projection operators read in
  non local Contribution for L=            2  read in
    real space projection operators read in
    PAW grid and wavefunctions read in
 
   number of l-projection  operators is LMAX  =            5
   number of lm-projection operators is LMMAX =           13
 
 POTCAR:    PAW_PBE Se 06Sep2000                  
   VRHFIN =Se: s2p4                                                                                 
   LEXCH  = PE                                                                                      
   EATOM  =   257.1286 eV,   18.8984 Ry                                                             
                                                                                                    
   TITEL  = PAW_PBE Se 06Sep2000                                                                    
   LULTRA =        F    use ultrasoft PP ?                                                          
   IUNSCR =        1    unscreen: 0-lin 1-nonlin 2-no                                               
   RPACOR =    1.900    partial core radius                                                         
   POMASS =   78.960; ZVAL   =    6.000    mass and valenz                                          
   RCORE  =    2.100    outmost cutoff radius                                                       
   RWIGS  =    2.200; RWIGS  =    1.164    wigner-seitz radius (au A)                               
   ENMAX  =  211.555; ENMIN  =  158.666 eV                                                          
   ICORE  =        3    local potential                                                             
   LCOR   =        T    correct aug charges                                                         
   LPAW   =        T    paw PP                                                                      
   EAUG   =  446.842                                                                                
   DEXC   =    0.000                                                                                
   RMAX   =    2.147    core radius for proj-oper                                                   
   RAUG   =    1.300    factor for augmentation sphere                                              
   RDEP   =    2.177    radius for radial grids                                                     
   RDEPT  =    1.928    core radius for aug-charge                                                  
                                                                                                    
   Atomic configuration                                                                             
   10 entries                                                                                       
     n  l   j            E        occ.                                                              
     1  0  0.50    -12503.4787   2.0000                                                             
     2  0  0.50     -1606.9547   2.0000                                                             
     2  1  1.50     -1413.3140   6.0000                                                             
     3  0  0.50      -213.4885   2.0000                                                             
     3  1  1.50      -152.9538   6.0000                                                             
     3  2  2.50       -53.1221  10.0000                                                             
     4  0  0.50       -17.2865   2.0000                                                             
     4  1  0.50        -6.5110   4.0000                                                             
     4  2  2.50        -6.8029   0.0000                                                             
     4  3  2.50        -6.8029   0.0000                                                             
   Description                                                                                      
     l       E           TYP  RCUT    TYP  RCUT                                                     
     0    -17.2865377     23  2.100                                                                 
     0    -15.3094411     23  2.100                                                                 
     1     -6.5110275     23  2.100                                                                 
     1     -0.0695192     23  2.100                                                                 
     2     -6.8029130     23  2.100                                                                 
     3     -1.3605826      7  2.100                                                                 
  local pseudopotential read in
  partial core-charges read in
  partial kinetic energy density read in
  atomic valenz-charges read in
  non local Contribution for L=            0  read in
    real space projection operators read in
  non local Contribution for L=            0  read in
    real space projection operators read in
  non local Contribution for L=            1  read in
    real space projection operators read in
  non local Contribution for L=            1  read in
    real space projection operators read in
  non local Contribution for L=            2  read in
    real space projection operators read in
    PAW grid and wavefunctions read in
 
   number of l-projection  operators is LMAX  =            5
   number of lm-projection operators is LMMAX =           13
 
  PAW_PBE Ge 05Jan2001                  :
 energy of atom  1       EATOM= -104.9960
 kinetic energy error for atom=    0.0002 (will be added to EATOM!!)
  PAW_PBE Se 06Sep2000                  :
 energy of atom  2       EATOM= -257.1286
 kinetic energy error for atom=    0.0007 (will be added to EATOM!!)
 
 
 POSCAR: Ge Se
  positions in cartesian coordinates
  No initial velocities read in
 exchange correlation table for  LEXCH =        8
   RHO(1)=    0.500       N(1)  =     2000
   RHO(2)=  100.500       N(2)  =     4000
 


--------------------------------------------------------------------------------------------------------


 ion  position               nearest neighbor table
   1  0.772  0.752  0.123-   6 2.60   6 2.60   5 2.60   3 2.79
   2  0.272  0.252  0.377-   5 2.60   5 2.60   6 2.60   4 2.79
   3  0.750  0.886  0.877-   8 2.60   8 2.60   7 2.60   1 2.79
   4  0.250  0.386  0.623-   7 2.60   7 2.60   8 2.60   2 2.79
   5  0.772  0.631  0.352-   2 2.60   2 2.60   1 2.60
   6  0.272  0.131  0.148-   1 2.60   1 2.60   2 2.60
   7  0.750  0.007  0.648-   4 2.60   4 2.60   3 2.60
   8  0.250  0.507  0.852-   3 2.60   3 2.60   4 2.60
 

IMPORTANT INFORMATION: All symmetrisations will be switched off!
NOSYMM: (Re-)initialisation of all symmetry stuff for point group C_1.


----------------------------------------------------------------------------------------

                                     Primitive cell                                     

  volume of cell :     193.5913

  direct lattice vectors                    reciprocal lattice vectors
     3.858100176  0.000000000  0.000000000     0.259194929  0.000000000  0.000000000
     0.000000000  4.526575088  0.000000000     0.000000000  0.220917577  0.000000000
     0.000000000  0.000000000 11.085176468     0.000000000  0.000000000  0.090210562

  length of vectors
     3.858100176  4.526575088 11.085176468     0.259194929  0.220917577  0.090210562

  position of ions in fractional coordinates (direct lattice)
     0.771739130  0.751801594  0.122982664
     0.271739130  0.251801594  0.377017336
     0.750000000  0.885879566  0.877017336
     0.250000000  0.385879566  0.622982664
     0.771739130  0.630991048  0.352381810
     0.271739130  0.130991048  0.147618190
     0.750000000  0.006690111  0.647618190
     0.250000000  0.506690111  0.852381810

  ion indices of the primitive-cell ions
   primitive index   ion index
                 1           1
                 2           2
                 3           3
                 4           4
                 5           5
                 6           6
                 7           7
                 8           8

----------------------------------------------------------------------------------------

 
 
 KPOINTS: KPOINTS created by Atomic Simulation Env

Automatic generation of k-mesh.
 Grid dimensions read from file:
 generate k-points for:    6    6    2

 Generating k-lattice:

  Cartesian coordinates                     Fractional coordinates (reciprocal lattice)
     0.043199155  0.000000000  0.000000000     0.166666667  0.000000000  0.000000000
     0.000000000  0.036819596  0.000000000     0.000000000  0.166666667  0.000000000
     0.000000000  0.000000000  0.045105281     0.000000000  0.000000000  0.500000000

  Length of vectors
     0.043199155  0.036819596  0.045105281

  Shift w.r.t. Gamma in fractional coordinates (k-lattice)
     0.000000000  0.000000000  0.000000000

 
 Subroutine IBZKPT returns following result:
 ===========================================
 
 Found     40 irreducible k-points:
 
 Following reciprocal coordinates:
            Coordinates               Weight
  0.000000  0.000000  0.000000      1.000000
  0.166667  0.000000  0.000000      2.000000
  0.333333  0.000000  0.000000      2.000000
  0.500000  0.000000  0.000000      1.000000
  0.000000  0.166667  0.000000      2.000000
  0.166667  0.166667  0.000000      2.000000
  0.166667 -0.166667  0.000000      2.000000
  0.333333  0.166667  0.000000      2.000000
  0.333333 -0.166667  0.000000      2.000000
  0.500000  0.166667  0.000000      2.000000
  0.000000  0.333333  0.000000      2.000000
  0.166667  0.333333  0.000000      2.000000
  0.166667 -0.333333  0.000000      2.000000
  0.333333  0.333333  0.000000      2.000000
  0.333333 -0.333333  0.000000      2.000000
  0.500000  0.333333  0.000000      2.000000
  0.000000  0.500000  0.000000      1.000000
  0.166667  0.500000  0.000000      2.000000
  0.333333  0.500000  0.000000      2.000000
  0.500000  0.500000  0.000000      1.000000
  0.000000  0.000000  0.500000      1.000000
  0.166667  0.000000  0.500000      2.000000
  0.333333  0.000000  0.500000      2.000000
  0.500000  0.000000  0.500000      1.000000
  0.000000  0.166667  0.500000      2.000000
  0.166667  0.166667  0.500000      2.000000
  0.166667 -0.166667  0.500000      2.000000
  0.333333  0.166667  0.500000      2.000000
  0.333333 -0.166667  0.500000      2.000000
  0.500000  0.166667  0.500000      2.000000
  0.000000  0.333333  0.500000      2.000000
  0.166667  0.333333  0.500000      2.000000
  0.166667 -0.333333  0.500000      2.000000
  0.333333  0.333333  0.500000      2.000000
  0.333333 -0.333333  0.500000      2.000000
  0.500000  0.333333  0.500000      2.000000
  0.000000  0.500000  0.500000      1.000000
  0.166667  0.500000  0.500000      2.000000
  0.333333  0.500000  0.500000      2.000000
  0.500000  0.500000  0.500000      1.000000
 
 Following cartesian coordinates:
            Coordinates               Weight
  0.000000  0.000000  0.000000      1.000000
  0.043199  0.000000  0.000000      2.000000
  0.086398  0.000000  0.000000      2.000000
  0.129597  0.000000  0.000000      1.000000
  0.000000  0.036820  0.000000      2.000000
  0.043199  0.036820  0.000000      2.000000
  0.043199 -0.036820  0.000000      2.000000
  0.086398  0.036820  0.000000      2.000000
  0.086398 -0.036820  0.000000      2.000000
  0.129597  0.036820  0.000000      2.000000
  0.000000  0.073639  0.000000      2.000000
  0.043199  0.073639  0.000000      2.000000
  0.043199 -0.073639  0.000000      2.000000
  0.086398  0.073639  0.000000      2.000000
  0.086398 -0.073639  0.000000      2.000000
  0.129597  0.073639  0.000000      2.000000
  0.000000  0.110459  0.000000      1.000000
  0.043199  0.110459  0.000000      2.000000
  0.086398  0.110459  0.000000      2.000000
  0.129597  0.110459  0.000000      1.000000
  0.000000  0.000000  0.045105      1.000000
  0.043199  0.000000  0.045105      2.000000
  0.086398  0.000000  0.045105      2.000000
  0.129597  0.000000  0.045105      1.000000
  0.000000  0.036820  0.045105      2.000000
  0.043199  0.036820  0.045105      2.000000
  0.043199 -0.036820  0.045105      2.000000
  0.086398  0.036820  0.045105      2.000000
  0.086398 -0.036820  0.045105      2.000000
  0.129597  0.036820  0.045105      2.000000
  0.000000  0.073639  0.045105      2.000000
  0.043199  0.073639  0.045105      2.000000
  0.043199 -0.073639  0.045105      2.000000
  0.086398  0.073639  0.045105      2.000000
  0.086398 -0.073639  0.045105      2.000000
  0.129597  0.073639  0.045105      2.000000
  0.000000  0.110459  0.045105      1.000000
  0.043199  0.110459  0.045105      2.000000
  0.086398  0.110459  0.045105      2.000000
  0.129597  0.110459  0.045105      1.000000
 


--------------------------------------------------------------------------------------------------------




 Dimension of arrays:
   k-points           NKPTS =     40   k-points in BZ     NKDIM =     40   number of bands    NBANDS=     32
   number of dos      NEDOS =    301   number of ions     NIONS =      8
   non local maximal  LDIM  =      5   non local SUM 2l+1 LMDIM =     13
   total plane-waves  NPLWV =  43008
   max r-space proj   IRMAX =      1   max aug-charges    IRDMAX=  12272
   dimension x,y,z NGX =    24 NGY =   28 NGZ =   64
   dimension x,y,z NGXF=    48 NGYF=   56 NGZF=  128
   support grid    NGXF=    48 NGYF=   56 NGZF=  128
   ions per type =               4   4
   NGX,Y,Z   is equivalent  to a cutoff of  10.34, 10.28,  9.60 a.u.
   NGXF,Y,Z  is equivalent  to a cutoff of  20.68, 20.57, 19.20 a.u.

 SYSTEM =  ./                                      
 POSCAR =  Ge Se                                   

 Startparameter for this run:
   NWRITE =      2    write-flag & timer
   PREC   = normal    normal or accurate (medium, high low for compatibility)
   ISTART =      0    job   : 0-new  1-cont  2-samecut
   ICHARG =      2    charge: 1-file 2-atom 10-const
   ISPIN  =      1    spin polarized calculation?
   LNONCOLLINEAR =      F non collinear calculations
   LSORBIT =      F    spin-orbit coupling
   INIWAV =      1    electr: 0-lowe 1-rand  2-diag
   LASPH  =      T    aspherical Exc in radial PAW
 Electronic Relaxation 1
   ENCUT  =  520.0 eV  38.22 Ry    6.18 a.u.   7.17  8.42 20.61*2*pi/ulx,y,z
   ENINI  =  520.0     initial cutoff
   ENAUG  =  446.8 eV  augmentation charge cutoff
   NELM   =    100;   NELMIN=  2; NELMDL= -5     # of ELM steps 
   EDIFF  = 0.1E-05   stopping-criterion for ELM
   LREAL  =      F    real-space projection
   NLSPLINE    = F    spline interpolate recip. space projectors
   LCOMPAT=      F    compatible to vasp.4.4
   GGA_COMPAT  = T    GGA compatible to vasp.4.4-vasp.4.6
   LMAXPAW     = -100 max onsite density
   LMAXMIX     =    4 max onsite mixed and CHGCAR
   VOSKOWN=      0    Vosko Wilk Nusair interpolation
   ROPT   =    0.00000   0.00000
 Ionic relaxation
   EDIFFG = 0.1E-04   stopping-criterion for IOM
   NSW    =      0    number of steps for IOM
   NBLOCK =      1;   KBLOCK =      1    inner block; outer block 
   IBRION =     -1    ionic relax: 0-MD 1-quasi-New 2-CG
   NFREE  =      0    steps in history (QN), initial steepest desc. (CG)
   ISIF   =      2    stress and relaxation
   IWAVPR =     10    prediction:  0-non 1-charg 2-wave 3-comb
   ISYM   =      0    0-nonsym 1-usesym 2-fastsym
   LCORR  =      T    Harris-Foulkes like correction to forces

   POTIM  = 0.5000    time-step for ionic-motion
   TEIN   =    0.0    initial temperature
   TEBEG  =    0.0;   TEEND  =   0.0 temperature during run
   SMASS  =  -3.00    Nose mass-parameter (am)
   estimated Nose-frequenzy (Omega)   =  0.10E-29 period in steps = 0.13E+47 mass=  -0.340E-27a.u.
   SCALEE = 1.0000    scale energy and forces
   NPACO  =    256;   APACO  = 10.0  distance and # of slots for P.C.
   PSTRESS=    0.0 pullay stress

  Mass of Ions in am
   POMASS =  72.61 78.96
  Ionic Valenz
   ZVAL   =   4.00  6.00
  Atomic Wigner-Seitz radii
   RWIGS  =  -1.00 -1.00
  virtual crystal weights 
   VCA    =   1.00  1.00
   NELECT =      40.0000    total number of electrons
   NUPDOWN=      -1.0000    fix difference up-down

 DOS related values:
   EMIN   =  10.00;   EMAX   =-10.00  energy-range for DOS
   EFERMI =   0.00;   METHOD = LEGACY      
   ISMEAR =     0;   SIGMA  =   0.05  broadening in eV -4-tet -1-fermi 0-gaus

 Electronic relaxation 2 (details)
   IALGO  =     38    algorithm
   LDIAG  =      T    sub-space diagonalisation (order eigenvalues)
   LSUBROT=      F    optimize rotation matrix (better conditioning)
   TURBO    =      0    0=normal 1=particle mesh
   IRESTART =      0    0=no restart 2=restart with 2 vectors
   NREBOOT  =      0    no. of reboots
   NMIN     =      0    reboot dimension
   EREF     =   0.00    reference energy to select bands
   IMIX   =      4    mixing-type and parameters
     AMIX     =   0.40;   BMIX     =  1.00
     AMIX_MAG =   1.60;   BMIX_MAG =  1.00
     AMIN     =   0.10
     WC   =   100.;   INIMIX=   1;  MIXPRE=   1;  MAXMIX= -45

 Intra band minimization:
   WEIMIN = 0.0000     energy-eigenvalue tresh-hold
   EBREAK =  0.78E-08  absolut break condition
   DEPER  =   0.30     relativ break condition  

   TIME   =   0.40     timestep for ELM

  volume/ion in A,a.u.               =      24.20       163.30
  Fermi-wavevector in a.u.,A,eV,Ry     =   0.967831  1.828935 12.744535  0.936697
  Thomas-Fermi vector in A             =   2.097750
 
 Write flags
   LWAVE        =      F    write WAVECAR
   LDOWNSAMPLE  =      F    k-point downsampling of WAVECAR
   LCHARG       =      F    write CHGCAR
   LVTOT        =      F    write LOCPOT, total local potential
   LVHAR        =      F    write LOCPOT, Hartree potential only
   LELF         =      F    write electronic localiz. function (ELF)
   LORBIT       =      0    0 simple, 1 ext, 2 COOP (PROOUT), +10 PAW based schemes


 Dipole corrections
   LMONO  =      F    monopole corrections only (constant potential shift)
   LDIPOL =      F    correct potential (dipole corrections)
   IDIPOL =      0    1-x, 2-y, 3-z, 4-all directions 
   EPSILON=  1.0000000 bulk dielectric constant

 Exchange correlation treatment:
   GGA     =    PE    GGA type
   LEXCH   =     8    internal setting for exchange type
   LIBXC   =     F    Libxc                    
   VOSKOWN =     0    Vosko Wilk Nusair interpolation
   LHFCALC =     F    Hartree Fock is set to
   LHFONE  =     F    Hartree Fock one center treatment
   AEXX    =    0.0000 exact exchange contribution

 Linear response parameters
   LEPSILON=     F    determine dielectric tensor
   LRPA    =     F    only Hartree local field effects (RPA)
   LNABLA  =     F    use nabla operator in PAW spheres
   LVEL    =     F    velocity operator in full k-point grid
   CSHIFT  =0.1000    complex shift for real part using Kramers Kronig
   OMEGAMAX=  -1.0    maximum frequency
   DEG_THRESHOLD= 0.2000000E-02 threshold for treating states as degnerate
   RTIME   =   -0.100 relaxation time in fs
  (WPLASMAI=    0.000 imaginary part of plasma frequency in eV, 0.658/RTIME)
   DFIELD  = 0.0000000 0.0000000 0.0000000 field for delta impulse in time
 
  Optional k-point grid parameters
   LKPOINTS_OPT  =     F    use optional k-point grid
   KPOINTS_OPT_MODE=     1    mode for optional k-point grid
 
 Orbital magnetization related:
   ORBITALMAG=     F  switch on orbital magnetization
   LCHIMAG   =     F  perturbation theory with respect to B field
   DQ        =  0.001000  dq finite difference perturbation B field
   LLRAUG    =     F  two centre corrections for induced B field
   LBONE     =     F  B-component reconstruction in AE one-centre
   LVGVCALC  =     T  calculate vGv susceptibility
   LVGVAPPL  =     F  apply vGv susceptibility instead of pGv for G=0

 Random number generation:
   RANDOM_GENERATOR = DEFAULT
   PCG_SEED         = not used


--------------------------------------------------------------------------------------------------------


 Static calculation
 charge density and potential will be updated during run
 non-spin polarized calculation
 Variant of blocked Davidson
 Davidson routine will perform the subspace rotation
 perform sub-space diagonalisation
    after iterative eigenvector-optimisation
 modified Broyden-mixing scheme, WC =      100.0
 initial mixing is a Kerker type mixing with AMIX =  0.4000 and BMIX =      1.0000
 Hartree-type preconditioning will be used
 using additional bands            12
 reciprocal scheme for non local part
 use partial core corrections
 calculate Harris-corrections to forces 
   (improved forces if not selfconsistent)
 use gradient corrections 
 use of overlap-Matrix (Vanderbilt PP)
 Gauss-broadening in eV      SIGMA  =   0.05


--------------------------------------------------------------------------------------------------------


  energy-cutoff  :      520.00
  volume of cell :      193.59
      direct lattice vectors                 reciprocal lattice vectors
     3.858100176  0.000000000  0.000000000     0.259194929  0.000000000  0.000000000
     0.000000000  4.526575088  0.000000000     0.000000000  0.220917577  0.000000000
     0.000000000  0.000000000 11.085176468     0.000000000  0.000000000  0.090210562

  length of vectors
     3.858100176  4.526575088 11.085176468     0.259194929  0.220917577  0.090210562


 
 k-points in units of 2pi/SCALE and weight: KPOINTS created by Atomic Simulation Env
   0.00000000  0.00000000  0.00000000       0.014
   0.04319915  0.00000000  0.00000000       0.028
   0.08639831  0.00000000  0.00000000       0.028
   0.12959746  0.00000000  0.00000000       0.014
   0.00000000  0.03681960  0.00000000       0.028
   0.04319915  0.03681960  0.00000000       0.028
   0.04319915 -0.03681960  0.00000000       0.028
   0.08639831  0.03681960  0.00000000       0.028
   0.08639831 -0.03681960  0.00000000       0.028
   0.12959746  0.03681960  0.00000000       0.028
   0.00000000  0.07363919  0.00000000       0.028
   0.04319915  0.07363919  0.00000000       0.028
   0.04319915 -0.07363919  0.00000000       0.028
   0.08639831  0.07363919  0.00000000       0.028
   0.08639831 -0.07363919  0.00000000       0.028
   0.12959746  0.07363919  0.00000000       0.028
   0.00000000  0.11045879  0.00000000       0.014
   0.04319915  0.11045879  0.00000000       0.028
   0.08639831  0.11045879  0.00000000       0.028
   0.12959746  0.11045879  0.00000000       0.014
   0.00000000  0.00000000  0.04510528       0.014
   0.04319915  0.00000000  0.04510528       0.028
   0.08639831  0.00000000  0.04510528       0.028
   0.12959746  0.00000000  0.04510528       0.014
   0.00000000  0.03681960  0.04510528       0.028
   0.04319915  0.03681960  0.04510528       0.028
   0.04319915 -0.03681960  0.04510528       0.028
   0.08639831  0.03681960  0.04510528       0.028
   0.08639831 -0.03681960  0.04510528       0.028
   0.12959746  0.03681960  0.04510528       0.028
   0.00000000  0.07363919  0.04510528       0.028
   0.04319915  0.07363919  0.04510528       0.028
   0.04319915 -0.07363919  0.04510528       0.028
   0.08639831  0.07363919  0.04510528       0.028
   0.08639831 -0.07363919  0.04510528       0.028
   0.12959746  0.07363919  0.04510528       0.028
   0.00000000  0.11045879  0.04510528       0.014
   0.04319915  0.11045879  0.04510528       0.028
   0.08639831  0.11045879  0.04510528       0.028
   0.12959746  0.11045879  0.04510528       0.014
 
 k-points in reciprocal lattice and weights: KPOINTS created by Atomic Simulation Env
   0.00000000  0.00000000  0.00000000       0.014
   0.16666667  0.00000000  0.00000000       0.028
   0.33333333  0.00000000  0.00000000       0.028
   0.50000000  0.00000000  0.00000000       0.014
   0.00000000  0.16666667  0.00000000       0.028
   0.16666667  0.16666667  0.00000000       0.028
   0.16666667 -0.16666667  0.00000000       0.028
   0.33333333  0.16666667  0.00000000       0.028
   0.33333333 -0.16666667  0.00000000       0.028
   0.50000000  0.16666667  0.00000000       0.028
   0.00000000  0.33333333  0.00000000       0.028
   0.16666667  0.33333333  0.00000000       0.028
   0.16666667 -0.33333333  0.00000000       0.028
   0.33333333  0.33333333  0.00000000       0.028
   0.33333333 -0.33333333  0.00000000       0.028
   0.50000000  0.33333333  0.00000000       0.028
   0.00000000  0.50000000  0.00000000       0.014
   0.16666667  0.50000000  0.00000000       0.028
   0.33333333  0.50000000  0.00000000       0.028
   0.50000000  0.50000000  0.00000000       0.014
   0.00000000  0.00000000  0.50000000       0.014
   0.16666667  0.00000000  0.50000000       0.028
   0.33333333  0.00000000  0.50000000       0.028
   0.50000000  0.00000000  0.50000000       0.014
   0.00000000  0.16666667  0.50000000       0.028
   0.16666667  0.16666667  0.50000000       0.028
   0.16666667 -0.16666667  0.50000000       0.028
   0.33333333  0.16666667  0.50000000       0.028
   0.33333333 -0.16666667  0.50000000       0.028
   0.50000000  0.16666667  0.50000000       0.028
   0.00000000  0.33333333  0.50000000       0.028
   0.16666667  0.33333333  0.50000000       0.028
   0.16666667 -0.33333333  0.50000000       0.028
   0.33333333  0.33333333  0.50000000       0.028
   0.33333333 -0.33333333  0.50000000       0.028
   0.50000000  0.33333333  0.50000000       0.028
   0.00000000  0.50000000  0.50000000       0.014
   0.16666667  0.50000000  0.50000000       0.028
   0.33333333  0.50000000  0.50000000       0.028
   0.50000000  0.50000000  0.50000000       0.014
 
 position of ions in fractional coordinates (direct lattice) 
   0.77173913  0.75180159  0.12298266
   0.27173913  0.25180159  0.37701734
   0.75000000  0.88587957  0.87701734
   0.25000000  0.38587957  0.62298266
   0.77173913  0.63099105  0.35238181
   0.27173913  0.13099105  0.14761819
   0.75000000  0.00669011  0.64761819
   0.25000000  0.50669011  0.85238181
 
 position of ions in cartesian coordinates  (Angst):
   2.97744687  3.40308637  1.36328454
   1.04839679  1.13979882  4.17930370
   2.89357513  4.01000037  9.72189193
   0.96452504  1.74671283  6.90587277
   2.97744687  2.85622836  3.90621455
   1.04839679  0.59294082  1.63637368
   2.89357513  0.03028329  7.17896192
   0.96452504  2.29357083  9.44880278
 


--------------------------------------------------------------------------------------------------------


 k-point   1 :   0.0000 0.0000 0.0000  plane waves:    5211
 k-point   2 :   0.1667 0.0000 0.0000  plane waves:    5225
 k-point   3 :   0.3333 0.0000 0.0000  plane waves:    5224
 k-point   4 :   0.5000 0.0000 0.0000  plane waves:    5258
 k-point   5 :   0.0000 0.1667 0.0000  plane waves:    5209
 k-point   6 :   0.1667 0.1667 0.0000  plane waves:    5201
 k-point   7 :   0.1667-0.1667 0.0000  plane waves:    5201
 k-point   8 :   0.3333 0.1667 0.0000  plane waves:    5230
 k-point   9 :   0.3333-0.1667 0.0000  plane waves:    5230
 k-point  10 :   0.5000 0.1667 0.0000  plane waves:    5236
 k-point  11 :   0.0000 0.3333 0.0000  plane waves:    5213
 k-point  12 :   0.1667 0.3333 0.0000  plane waves:    5199
 k-point  13 :   0.1667-0.3333 0.0000  plane waves:    5199
 k-point  14 :   0.3333 0.3333 0.0000  plane waves:    5211
 k-point  15 :   0.3333-0.3333 0.0000  plane waves:    5211
 k-point  16 :   0.5000 0.3333 0.0000  plane waves:    5230
 k-point  17 :   0.0000 0.5000 0.0000  plane waves:    5220
 k-point  18 :   0.1667 0.5000 0.0000  plane waves:    5208
 k-point  19 :   0.3333 0.5000 0.0000  plane waves:    5230
 k-point  20 :   0.5000 0.5000 0.0000  plane waves:    5180
 k-point  21 :   0.0000 0.0000 0.5000  plane waves:    5210
 k-point  22 :   0.1667 0.0000 0.5000  plane waves:    5178
 k-point  23 :   0.3333 0.0000 0.5000  plane waves:    5214
 k-point  24 :   0.5000 0.0000 0.5000  plane waves:    5232
 k-point  25 :   0.0000 0.1667 0.5000  plane waves:    5224
 k-point  26 :   0.1667 0.1667 0.5000  plane waves:    5210
 k-point  27 :   0.1667-0.1667 0.5000  plane waves:    5210
 k-point  28 :   0.3333 0.1667 0.5000  plane waves:    5196
 k-point  29 :   0.3333-0.1667 0.5000  plane waves:    5196
 k-point  30 :   0.5000 0.1667 0.5000  plane waves:    5224
 k-point  31 :   0.0000 0.3333 0.5000  plane waves:    5202
 k-point  32 :   0.1667 0.3333 0.5000  plane waves:    5214
 k-point  33 :   0.1667-0.3333 0.5000  plane waves:    5214
 k-point  34 :   0.3333 0.3333 0.5000  plane waves:    5216
 k-point  35 :   0.3333-0.3333 0.5000  plane waves:    5216
 k-point  36 :   0.5000 0.3333 0.5000  plane waves:    5216
 k-point  37 :   0.0000 0.5000 0.5000  plane waves:    5212
 k-point  38 :   0.1667 0.5000 0.5000  plane waves:    5192
 k-point  39 :   0.3333 0.5000 0.5000  plane waves:    5208
 k-point  40 :   0.5000 0.5000 0.5000  plane waves:    5208

 maximum and minimum number of plane-waves per node :      1076     1017

 maximum number of plane-waves:      5258
 maximum index in each direction: 
   IXMAX=    7   IYMAX=    8   IZMAX=   20
   IXMIN=   -7   IYMIN=   -8   IZMIN=  -21


 parallel 3D FFT for wavefunctions:
    minimum data exchange during FFTs selected (reduces bandwidth)
 parallel 3D FFT for charge:
    minimum data exchange during FFTs selected (reduces bandwidth)


 total amount of memory used by VASP MPI-rank0    41770. kBytes
=======================================================================

   base      :      30000. kBytes
   nonl-proj :       9056. kBytes
   fftplans  :        519. kBytes
   grid      :        766. kBytes
   one-center:         16. kBytes
   wavefun   :       1413. kBytes
 
     INWAV:  cpu time      0.0000: real time      0.0001
 Broyden mixing: mesh for mixing (old mesh)
   NGX = 15   NGY = 17   NGZ = 41
  (NGX  = 48   NGY  = 56   NGZ  =128)
  gives a total of  10455 points

 initial charge density was supplied:
 charge density of overlapping atoms calculated
 number of electron      40.0000000 magnetization 
 keeping initial charge density in first step


--------------------------------------------------------------------------------------------------------


 Maximum index for augmentation-charges           262 (set IRDMAX)


--------------------------------------------------------------------------------------------------------


 First call to EWALD:  gamma=   0.306
 Maximum number of real-space cells 4x 3x 2
 Maximum number of reciprocal cells 2x 2x 5

    FEWALD:  cpu time      0.0011: real time      0.0011


--------------------------------------- Ionic step        1  -------------------------------------------




--------------------------------------- Iteration      1(   1)  ---------------------------------------


    POTLOK:  cpu time      0.0110: real time      0.0111
    SETDIJ:  cpu time      0.2162: real time      0.2185
     EDDAV:  cpu time      0.3474: real time      0.3494
       DOS:  cpu time      0.0011: real time      0.0012
    --------------------------------------------
      LOOP:  cpu time      0.5758: real time      0.5801

 eigenvalue-minimisations  :  2560
 total energy-change (2. order) : 0.1633134E+03  (-0.1589809E+04)
 number of electron      40.0000000 magnetization 
 augmentation part       40.0000000 magnetization 

 Free energy of the ion-electron system (eV)
  ---------------------------------------------------
  alpha Z        PSCENC =        87.52689448
  Ewald energy   TEWEN  =     -1416.55681158
  -Hartree energ DENC   =      -128.93352592
  -exchange      EXHF   =         0.00000000
  -V(xc)+E(xc)   XCENC  =       -33.26022523
  PAW double counting   =      1193.78262552    -1080.73714043
  entropy T*S    EENTRO =        -0.00159906
  eigenvalues    EBANDS =        92.99854117
  atomic energy  EATOM  =      1448.49460871
  Solvation  Ediel_sol  =         0.00000000
  ---------------------------------------------------
  free energy    TOTEN  =       163.31336766 eV

  energy without entropy =      163.31496671  energy(sigma->0) =      163.31416718


--------------------------------------------------------------------------------------------------------




--------------------------------------- Iteration      1(   2)  ---------------------------------------


     EDDAV:  cpu time      0.4814: real time      0.4863
       DOS:  cpu time      0.0008: real time      0.0008
    --------------------------------------------
      LOOP:  cpu time      0.4821: real time      0.4870

 eigenvalue-minimisations  :  3600
 total energy-change (2. order) :-0.1859124E+03  (-0.1804543E+03)
 number of electron      40.0000000 magnetization 
 augmentation part       40.0000000 magnetization 

 Free energy of the ion-electron system (eV)
  ---------------------------------------------------
  alpha Z        PSCENC =        87.52689448
  Ewald energy   TEWEN  =     -1416.55681158
  -Hartree energ DENC   =      -128.93352592
  -exchange      EXHF   =         0.00000000
  -V(xc)+E(xc)   XCENC  =       -33.26022523
  PAW double counting   =      1193.78262552    -1080.73714043
  entropy T*S    EENTRO =        -0.00000003
  eigenvalues    EBANDS =       -92.91541379
  atomic energy  EATOM  =      1448.49460871
  Solvation  Ediel_sol  =         0.00000000
  ---------------------------------------------------
  free energy    TOTEN  =       -22.59898828 eV

  energy without entropy =      -22.59898825  energy(sigma->0) =      -22.59898827


--------------------------------------------------------------------------------------------------------




--------------------------------------- Iteration      1(   3)  ---------------------------------------


     EDDAV:  cpu time      0.5258: real time      0.5285
       DOS:  cpu time      0.0008: real time      0.0008
    --------------------------------------------
      LOOP:  cpu time      0.5266: real time      0.5292

 eigenvalue-minimisations  :  3344
 total energy-change (2. order) :-0.1134103E+02  (-0.1130620E+02)
 number of electron      40.0000000 magnetization 
 augmentation part       40.0000000 magnetization 

 Free energy of the ion-electron system (eV)
  ---------------------------------------------------
  alpha Z        PSCENC =        87.52689448
  Ewald energy   TEWEN  =     -1416.55681158
  -Hartree energ DENC   =      -128.93352592
  -exchange      EXHF   =         0.00000000
  -V(xc)+E(xc)   XCENC  =       -33.26022523
  PAW double counting   =      1193.78262552    -1080.73714043
  entropy T*S    EENTRO =        -0.00000000
  eigenvalues    EBANDS =      -104.25644038
  atomic energy  EATOM  =      1448.49460871
  Solvation  Ediel_sol  =         0.00000000
  ---------------------------------------------------
  free energy    TOTEN  =       -33.94001484 eV

  energy without entropy =      -33.94001484  energy(sigma->0) =      -33.94001484


--------------------------------------------------------------------------------------------------------




--------------------------------------- Iteration      1(   4)  ---------------------------------------


     EDDAV:  cpu time      0.4288: real time      0.4316
       DOS:  cpu time      0.0007: real time      0.0007
    --------------------------------------------
      LOOP:  cpu time      0.4295: real time      0.4323

 eigenvalue-minimisations  :  3152
 total energy-change (2. order) :-0.9048738E-01  (-0.9047016E-01)
 number of electron      40.0000000 magnetization 
 augmentation part       40.0000000 magnetization 

 Free energy of the ion-electron system (eV)
  ---------------------------------------------------
  alpha Z        PSCENC =        87.52689448
  Ewald energy   TEWEN  =     -1416.55681158
  -Hartree energ DENC   =      -128.93352592
  -exchange      EXHF   =         0.00000000
  -V(xc)+E(xc)   XCENC  =       -33.26022523
  PAW double counting   =      1193.78262552    -1080.73714043
  entropy T*S    EENTRO =        -0.00000000
  eigenvalues    EBANDS =      -104.34692776
  atomic energy  EATOM  =      1448.49460871
  Solvation  Ediel_sol  =         0.00000000
  ---------------------------------------------------
  free energy    TOTEN  =       -34.03050222 eV

  energy without entropy =      -34.03050222  energy(sigma->0) =      -34.03050222


--------------------------------------------------------------------------------------------------------




--------------------------------------- Iteration      1(   5)  ---------------------------------------


     EDDAV:  cpu time      0.4491: real time      0.4532
       DOS:  cpu time      0.0007: real time      0.0008
    CHARGE:  cpu time      0.0092: real time      0.0092
    MIXING:  cpu time      0.0007: real time      0.0007
    --------------------------------------------
      LOOP:  cpu time      0.4596: real time      0.4639

 eigenvalue-minimisations  :  3376
 total energy-change (2. order) :-0.5961528E-03  (-0.5961415E-03)
 number of electron      39.9999997 magnetization 
 augmentation part       -7.3817851 magnetization 

 Broyden mixing:
  rms(total) = 0.64152E+00    rms(broyden)= 0.64152E+00
  rms(prec ) = 0.71872E+00
  weight for this iteration     100.00

 Free energy of the ion-electron system (eV)
  ---------------------------------------------------
  alpha Z        PSCENC =        87.52689448
  Ewald energy   TEWEN  =     -1416.55681158
  -Hartree energ DENC   =      -128.93352592
  -exchange      EXHF   =         0.00000000
  -V(xc)+E(xc)   XCENC  =       -33.26022523
  PAW double counting   =      1193.78262552    -1080.73714043
  entropy T*S    EENTRO =        -0.00000000
  eigenvalues    EBANDS =      -104.34752392
  atomic energy  EATOM  =      1448.49460871
  Solvation  Ediel_sol  =         0.00000000
  ---------------------------------------------------
  free energy    TOTEN  =       -34.03109838 eV

  energy without entropy =      -34.03109838  energy(sigma->0) =      -34.03109838


--------------------------------------------------------------------------------------------------------




--------------------------------------- Iteration      1(   6)  ---------------------------------------


    POTLOK:  cpu time      0.0100: real time      0.0103
    SETDIJ:  cpu time      0.2174: real time      0.2185
     EDDAV:  cpu time      0.4373: real time      0.4416
       DOS:  cpu time      0.0008: real time      0.0008
    CHARGE:  cpu time      0.0087: real time      0.0087
    MIXING:  cpu time      0.0006: real time      0.0006
    --------------------------------------------
      LOOP:  cpu time      0.6748: real time      0.6804

 eigenvalue-minimisations  :  3280
 total energy-change (2. order) : 0.3334490E+00  (-0.6551786E-01)
 number of electron      39.9999997 magnetization 
 augmentation part       -7.3340515 magnetization 

 Broyden mixing:
  rms(total) = 0.40569E+00    rms(broyden)= 0.40569E+00
  rms(prec ) = 0.42731E+00
  weight for this iteration     100.00

 eigenvalues of (default mixing * dielectric matrix)
  average eigenvalue GAMMA=   2.2604
  2.2604

 Free energy of the ion-electron system (eV)
  ---------------------------------------------------
  alpha Z        PSCENC =        87.52689448
  Ewald energy   TEWEN  =     -1416.55681158
  -Hartree energ DENC   =      -134.33886155
  -exchange      EXHF   =         0.00000000
  -V(xc)+E(xc)   XCENC  =       -32.66087328
  PAW double counting   =      1461.42586009    -1348.70957817
  entropy T*S    EENTRO =        -0.00000023
  eigenvalues    EBANDS =       -98.87888780
  atomic energy  EATOM  =      1448.49460871
  Solvation  Ediel_sol  =         0.00000000
  ---------------------------------------------------
  free energy    TOTEN  =       -33.69764934 eV

  energy without entropy =      -33.69764911  energy(sigma->0) =      -33.69764923


--------------------------------------------------------------------------------------------------------




--------------------------------------- Iteration      1(   7)  ---------------------------------------


    POTLOK:  cpu time      0.0101: real time      0.0102
    SETDIJ:  cpu time      0.2209: real time      0.2215
     EDDAV:  cpu time      0.4086: real time      0.4113
       DOS:  cpu time      0.0009: real time      0.0009
    CHARGE:  cpu time      0.0089: real time      0.0090
    MIXING:  cpu time      0.0006: real time      0.0007
    --------------------------------------------
      LOOP:  cpu time      0.6500: real time      0.6535

 eigenvalue-minimisations  :  2848
 total energy-change (2. order) : 0.1538605E-01  (-0.2100428E-01)
 number of electron      39.9999997 magnetization 
 augmentation part       -7.3199626 magnetization 

 Broyden mixing:
  rms(total) = 0.11641E+00    rms(broyden)= 0.11641E+00
  rms(prec ) = 0.12476E+00
  weight for this iteration     100.00

 eigenvalues of (default mixing * dielectric matrix)
  average eigenvalue GAMMA=   1.7773
  1.1816  2.3730

 Free energy of the ion-electron system (eV)
  ---------------------------------------------------
  alpha Z        PSCENC =        87.52689448
  Ewald energy   TEWEN  =     -1416.55681158
  -Hartree energ DENC   =      -137.14763517
  -exchange      EXHF   =         0.00000000
  -V(xc)+E(xc)   XCENC  =       -32.15586656
  PAW double counting   =      1806.03025961    -1693.58126015
  entropy T*S    EENTRO =        -0.00000130
  eigenvalues    EBANDS =       -96.29245132
  atomic energy  EATOM  =      1448.49460871
  Solvation  Ediel_sol  =         0.00000000
  ---------------------------------------------------
  free energy    TOTEN  =       -33.68226329 eV

  energy without entropy =      -33.68226199  energy(sigma->0) =      -33.68226264


--------------------------------------------------------------------------------------------------------




--------------------------------------- Iteration      1(   8)  ---------------------------------------


    POTLOK:  cpu time      0.0102: real time      0.0104
    SETDIJ:  cpu time      0.2157: real time      0.2177
     EDDAV:  cpu time      0.4497: real time      0.4524
       DOS:  cpu time      0.0008: real time      0.0008
    CHARGE:  cpu time      0.0088: real time      0.0088
    MIXING:  cpu time      0.0006: real time      0.0006
    --------------------------------------------
      LOOP:  cpu time      0.6857: real time      0.6906

 eigenvalue-minimisations  :  3296
 total energy-change (2. order) : 0.1125335E-02  (-0.1848376E-02)
 number of electron      39.9999997 magnetization 
 augmentation part       -7.3264262 magnetization 

 Broyden mixing:
  rms(total) = 0.18266E-01    rms(broyden)= 0.18266E-01
  rms(prec ) = 0.21703E-01
  weight for this iteration     100.00

 eigenvalues of (default mixing * dielectric matrix)
  average eigenvalue GAMMA=   1.7141
  2.5184  1.3120  1.3120

 Free energy of the ion-electron system (eV)
  ---------------------------------------------------
  alpha Z        PSCENC =        87.52689448
  Ewald energy   TEWEN  =     -1416.55681158
  -Hartree energ DENC   =      -137.30609009
  -exchange      EXHF   =         0.00000000
  -V(xc)+E(xc)   XCENC  =       -32.02372054
  PAW double counting   =      1931.23866377    -1818.85052522
  entropy T*S    EENTRO =        -0.00000118
  eigenvalues    EBANDS =       -96.20415630
  atomic energy  EATOM  =      1448.49460871
  Solvation  Ediel_sol  =         0.00000000
  ---------------------------------------------------
  free energy    TOTEN  =       -33.68113796 eV

  energy without entropy =      -33.68113678  energy(sigma->0) =      -33.68113737


--------------------------------------------------------------------------------------------------------




--------------------------------------- Iteration      1(   9)  ---------------------------------------


    POTLOK:  cpu time      0.0104: real time      0.0106
    SETDIJ:  cpu time      0.2178: real time      0.2183
     EDDAV:  cpu time      0.4495: real time      0.4534
       DOS:  cpu time      0.0008: real time      0.0008
    CHARGE:  cpu time      0.0086: real time      0.0087
    MIXING:  cpu time      0.0006: real time      0.0006
    --------------------------------------------
      LOOP:  cpu time      0.6878: real time      0.6925

 eigenvalue-minimisations  :  3360
 total energy-change (2. order) :-0.4186322E-03  (-0.2915702E-03)
 number of electron      39.9999997 magnetization 
 augmentation part       -7.3258554 magnetization 

 Broyden mixing:
  rms(total) = 0.66925E-02    rms(broyden)= 0.66925E-02
  rms(prec ) = 0.73526E-02
  weight for this iteration     100.00

 eigenvalues of (default mixing * dielectric matrix)
  average eigenvalue GAMMA=   1.7039
  2.2342  2.2342  1.1737  1.1737

 Free energy of the ion-electron system (eV)
  ---------------------------------------------------
  alpha Z        PSCENC =        87.52689448
  Ewald energy   TEWEN  =     -1416.55681158
  -Hartree energ DENC   =      -137.58988202
  -exchange      EXHF   =         0.00000000
  -V(xc)+E(xc)   XCENC  =       -31.98271080
  PAW double counting   =      1947.18096755    -1834.80274330
  entropy T*S    EENTRO =        -0.00000116
  eigenvalues    EBANDS =       -95.95187846
  atomic energy  EATOM  =      1448.49460871
  Solvation  Ediel_sol  =         0.00000000
  ---------------------------------------------------
  free energy    TOTEN  =       -33.68155659 eV

  energy without entropy =      -33.68155542  energy(sigma->0) =      -33.68155601


--------------------------------------------------------------------------------------------------------




--------------------------------------- Iteration      1(  10)  ---------------------------------------


    POTLOK:  cpu time      0.0100: real time      0.0102
    SETDIJ:  cpu time      0.2172: real time      0.2177
     EDDAV:  cpu time      0.4647: real time      0.4674
       DOS:  cpu time      0.0008: real time      0.0008
    CHARGE:  cpu time      0.0082: real time      0.0082
    MIXING:  cpu time      0.0006: real time      0.0006
    --------------------------------------------
      LOOP:  cpu time      0.7015: real time      0.7049

 eigenvalue-minimisations  :  3488
 total energy-change (2. order) :-0.9531933E-04  (-0.2170786E-04)
 number of electron      39.9999997 magnetization 
 augmentation part       -7.3257796 magnetization 

 Broyden mixing:
  rms(total) = 0.24545E-02    rms(broyden)= 0.24545E-02
  rms(prec ) = 0.30145E-02
  weight for this iteration     100.00

 eigenvalues of (default mixing * dielectric matrix)
  average eigenvalue GAMMA=   1.7319
  2.6642  2.2991  1.1342  1.2809  1.2809

 Free energy of the ion-electron system (eV)
  ---------------------------------------------------
  alpha Z        PSCENC =        87.52689448
  Ewald energy   TEWEN  =     -1416.55681158
  -Hartree energ DENC   =      -137.62283238
  -exchange      EXHF   =         0.00000000
  -V(xc)+E(xc)   XCENC  =       -31.97996068
  PAW double counting   =      1940.36331008    -1827.98003452
  entropy T*S    EENTRO =        -0.00000109
  eigenvalues    EBANDS =       -95.92682492
  atomic energy  EATOM  =      1448.49460871
  Solvation  Ediel_sol  =         0.00000000
  ---------------------------------------------------
  free energy    TOTEN  =       -33.68165191 eV

  energy without entropy =      -33.68165082  energy(sigma->0) =      -33.68165136


--------------------------------------------------------------------------------------------------------




--------------------------------------- Iteration      1(  11)  ---------------------------------------


    POTLOK:  cpu time      0.0101: real time      0.0103
    SETDIJ:  cpu time      0.2178: real time      0.2199
     EDDAV:  cpu time      0.3989: real time      0.4014
       DOS:  cpu time      0.0009: real time      0.0009
    CHARGE:  cpu time      0.0093: real time      0.0093
    MIXING:  cpu time      0.0007: real time      0.0006
    --------------------------------------------
      LOOP:  cpu time      0.6376: real time      0.6425

 eigenvalue-minimisations  :  2912
 total energy-change (2. order) :-0.3330090E-04  (-0.4198705E-05)
 number of electron      39.9999997 magnetization 
 augmentation part       -7.3258887 magnetization 

 Broyden mixing:
  rms(total) = 0.11966E-02    rms(broyden)= 0.11966E-02
  rms(prec ) = 0.13048E-02
  weight for this iteration     100.00

 eigenvalues of (default mixing * dielectric matrix)
  average eigenvalue GAMMA=   1.7139
  2.5726  2.2036  2.2036  1.2009  1.2009  0.9017

 Free energy of the ion-electron system (eV)
  ---------------------------------------------------
  alpha Z        PSCENC =        87.52689448
  Ewald energy   TEWEN  =     -1416.55681158
  -Hartree energ DENC   =      -137.65678361
  -exchange      EXHF   =         0.00000000
  -V(xc)+E(xc)   XCENC  =       -31.97282625
  PAW double counting   =      1942.01392672    -1829.63114735
  entropy T*S    EENTRO =        -0.00000107
  eigenvalues    EBANDS =       -95.89954525
  atomic energy  EATOM  =      1448.49460871
  Solvation  Ediel_sol  =         0.00000000
  ---------------------------------------------------
  free energy    TOTEN  =       -33.68168521 eV

  energy without entropy =      -33.68168413  energy(sigma->0) =      -33.68168467


--------------------------------------------------------------------------------------------------------




--------------------------------------- Iteration      1(  12)  ---------------------------------------


    POTLOK:  cpu time      0.0100: real time      0.0102
    SETDIJ:  cpu time      0.2187: real time      0.2195
     EDDAV:  cpu time      0.5302: real time      0.5341
       DOS:  cpu time      0.0060: real time      0.0061
    CHARGE:  cpu time      0.0087: real time      0.0087
    MIXING:  cpu time      0.0006: real time      0.0006
    --------------------------------------------
      LOOP:  cpu time      0.7743: real time      0.7791

 eigenvalue-minimisations  :  3616
 total energy-change (2. order) :-0.1396057E-05  (-0.4922142E-06)
 number of electron      39.9999997 magnetization 
 augmentation part       -7.3257749 magnetization 

 Broyden mixing:
  rms(total) = 0.34277E-03    rms(broyden)= 0.34277E-03
  rms(prec ) = 0.39343E-03
  weight for this iteration     100.00

 eigenvalues of (default mixing * dielectric matrix)
  average eigenvalue GAMMA=   1.7069
  2.9110  2.4549  1.8243  0.9729  1.4040  1.1907  1.1907

 Free energy of the ion-electron system (eV)
  ---------------------------------------------------
  alpha Z        PSCENC =        87.52689448
  Ewald energy   TEWEN  =     -1416.55681158
  -Hartree energ DENC   =      -137.67131844
  -exchange      EXHF   =         0.00000000
  -V(xc)+E(xc)   XCENC  =       -31.97185644
  PAW double counting   =      1941.23865327    -1828.85559458
  entropy T*S    EENTRO =        -0.00000108
  eigenvalues    EBANDS =       -95.88626094
  atomic energy  EATOM  =      1448.49460871
  Solvation  Ediel_sol  =         0.00000000
  ---------------------------------------------------
  free energy    TOTEN  =       -33.68168660 eV

  energy without entropy =      -33.68168552  energy(sigma->0) =      -33.68168606


--------------------------------------------------------------------------------------------------------




--------------------------------------- Iteration      1(  13)  ---------------------------------------


    POTLOK:  cpu time      0.0100: real time      0.0102
    SETDIJ:  cpu time      0.2181: real time      0.2187
     EDDAV:  cpu time      0.3408: real time      0.3424
       DOS:  cpu time      0.0009: real time      0.0009
    --------------------------------------------
      LOOP:  cpu time      0.5698: real time      0.5721

 eigenvalue-minimisations  :  2048
 total energy-change (2. order) :-0.3484892E-06  (-0.1047534E-06)
 number of electron      39.9999997 magnetization 
 augmentation part       -7.3257749 magnetization 

 Free energy of the ion-electron system (eV)
  ---------------------------------------------------
  alpha Z        PSCENC =        87.52689448
  Ewald energy   TEWEN  =     -1416.55681158
  -Hartree energ DENC   =      -137.67603665
  -exchange      EXHF   =         0.00000000
  -V(xc)+E(xc)   XCENC  =       -31.97134033
  PAW double counting   =      1940.98706843    -1828.60379490
  entropy T*S    EENTRO =        -0.00000108
  eigenvalues    EBANDS =       -95.88227403
  atomic energy  EATOM  =      1448.49460871
  Solvation  Ediel_sol  =         0.00000000
  ---------------------------------------------------
  free energy    TOTEN  =       -33.68168695 eV

  energy without entropy =      -33.68168587  energy(sigma->0) =      -33.68168641


--------------------------------------------------------------------------------------------------------




 average (electrostatic) potential at core
  the test charge radii are     1.1631  1.0808
  (the norm of the test charge is              1.0000)
       1 -33.4951       2 -33.4951       3 -33.4951       4 -33.4951       5 -55.0018
       6 -55.0018       7 -55.0018       8 -55.0018
 
 
 
 E-fermi :   3.4620     XC(G=0):  -9.2685     alpha+bet : -8.7197

 Fermi energy:         3.4620046494

 k-point     1 :       0.0000    0.0000    0.0000
  band No.  band energies     occupation 
      1     -10.9907      2.00000
      2     -10.6655      2.00000
      3      -9.7203      2.00000
      4      -9.2624      2.00000
      5      -5.1054      2.00000
      6      -3.9433      2.00000
      7      -3.3686      2.00000
      8      -2.1107      2.00000
      9      -1.7114      2.00000
     10      -0.4427      2.00000
     11       0.0504      2.00000
     12       0.1082      2.00000
     13       0.1618      2.00000
     14       0.5115      2.00000
     15       1.3118      2.00000
     16       1.3170      2.00000
     17       1.8847      2.00000
     18       2.2474      2.00000
     19       2.3527      2.00000
     20       2.8873      2.00000
     21       3.5905      0.00028
     22       5.7953      0.00000
     23       5.8235      0.00000
     24       5.8403      0.00000
     25       6.1380      0.00000
     26       6.7034      0.00000
     27       7.3835      0.00000
     28       7.4993      0.00000
     29       8.0500      0.00000
     30       8.5820      0.00000
     31       8.8761      0.00000
     32       9.6153      0.00000

 k-point     2 :       0.1667    0.0000    0.0000
  band No.  band energies     occupation 
      1     -10.8001      2.00000
      2     -10.4874      2.00000
      3      -9.6045      2.00000
      4      -9.1949      2.00000
      5      -5.3567      2.00000
      6      -4.1474      2.00000
      7      -3.7122      2.00000
      8      -2.4867      2.00000
      9      -1.7242      2.00000
     10      -0.3929      2.00000
     11      -0.0281      2.00000
     12       0.0690      2.00000
     13       0.2496      2.00000
     14       0.3956      2.00000
     15       0.9193      2.00000
     16       1.5539      2.00000
     17       1.8484      2.00000
     18       1.9961      2.00000
     19       2.4942      2.00000
     20       2.8891      2.00000
     21       3.8052      0.00000
     22       5.1630      0.00000
     23       5.8684      0.00000
     24       6.5571      0.00000
     25       6.5860      0.00000
     26       6.6128      0.00000
     27       6.7161      0.00000
     28       7.3894      0.00000
     29       7.5212      0.00000
     30       7.6533      0.00000
     31       8.6685      0.00000
     32       9.2575      0.00000

 k-point     3 :       0.3333    0.0000    0.0000
  band No.  band energies     occupation 
      1     -10.2824      2.00000
      2     -10.0086      2.00000
      3      -9.4304      2.00000
      4      -9.1463      2.00000
      5      -5.8375      2.00000
      6      -4.7462      2.00000
      7      -4.5266      2.00000
      8      -3.4784      2.00000
      9      -1.3112      2.00000
     10      -0.3789      2.00000
     11       0.1155      2.00000
     12       0.4238      2.00000
     13       0.5317      2.00000
     14       0.8566      2.00000
     15       0.9194      2.00000
     16       1.2887      2.00000
     17       1.4218      2.00000
     18       2.0305      2.00000
     19       2.6443      2.00000
     20       2.7464      2.00000
     21       4.0701      0.00000
     22       4.2844      0.00000
     23       4.7816      0.00000
     24       5.3674      0.00000
     25       5.5845      0.00000
     26       5.8816      0.00000
     27       5.9328      0.00000
     28       6.5294      0.00000
     29       6.8310      0.00000
     30       6.8899      0.00000
     31       8.8218      0.00000
     32       9.6549      0.00000

 k-point     4 :       0.5000    0.0000    0.0000
  band No.  band energies     occupation 
      1      -9.6674      2.00000
      2      -9.6674      2.00000
      3      -9.4397      2.00000
      4      -9.4397      2.00000
      5      -5.7024      2.00000
      6      -5.7024      2.00000
      7      -4.3655      2.00000
      8      -4.3655      2.00000
      9      -0.5418      2.00000
     10      -0.5418      2.00000
     11       0.5604      2.00000
     12       0.5604      2.00000
     13       0.6817      2.00000
     14       0.6817      2.00000
     15       1.3070      2.00000
     16       1.3070      2.00000
     17       1.4588      2.00000
     18       1.4588      2.00000
     19       2.5524      2.00000
     20       2.5524      2.00000
     21       4.1923      0.00000
     22       4.1923      0.00000
     23       4.8285      0.00000
     24       4.8285      0.00000
     25       5.2020      0.00000
     26       5.2020      0.00000
     27       5.6746      0.00000
     28       5.6746      0.00000
     29       5.9535      0.00000
     30       5.9535      0.00000
     31       9.1611      0.00000
     32       9.1611      0.00000

 k-point     5 :       0.0000    0.1667    0.0000
  band No.  band energies     occupation 
      1     -10.8708      2.00000
      2     -10.5641      2.00000
      3      -9.7153      2.00000
      4      -9.3426      2.00000
      5      -5.2818      2.00000
      6      -4.1926      2.00000
      7      -3.8256      2.00000
      8      -2.5464      2.00000
      9      -1.7001      2.00000
     10      -0.0128      2.00000
     11       0.2471      2.00000
     12       0.4761      2.00000
     13       0.5174      2.00000
     14       0.6369      2.00000
     15       1.3561      2.00000
     16       1.5910      2.00000
     17       1.8570      2.00000
     18       2.0161      2.00000
     19       2.5986      2.00000
     20       3.0149      2.00000
     21       3.9451      0.00000
     22       5.0535      0.00000
     23       5.7624      0.00000
     24       5.9478      0.00000
     25       6.0953      0.00000
     26       6.3408      0.00000
     27       6.9248      0.00000
     28       7.2587      0.00000
     29       7.4890      0.00000
     30       8.3493      0.00000
     31       8.4477      0.00000
     32       9.5289      0.00000

 k-point     6 :       0.1667    0.1667    0.0000
  band No.  band energies     occupation 
      1     -10.6858      2.00000
      2     -10.3914      2.00000
      3      -9.6017      2.00000
      4      -9.2675      2.00000
      5      -5.4304      2.00000
      6      -4.2539      2.00000
      7      -4.0042      2.00000
      8      -2.8357      2.00000
      9      -1.5664      2.00000
     10      -0.7364      2.00000
     11      -0.5391      2.00000
     12       0.1772      2.00000
     13       0.9016      2.00000
     14       0.9727      2.00000
     15       1.1763      2.00000
     16       1.2243      2.00000
     17       1.5751      2.00000
     18       2.2822      2.00000
     19       2.6898      2.00000
     20       2.8716      2.00000
     21       4.1319      0.00000
     22       5.0745      0.00000
     23       5.4754      0.00000
     24       5.7569      0.00000
     25       6.4617      0.00000
     26       6.6119      0.00000
     27       6.8448      0.00000
     28       7.4365      0.00000
     29       7.5537      0.00000
     30       7.5874      0.00000
     31       8.6149      0.00000
     32       9.3463      0.00000

 k-point     7 :       0.1667   -0.1667    0.0000
  band No.  band energies     occupation 
      1     -10.6851      2.00000
      2     -10.3921      2.00000
      3      -9.6003      2.00000
      4      -9.2693      2.00000
      5      -5.4239      2.00000
      6      -4.2613      2.00000
      7      -4.0262      2.00000
      8      -2.7986      2.00000
      9      -1.5651      2.00000
     10      -0.7548      2.00000
     11      -0.5087      2.00000
     12       0.1558      2.00000
     13       0.9028      2.00000
     14       0.9559      2.00000
     15       1.1673      2.00000
     16       1.2238      2.00000
     17       1.5438      2.00000
     18       2.3119      2.00000
     19       2.6635      2.00000
     20       2.9421      2.00000
     21       4.1280      0.00000
     22       5.0797      0.00000
     23       5.4177      0.00000
     24       5.8067      0.00000
     25       6.4592      0.00000
     26       6.5804      0.00000
     27       6.9552      0.00000
     28       7.4065      0.00000
     29       7.4240      0.00000
     30       7.6296      0.00000
     31       8.5514      0.00000
     32       9.3212      0.00000

 k-point     8 :       0.3333    0.1667    0.0000
  band No.  band energies     occupation 
      1     -10.1887      2.00000
      2      -9.9339      2.00000
      3      -9.4227      2.00000
      4      -9.1851      2.00000
      5      -5.7649      2.00000
      6      -4.7708      2.00000
      7      -4.4529      2.00000
      8      -3.5740      2.00000
      9      -1.1771      2.00000
     10      -0.9664      2.00000
     11      -0.8293      2.00000
     12       0.0339      2.00000
     13       0.6081      2.00000
     14       0.8396      2.00000
     15       0.8682      2.00000
     16       1.2001      2.00000
     17       1.5841      2.00000
     18       1.7700      2.00000
     19       2.4424      2.00000
     20       2.6854      2.00000
     21       4.2402      0.00000
     22       4.9721      0.00000
     23       5.0028      0.00000
     24       5.3732      0.00000
     25       5.5816      0.00000
     26       6.3448      0.00000
     27       6.5342      0.00000
     28       6.9662      0.00000
     29       7.3810      0.00000
     30       8.1498      0.00000
     31       8.7107      0.00000
     32       9.1037      0.00000

 k-point     9 :       0.3333   -0.1667    0.0000
  band No.  band energies     occupation 
      1     -10.1871      2.00000
      2      -9.9353      2.00000
      3      -9.4204      2.00000
      4      -9.1883      2.00000
      5      -5.7539      2.00000
      6      -4.7909      2.00000
      7      -4.4654      2.00000
      8      -3.5467      2.00000
      9      -1.1708      2.00000
     10      -0.9699      2.00000
     11      -0.8109      2.00000
     12       0.0253      2.00000
     13       0.6316      2.00000
     14       0.7793      2.00000
     15       0.8332      2.00000
     16       1.2172      2.00000
     17       1.5864      2.00000
     18       1.7746      2.00000
     19       2.3979      2.00000
     20       2.7854      2.00000
     21       4.2303      0.00000
     22       4.9566      0.00000
     23       4.9832      0.00000
     24       5.3611      0.00000
     25       5.6547      0.00000
     26       6.3946      0.00000
     27       6.5795      0.00000
     28       6.8662      0.00000
     29       7.2753      0.00000
     30       8.1411      0.00000
     31       8.5973      0.00000
     32       9.2592      0.00000

 k-point    10 :       0.5000    0.1667    0.0000
  band No.  band energies     occupation 
      1      -9.6179      2.00000
      2      -9.6170      2.00000
      3      -9.4145      2.00000
      4      -9.4141      2.00000
      5      -5.6280      2.00000
      6      -5.6151      2.00000
      7      -4.3162      2.00000
      8      -4.3015      2.00000
      9      -0.6507      2.00000
     10      -0.6341      2.00000
     11      -0.1764      2.00000
     12      -0.1746      2.00000
     13       0.1607      2.00000
     14       0.2273      2.00000
     15       0.6356      2.00000
     16       0.6407      2.00000
     17       1.6624      2.00000
     18       1.6834      2.00000
     19       2.5815      2.00000
     20       2.6527      2.00000
     21       4.3055      0.00000
     22       4.3131      0.00000
     23       5.1929      0.00000
     24       5.2183      0.00000
     25       6.0835      0.00000
     26       6.1700      0.00000
     27       6.3370      0.00000
     28       6.3625      0.00000
     29       6.9799      0.00000
     30       7.0022      0.00000
     31       8.5436      0.00000
     32       8.7064      0.00000

 k-point    11 :       0.0000    0.3333    0.0000
  band No.  band energies     occupation 
      1     -10.5363      2.00000
      2     -10.2943      2.00000
      3      -9.7703      2.00000
      4      -9.6122      2.00000
      5      -5.4990      2.00000
      6      -4.6815      2.00000
      7      -4.4323      2.00000
      8      -3.4587      2.00000
      9      -1.2989      2.00000
     10       0.3348      2.00000
     11       0.6323      2.00000
     12       0.9373      2.00000
     13       0.9869      2.00000
     14       1.2285      2.00000
     15       1.3837      2.00000
     16       1.6844      2.00000
     17       1.6949      2.00000
     18       2.7356      2.00000
     19       2.7649      2.00000
     20       3.3273      1.99986
     21       4.1364      0.00000
     22       4.7015      0.00000
     23       5.0796      0.00000
     24       5.3884      0.00000
     25       5.8197      0.00000
     26       6.1520      0.00000
     27       6.3682      0.00000
     28       6.4962      0.00000
     29       6.5926      0.00000
     30       7.3260      0.00000
     31       8.5442      0.00000
     32       9.3669      0.00000

 k-point    12 :       0.1667    0.3333    0.0000
  band No.  band energies     occupation 
      1     -10.3683      2.00000
      2     -10.1390      2.00000
      3      -9.6529      2.00000
      4      -9.5142      2.00000
      5      -5.4930      2.00000
      6      -4.6725      2.00000
      7      -4.3520      2.00000
      8      -3.5147      2.00000
      9      -1.1372      2.00000
     10      -0.7260      2.00000
     11      -0.5276      2.00000
     12       0.1885      2.00000
     13       0.4120      2.00000
     14       0.6342      2.00000
     15       1.3106      2.00000
     16       1.8027      2.00000
     17       1.9468      2.00000
     18       2.3128      2.00000
     19       2.7622      2.00000
     20       2.9912      2.00000
     21       4.5739      0.00000
     22       5.2435      0.00000
     23       5.4811      0.00000
     24       5.7098      0.00000
     25       5.7780      0.00000
     26       6.3362      0.00000
     27       6.7450      0.00000
     28       7.1038      0.00000
     29       7.4205      0.00000
     30       7.8506      0.00000
     31       8.6433      0.00000
     32       9.1810      0.00000

 k-point    13 :       0.1667   -0.3333    0.0000
  band No.  band energies     occupation 
      1     -10.3669      2.00000
      2     -10.1403      2.00000
      3      -9.6507      2.00000
      4      -9.5169      2.00000
      5      -5.4830      2.00000
      6      -4.6918      2.00000
      7      -4.3624      2.00000
      8      -3.4899      2.00000
      9      -1.1220      2.00000
     10      -0.7512      2.00000
     11      -0.4920      2.00000
     12       0.1523      2.00000
     13       0.4408      2.00000
     14       0.5818      2.00000
     15       1.3235      2.00000
     16       1.7791      2.00000
     17       2.0058      2.00000
     18       2.2782      2.00000
     19       2.7526      2.00000
     20       3.0243      2.00000
     21       4.5774      0.00000
     22       5.2529      0.00000
     23       5.4507      0.00000
     24       5.7066      0.00000
     25       5.8077      0.00000
     26       6.3690      0.00000
     27       6.7242      0.00000
     28       7.1185      0.00000
     29       7.3089      0.00000
     30       7.9203      0.00000
     31       8.5610      0.00000
     32       9.2639      0.00000

 k-point    14 :       0.3333    0.3333    0.0000
  band No.  band energies     occupation 
      1      -9.9356      2.00000
      2      -9.7467      2.00000
      3      -9.4386      2.00000
      4      -9.3319      2.00000
      5      -5.5562      2.00000
      6      -4.9261      2.00000
      7      -4.2813      2.00000
      8      -3.8093      2.00000
      9      -1.4593      2.00000
     10      -1.3476      2.00000
     11      -0.8716      2.00000
     12      -0.5996      2.00000
     13      -0.3688      2.00000
     14       0.2650      2.00000
     15       0.5875      2.00000
     16       0.7480      2.00000
     17       1.1267      2.00000
     18       1.8839      2.00000
     19       2.4372      2.00000
     20       2.6342      2.00000
     21       4.4082      0.00000
     22       5.7979      0.00000
     23       5.8771      0.00000
     24       6.1860      0.00000
     25       6.6988      0.00000
     26       7.0175      0.00000
     27       7.6432      0.00000
     28       7.6602      0.00000
     29       7.9751      0.00000
     30       8.5866      0.00000
     31       9.1031      0.00000
     32       9.2276      0.00000

 k-point    15 :       0.3333   -0.3333    0.0000
  band No.  band energies     occupation 
      1      -9.9323      2.00000
      2      -9.7496      2.00000
      3      -9.4353      2.00000
      4      -9.3364      2.00000
      5      -5.5354      2.00000
      6      -4.9576      2.00000
      7      -4.3054      2.00000
      8      -3.7696      2.00000
      9      -1.4852      2.00000
     10      -1.3079      2.00000
     11      -0.8425      2.00000
     12      -0.6068      2.00000
     13      -0.3903      2.00000
     14       0.3025      2.00000
     15       0.4728      2.00000
     16       0.7706      2.00000
     17       1.1152      2.00000
     18       1.9099      2.00000
     19       2.3659      2.00000
     20       2.7593      2.00000
     21       4.4180      0.00000
     22       5.7211      0.00000
     23       5.8359      0.00000
     24       6.2716      0.00000
     25       6.7825      0.00000
     26       6.9906      0.00000
     27       7.4147      0.00000
     28       7.6929      0.00000
     29       7.9899      0.00000
     30       8.6832      0.00000
     31       9.0127      0.00000
     32       9.2908      0.00000

 k-point    16 :       0.5000    0.3333    0.0000
  band No.  band energies     occupation 
      1      -9.5049      2.00000
      2      -9.5024      2.00000
      3      -9.3723      2.00000
      4      -9.3708      2.00000
      5      -5.4558      2.00000
      6      -5.4290      2.00000
      7      -4.2146      2.00000
      8      -4.1836      2.00000
      9      -1.0222      2.00000
     10      -0.9947      2.00000
     11      -0.9716      2.00000
     12      -0.9605      2.00000
     13      -0.5122      2.00000
     14      -0.4789      2.00000
     15       0.0595      2.00000
     16       0.0915      2.00000
     17       1.0958      2.00000
     18       1.1110      2.00000
     19       2.4340      2.00000
     20       2.5691      2.00000
     21       4.9737      0.00000
     22       5.0075      0.00000
     23       6.7731      0.00000
     24       6.8047      0.00000
     25       6.9537      0.00000
     26       6.9624      0.00000
     27       7.3140      0.00000
     28       7.4526      0.00000
     29       8.5923      0.00000
     30       8.5929      0.00000
     31       8.9607      0.00000
     32       9.0229      0.00000

 k-point    17 :       0.0000    0.5000    0.0000
  band No.  band energies     occupation 
      1     -10.0757      2.00000
      2     -10.0757      2.00000
      3      -9.9654      2.00000
      4      -9.9654      2.00000
      5      -5.3260      2.00000
      6      -5.3260      2.00000
      7      -4.1818      2.00000
      8      -4.1818      2.00000
      9      -0.5670      2.00000
     10      -0.5670      2.00000
     11       1.1214      2.00000
     12       1.1214      2.00000
     13       1.3607      2.00000
     14       1.3607      2.00000
     15       1.8042      2.00000
     16       1.8042      2.00000
     17       2.1626      2.00000
     18       2.1626      2.00000
     19       3.0138      2.00000
     20       3.0138      2.00000
     21       4.5572      0.00000
     22       4.5572      0.00000
     23       5.3408      0.00000
     24       5.3408      0.00000
     25       5.6509      0.00000
     26       5.6509      0.00000
     27       5.8306      0.00000
     28       5.8306      0.00000
     29       6.5311      0.00000
     30       6.5311      0.00000
     31       8.9910      0.00000
     32       8.9910      0.00000

 k-point    18 :       0.1667    0.5000    0.0000
  band No.  band energies     occupation 
      1      -9.9347      2.00000
      2      -9.9328      2.00000
      3      -9.8395      2.00000
      4      -9.8379      2.00000
      5      -5.2670      2.00000
      6      -5.2538      2.00000
      7      -4.1148      2.00000
      8      -4.1007      2.00000
      9      -0.5334      2.00000
     10      -0.5213      2.00000
     11      -0.2527      2.00000
     12      -0.2314      2.00000
     13       0.0823      2.00000
     14       0.0985      2.00000
     15       1.5167      2.00000
     16       1.5510      2.00000
     17       2.2552      2.00000
     18       2.3294      2.00000
     19       2.9913      2.00000
     20       2.9996      2.00000
     21       4.7706      0.00000
     22       4.7835      0.00000
     23       5.8191      0.00000
     24       5.8860      0.00000
     25       6.1420      0.00000
     26       6.2240      0.00000
     27       6.7811      0.00000
     28       6.8390      0.00000
     29       7.4366      0.00000
     30       7.4879      0.00000
     31       8.7138      0.00000
[...]
     32       8.7147      0.00000

 k-point    32 :       0.1667    0.3333    0.5000
  band No.  band energies     occupation 
      1     -10.2698      2.00000
      2     -10.2698      2.00000
      3      -9.5668      2.00000
      4      -9.5668      2.00000
      5      -5.1951      2.00000
      6      -5.1951      2.00000
      7      -3.8684      2.00000
      8      -3.8684      2.00000
      9      -0.8312      2.00000
     10      -0.8312      2.00000
     11      -0.0875      2.00000
     12      -0.0875      2.00000
     13       0.4221      2.00000
     14       0.4221      2.00000
     15       1.5216      2.00000
     16       1.5216      2.00000
     17       2.1360      2.00000
     18       2.1360      2.00000
     19       2.6156      2.00000
     20       2.6156      2.00000
     21       5.2275      0.00000
     22       5.2275      0.00000
     23       5.6165      0.00000
     24       5.6165      0.00000
     25       6.1234      0.00000
     26       6.1234      0.00000
     27       6.8034      0.00000
     28       6.8034      0.00000
     29       7.7465      0.00000
     30       7.7465      0.00000
     31       8.8595      0.00000
     32       8.8595      0.00000

 k-point    33 :       0.1667   -0.3333    0.5000
  band No.  band energies     occupation 
      1     -10.2693      2.00000
      2     -10.2693      2.00000
      3      -9.5675      2.00000
      4      -9.5675      2.00000
      5      -5.1946      2.00000
      6      -5.1946      2.00000
      7      -3.8700      2.00000
      8      -3.8700      2.00000
      9      -0.8375      2.00000
     10      -0.8375      2.00000
     11      -0.0647      2.00000
     12      -0.0647      2.00000
     13       0.4249      2.00000
     14       0.4249      2.00000
     15       1.4899      2.00000
     16       1.4899      2.00000
     17       2.1586      2.00000
     18       2.1586      2.00000
     19       2.6002      2.00000
     20       2.6002      2.00000
     21       5.2547      0.00000
     22       5.2547      0.00000
     23       5.5688      0.00000
     24       5.5688      0.00000
     25       6.1267      0.00000
     26       6.1267      0.00000
     27       6.8159      0.00000
     28       6.8159      0.00000
     29       7.7946      0.00000
     30       7.7946      0.00000
     31       8.8725      0.00000
     32       8.8725      0.00000

 k-point    34 :       0.3333    0.3333    0.5000
  band No.  band energies     occupation 
      1      -9.8547      2.00000
      2      -9.8547      2.00000
      3      -9.3722      2.00000
      4      -9.3722      2.00000
      5      -5.2983      2.00000
      6      -5.2983      2.00000
      7      -3.9848      2.00000
      8      -3.9848      2.00000
      9      -1.5252      2.00000
     10      -1.5252      2.00000
     11      -0.7573      2.00000
     12      -0.7573      2.00000
     13       0.1351      2.00000
     14       0.1351      2.00000
     15       0.9141      2.00000
     16       0.9141      2.00000
     17       1.3743      2.00000
     18       1.3743      2.00000
     19       2.1545      2.00000
     20       2.1545      2.00000
     21       5.2554      0.00000
     22       5.2554      0.00000
     23       5.8815      0.00000
     24       5.8815      0.00000
     25       7.1472      0.00000
     26       7.1472      0.00000
     27       7.6105      0.00000
     28       7.6105      0.00000
     29       8.6252      0.00000
     30       8.6252      0.00000
     31       9.3895      0.00000
     32       9.3895      0.00000

 k-point    35 :       0.3333   -0.3333    0.5000
  band No.  band energies     occupation 
      1      -9.8534      2.00000
      2      -9.8534      2.00000
      3      -9.3738      2.00000
      4      -9.3738      2.00000
      5      -5.2966      2.00000
      6      -5.2966      2.00000
      7      -3.9880      2.00000
      8      -3.9880      2.00000
      9      -1.5334      2.00000
     10      -1.5334      2.00000
     11      -0.7341      2.00000
     12      -0.7341      2.00000
     13       0.1358      2.00000
     14       0.1358      2.00000
     15       0.8926      2.00000
     16       0.8926      2.00000
     17       1.4023      2.00000
     18       1.4023      2.00000
     19       2.1202      2.00000
     20       2.1202      2.00000
     21       5.2823      0.00000
     22       5.2823      0.00000
     23       5.8729      0.00000
     24       5.8729      0.00000
     25       7.1912      0.00000
     26       7.1912      0.00000
     27       7.5500      0.00000
     28       7.5500      0.00000
     29       8.6927      0.00000
     30       8.6927      0.00000
     31       9.3186      0.00000
     32       9.3186      0.00000

 k-point    36 :       0.5000    0.3333    0.5000
  band No.  band energies     occupation 
      1      -9.4968      2.00000
      2      -9.4968      2.00000
      3      -9.3794      2.00000
      4      -9.3794      2.00000
      5      -5.4353      2.00000
      6      -5.4353      2.00000
      7      -4.1931      2.00000
      8      -4.1931      2.00000
      9      -1.2841      2.00000
     10      -1.2841      2.00000
     11      -1.0190      2.00000
     12      -1.0190      2.00000
     13      -0.2135      2.00000
     14      -0.2135      2.00000
     15       0.2522      2.00000
     16       0.2522      2.00000
     17       1.5648      2.00000
     18       1.5648      2.00000
     19       1.7130      2.00000
     20       1.7130      2.00000
     21       5.0889      0.00000
     22       5.0889      0.00000
     23       6.7639      0.00000
     24       6.7639      0.00000
     25       6.8914      0.00000
     26       6.8914      0.00000
     27       8.0043      0.00000
     28       8.0043      0.00000
     29       8.4490      0.00000
     30       8.4490      0.00000
     31       9.2795      0.00000
     32       9.2795      0.00000

 k-point    37 :       0.0000    0.5000    0.5000
  band No.  band energies     occupation 
      1     -10.0548      2.00000
      2     -10.0548      2.00000
      3      -9.9885      2.00000
      4      -9.9885      2.00000
      5      -5.2256      2.00000
      6      -5.2256      2.00000
      7      -4.3629      2.00000
      8      -4.3629      2.00000
      9       0.1189      2.00000
     10       0.1189      2.00000
     11       0.7031      2.00000
     12       0.7031      2.00000
     13       1.1300      2.00000
     14       1.1300      2.00000
     15       1.3508      2.00000
     16       1.3508      2.00000
     17       2.4769      2.00000
     18       2.4769      2.00000
     19       3.0896      2.00000
     20       3.0896      2.00000
     21       4.6003      0.00000
     22       4.6003      0.00000
     23       4.8912      0.00000
     24       4.8912      0.00000
     25       5.9208      0.00000
     26       5.9208      0.00000
     27       6.3928      0.00000
     28       6.3928      0.00000
     29       6.6752      0.00000
     30       6.6752      0.00000
     31       8.5165      0.00000
     32       8.5165      0.00000

 k-point    38 :       0.1667    0.5000    0.5000
  band No.  band energies     occupation 
      1      -9.9105      2.00000
      2      -9.9105      2.00000
      3      -9.8638      2.00000
      4      -9.8638      2.00000
      5      -5.1859      2.00000
      6      -5.1859      2.00000
      7      -4.2404      2.00000
      8      -4.2404      2.00000
      9      -0.4637      2.00000
     10      -0.4637      2.00000
     11      -0.2317      2.00000
     12      -0.2317      2.00000
     13       0.5731      2.00000
     14       0.5731      2.00000
     15       1.0659      2.00000
     16       1.0659      2.00000
     17       2.2406      2.00000
     18       2.2406      2.00000
     19       2.6200      2.00000
     20       2.6200      2.00000
     21       5.5468      0.00000
     22       5.5468      0.00000
     23       5.6913      0.00000
     24       5.6913      0.00000
     25       5.9035      0.00000
     26       5.9035      0.00000
     27       7.2753      0.00000
     28       7.2753      0.00000
     29       7.3719      0.00000
     30       7.3719      0.00000
     31       8.7269      0.00000
     32       8.7269      0.00000

 k-point    39 :       0.3333    0.5000    0.5000
  band No.  band energies     occupation 
      1      -9.5832      2.00000
      2      -9.5832      2.00000
      3      -9.5743      2.00000
      4      -9.5743      2.00000
      5      -5.2286      2.00000
      6      -5.2286      2.00000
      7      -4.0667      2.00000
      8      -4.0667      2.00000
      9      -1.3858      2.00000
     10      -1.3858      2.00000
     11      -1.3572      2.00000
     12      -1.3572      2.00000
     13       0.2060      2.00000
     14       0.2060      2.00000
     15       0.5871      2.00000
     16       0.5871      2.00000
     17       1.4969      2.00000
     18       1.4969      2.00000
     19       1.7640      2.00000
     20       1.7640      2.00000
     21       5.2770      0.00000
     22       5.2770      0.00000
     23       7.0829      0.00000
     24       7.0829      0.00000
     25       7.2840      0.00000
     26       7.2840      0.00000
     27       8.3478      0.00000
     28       8.3478      0.00000
     29       8.8131      0.00000
     30       8.8131      0.00000
     31       9.0147      0.00000
     32       9.0147      0.00000

 k-point    40 :       0.5000    0.5000    0.5000
  band No.  band energies     occupation 
      1      -9.4212      2.00000
      2      -9.4212      2.00000
      3      -9.3728      2.00000
      4      -9.3728      2.00000
      5      -5.3556      2.00000
      6      -5.3556      2.00000
      7      -4.0923      2.00000
      8      -4.0923      2.00000
      9      -1.4504      2.00000
     10      -1.4504      2.00000
     11      -1.4013      2.00000
     12      -1.4013      2.00000
     13      -0.4897      2.00000
     14      -0.4897      2.00000
     15      -0.1825      2.00000
     16      -0.1825      2.00000
     17       1.5656      2.00000
     18       1.5656      2.00000
     19       1.7938      2.00000
     20       1.7938      2.00000
     21       4.8920      0.00000
     22       4.8920      0.00000
     23       7.4529      0.00000
     24       7.4529      0.00000
     25       7.8707      0.00000
     26       7.8707      0.00000
     27       8.4002      0.00000
     28       8.4002      0.00000
     29       9.0995      0.00000
     30       9.0995      0.00000
     31       9.5482      0.00000
     32       9.5482      0.00000


--------------------------------------------------------------------------------------------------------


 soft charge-density along one line, spin component            1
         0         1         2         3         4         5         6         7         8         9
 total charge-density along one line
 
 pseudopotential strength for first ion, spin component:            1
 14.534  18.134   0.040   0.037   0.000   0.073   0.067   0.000
 18.134  22.639   0.051   0.047   0.000   0.092   0.085   0.000
  0.040   0.051   3.228  -0.002  -0.000   5.496  -0.003  -0.000
  0.037   0.047  -0.002   3.226  -0.000  -0.003   5.492  -0.000
  0.000   0.000  -0.000  -0.000   3.230  -0.000  -0.000   5.499
  0.073   0.092   5.496  -0.003  -0.000   9.415  -0.006  -0.000
  0.067   0.085  -0.003   5.492  -0.000  -0.006   9.407  -0.000
  0.000   0.000  -0.000  -0.000   5.499  -0.000  -0.000   9.419
 -0.000  -0.000   0.000  -0.000   0.007   0.000  -0.000   0.013
 -0.004  -0.005   0.009   0.012  -0.000   0.017   0.022  -0.000
 -0.004  -0.005  -0.004   0.010   0.000  -0.007   0.018   0.000
 -0.000  -0.000  -0.000   0.000   0.009  -0.000   0.000   0.016
  0.002   0.002  -0.012  -0.000   0.000  -0.022  -0.000   0.000
 total augmentation occupancy for first ion, spin component:            1
  2.840  -0.775   0.375   0.224  -0.003  -0.074  -0.031   0.001  -0.000  -0.023   0.021   0.001   0.008
 -0.775   0.694  -0.455  -0.354   0.002   0.073   0.051  -0.000   0.001   0.018  -0.011  -0.000  -0.003
  0.375  -0.455   1.250   0.017   0.000  -0.204   0.010   0.000  -0.000   0.037  -0.093   0.000  -0.001
  0.224  -0.354   0.017   1.485   0.005   0.010  -0.254  -0.001  -0.000   0.003   0.049  -0.002  -0.000
 -0.003   0.002   0.000   0.005   1.262   0.000  -0.001  -0.217   0.148   0.001  -0.001   0.035  -0.000
 -0.074   0.073  -0.204   0.010   0.000   0.037  -0.004  -0.000   0.000  -0.006   0.016  -0.000   0.000
 -0.031   0.051   0.010  -0.254  -0.001  -0.004   0.049   0.000  -0.000  -0.001  -0.009   0.000   0.000
  0.001  -0.000   0.000  -0.001  -0.217  -0.000   0.000   0.042  -0.026  -0.000   0.000  -0.006   0.000
 -0.000   0.001  -0.000  -0.000   0.148   0.000  -0.000  -0.026   0.031  -0.000   0.000   0.003  -0.000
 -0.023   0.018   0.037   0.003   0.001  -0.006  -0.001  -0.000  -0.000   0.014  -0.012  -0.000   0.002
  0.021  -0.011  -0.093   0.049  -0.001   0.016  -0.009   0.000   0.000  -0.012   0.038   0.000  -0.003
  0.001  -0.000   0.000  -0.002   0.035  -0.000   0.000  -0.006   0.003  -0.000   0.000   0.010  -0.000
  0.008  -0.003  -0.001  -0.000  -0.000   0.000   0.000   0.000  -0.000   0.002  -0.003  -0.000   0.009


------------------------ aborting loop because EDIFF is reached ----------------------------------------


    CHARGE:  cpu time      0.0083: real time      0.0083
    FORLOC:  cpu time      0.0004: real time      0.0005
    FORNL :  cpu time      0.0557: real time      0.0559
    STRESS:  cpu time      0.4672: real time      0.4693
    FORCOR:  cpu time      0.0089: real time      0.0090
    FORHAR:  cpu time      0.0022: real time      0.0022
    MIXING:  cpu time      0.0012: real time      0.0012
    OFIELD:  cpu time      0.0000: real time      0.0000

  FORCE on cell =-STRESS in cart. coord.  units (eV):
  Direction    XX          YY          ZZ          XY          YZ          ZX
  --------------------------------------------------------------------------------------
  Alpha Z    87.52689    87.52689    87.52689
  Ewald    -439.26689  -492.89958  -484.39195    -1.33905    -0.00000    -0.00000
  Hartree    62.71063    43.30212    31.66593    -0.54633    -0.00000    -0.00000
  E(xc)    -141.40923  -141.45805  -141.76760    -0.00564    -0.00000    -0.00000
  Local    -188.70630  -122.41827  -121.01901     1.97965    -0.00000    -0.00000
  n-local   240.49598   239.90756   243.31906    -0.02653     0.00000     0.00000
  augment   -11.41287   -11.85564   -12.22223     0.01234    -0.00000    -0.00000
  Kinetic   390.27462   397.82914   400.75343    -0.23043    -0.00000    -0.00000
  Fock        0.00000     0.00000     0.00000     0.00000     0.00000     0.00000
  -------------------------------------------------------------------------------------
  Total       0.21284    -0.06583     3.86453    -0.15600    -0.00000    -0.00000
  in kB       1.76148    -0.54483    31.98313    -1.29106    -0.00000    -0.00000
  external pressure =       11.07 kB  Pullay stress =        0.00 kB


 VOLUME and BASIS-vectors are now :
 -----------------------------------------------------------------------------
  energy-cutoff  :      520.00
  volume of cell :      193.59
      direct lattice vectors                 reciprocal lattice vectors
     3.858100176  0.000000000  0.000000000     0.259194929  0.000000000  0.000000000
     0.000000000  4.526575088  0.000000000     0.000000000  0.220917577  0.000000000
     0.000000000  0.000000000 11.085176468     0.000000000  0.000000000  0.090210562

  length of vectors
     3.858100176  4.526575088 11.085176468     0.259194929  0.220917577  0.090210562


 FORCES acting on ions
    electron-ion (+dipol)            ewald-force                    non-local-force                 convergence-correction
 -----------------------------------------------------------------------------------------------
   -.122E+00 0.164E+02 0.198E+02   0.935E-01 -.188E+02 -.224E+02   0.263E-01 0.238E+01 0.290E+01   -.931E-05 0.103E-03 -.525E-03
   -.122E+00 0.164E+02 -.198E+02   0.935E-01 -.188E+02 0.224E+02   0.263E-01 0.238E+01 -.290E+01   -.918E-05 0.103E-03 0.526E-03
   0.122E+00 -.164E+02 -.198E+02   -.935E-01 0.188E+02 0.224E+02   -.262E-01 -.238E+01 -.290E+01   0.906E-05 -.102E-03 0.526E-03
   0.122E+00 -.164E+02 0.198E+02   -.935E-01 0.188E+02 -.224E+02   -.262E-01 -.238E+01 0.290E+01   0.916E-05 -.103E-03 -.527E-03
   0.742E-01 -.171E+02 -.274E+02   -.593E-01 0.189E+02 0.290E+02   -.375E-01 -.183E+01 -.142E+01   0.198E-04 -.254E-03 0.758E-03
   0.742E-01 -.171E+02 0.274E+02   -.593E-01 0.189E+02 -.290E+02   -.375E-01 -.183E+01 0.142E+01   0.203E-04 -.254E-03 -.758E-03
   -.742E-01 0.171E+02 0.274E+02   0.593E-01 -.189E+02 -.290E+02   0.376E-01 0.183E+01 0.142E+01   -.197E-04 0.254E-03 -.759E-03
   -.742E-01 0.171E+02 -.274E+02   0.593E-01 -.189E+02 0.290E+02   0.376E-01 0.183E+01 -.142E+01   -.196E-04 0.254E-03 0.758E-03
 -----------------------------------------------------------------------------------------------
   0.186E-05 0.929E-05 -.255E-05   -.368E-14 0.711E-14 0.355E-14   0.884E-04 0.565E-03 0.123E-05   0.507E-06 0.479E-06 -.283E-06
 
 
 POSITION                                       TOTAL-FORCE (eV/Angst)
 -----------------------------------------------------------------------------------
      2.97745      3.40309      1.36328        -0.002141      0.044497      0.296182
      1.04840      1.13980      4.17930        -0.002141      0.044498     -0.296183
      2.89358      4.01000      9.72189         0.002126     -0.044644     -0.296164
      0.96453      1.74671      6.90587         0.002126     -0.044644      0.296164
      2.97745      2.85623      3.90621        -0.022681     -0.097179      0.123801
      1.04840      0.59294      1.63637        -0.022681     -0.097179     -0.123801
      2.89358      0.03028      7.17896         0.022696      0.097325     -0.123796
      0.96453      2.29357      9.44880         0.022696      0.097325      0.123795
 -----------------------------------------------------------------------------------
    total drift:                                0.000091      0.000575     -0.000002


--------------------------------------------------------------------------------------------------------



  FREE ENERGIE OF THE ION-ELECTRON SYSTEM (eV)
  ---------------------------------------------------
  free  energy   TOTEN  =       -33.68168695 eV

  energy  without entropy=      -33.68168587  energy(sigma->0) =      -33.68168641
 


--------------------------------------------------------------------------------------------------------


    POTLOK:  cpu time      0.2269: real time      0.2277


--------------------------------------------------------------------------------------------------------


     LOOP+:  cpu time      8.8369: real time      8.8973
    4ORBIT:  cpu time      0.0000: real time      0.0000

 total amount of memory used by VASP MPI-rank0    41770. kBytes
=======================================================================

   base      :      30000. kBytes
   nonl-proj :       9056. kBytes
   fftplans  :        519. kBytes
   grid      :        766. kBytes
   one-center:         16. kBytes
   wavefun   :       1413. kBytes
 
  
  
 General timing and accounting informations for this job:
 ========================================================
  
                  Total CPU time used (sec):       10.596
                            User time (sec):       10.271
                          System time (sec):        0.324
                         Elapsed time (sec):       10.912
  
                   Maximum memory used (kb):      179684.
                   Average memory used (kb):          N/A
  
                          Minor page faults:        23193
                          Major page faults:           17
                 Voluntary context switches:         1893
