 running  128 mpi-ranks, with    1 threads/rank, on    2 nodes
 distrk:  each k-point on   64 cores,    2 groups
 distr:  one band on    4 cores,   16 groups
 vasp.6.4.2 20Jul23 (build Oct 12 2023 10:31:02) complex                         
 POSCAR found type information on POSCAR GeSe
 POSCAR found :  2 types and       8 ions
 Reading from existing POTCAR
 scaLAPACK will be used
 Reading from existing POTCAR
 LDA part: xc-table for Pade appr. of Perdew
 POSCAR, INCAR and KPOINTS ok, starting setup
 FFT: planning ... GRIDC
 FFT: planning ... GRID_SOFT
 FFT: planning ... GRID
 WAVECAR not read
 entering main loop
       N       E                     dE             d eps       ncg     rms          rms(c)
DAV:   1     0.126695221078E+03    0.12670E+03   -0.13065E+04  2560   0.783E+02
DAV:   2    -0.260738066445E+02   -0.15277E+03   -0.14828E+03  3744   0.141E+02
DAV:   3    -0.337683950424E+02   -0.76946E+01   -0.76771E+01  3264   0.362E+01
DAV:   4    -0.338131026626E+02   -0.44708E-01   -0.44699E-01  3248   0.316E+00
DAV:   5    -0.338133668454E+02   -0.26418E-03   -0.26417E-03  3168   0.235E-01    0.690E+00
DAV:   6    -0.334945475474E+02    0.31882E+00   -0.62251E-01  3296   0.271E+00    0.432E+00
DAV:   7    -0.334876702866E+02    0.68773E-02   -0.20377E-01  3152   0.162E+00    0.115E+00
DAV:   8    -0.334851049000E+02    0.25654E-02   -0.21467E-02  3040   0.548E-01    0.158E-01
DAV:   9    -0.334853456624E+02   -0.24076E-03   -0.23933E-03  3200   0.214E-01    0.562E-02
DAV:  10    -0.334853833530E+02   -0.37691E-04   -0.10767E-04  3248   0.429E-02    0.225E-02
DAV:  11    -0.334854030270E+02   -0.19674E-04   -0.28858E-05  3040   0.245E-02    0.878E-03
DAV:  12    -0.334854024890E+02    0.53799E-06   -0.23814E-06  2496   0.736E-03
   1 F= -.33485402E+02 E0= -.33485300E+02  d E =-.204605E-03
