 vasp.6.4.2 20Jul23 (build Oct 12 2023 10:31:02) complex                         
 executed on              LinuxNV date 2025.05.18  05:22:27
 running  160 mpi-ranks, with    1 threads/rank, on   10 nodes
 distrk:  each k-point on   80 cores,    2 groups
 distr:  one band on NCORE=   5 cores,   16 groups


--------------------------------------------------------------------------------------------------------


 INCAR:
   ENCUT = 520.000000
   SIGMA = 0.050000
   EDIFF = 1.00e-06
   ALGO = Normal
   GGA = PE
   PREC = Normal
   SYSTEM = ./
   ICHARG = 2
   ISMEAR = 0
   ISPIN = 1
   ISTART = 0
   ISYM = 0
   KPAR = 2
   LMAXMIX = 4
   NELM = 100
   NPAR = 16
   LASPH = .TRUE.
   LCHARG = .FALSE.
   LWAVE = .FALSE.

 POTCAR:    PAW_PBE Ge 05Jan2001                  
 POTCAR:    PAW_PBE Se 06Sep2000                  
 POTCAR:    PAW_PBE Ge 05Jan2001                  
   VRHFIN =Ge: s2p2                                                                                 
   LEXCH  = PE                                                                                      
   EATOM  =   104.9960 eV,    7.7170 Ry                                                             
                                                                                                    
   TITEL  = PAW_PBE Ge 05Jan2001                                                                    
   LULTRA =        F    use ultrasoft PP ?                                                          
   IUNSCR =        1    unscreen: 0-lin 1-nonlin 2-no                                               
   RPACOR =    2.170    partial core radius                                                         
   POMASS =   72.610; ZVAL   =    4.000    mass and valenz                                          
   RCORE  =    2.300    outmost cutoff radius                                                       
   RWIGS  =    2.300; RWIGS  =    1.217    wigner-seitz radius (au A)                               
   ENMAX  =  173.807; ENMIN  =  130.355 eV                                                          
   ICORE  =        3    local potential                                                             
   LCOR   =        T    correct aug charges                                                         
   LPAW   =        T    paw PP                                                                      
   EAUG   =  385.843                                                                                
   DEXC   =    0.000                                                                                
   RMAX   =    2.342    core radius for proj-oper                                                   
   RAUG   =    1.300    factor for augmentation sphere                                              
   RDEP   =    2.318    radius for radial grids                                                     
   RDEPT  =    2.103    core radius for aug-charge                                                  
                                                                                                    
   Atomic configuration                                                                             
   10 entries                                                                                       
     n  l   j            E        occ.                                                              
     1  0  0.50    -10959.8463   2.0000                                                             
     2  0  0.50     -1371.6056   2.0000                                                             
     2  1  1.50     -1198.4791   6.0000                                                             
     3  0  0.50      -168.4733   2.0000                                                             
     3  1  1.50      -115.6019   6.0000                                                             
     3  2  2.50       -29.3106  10.0000                                                             
     4  0  0.50       -11.7309   2.0000                                                             
     4  1  0.50        -3.8952   2.0000                                                             
     4  2  1.50        -4.0817   0.0000                                                             
     4  3  2.50        -4.0817   0.0000                                                             
   Description                                                                                      
     l       E           TYP  RCUT    TYP  RCUT                                                     
     0    -11.7309493     23  2.300                                                                 
     0     -7.4578696     23  2.300                                                                 
     1     -3.8952261     23  2.300                                                                 
     1      6.1178114     23  2.300                                                                 
     2     -4.0817478     23  2.300                                                                 
     3     -1.3605826      7  2.300                                                                 
  local pseudopotential read in
  partial core-charges read in
  partial kinetic energy density read in
  atomic valenz-charges read in
  non local Contribution for L=            0  read in
    real space projection operators read in
  non local Contribution for L=            0  read in
    real space projection operators read in
  non local Contribution for L=            1  read in
    real space projection operators read in
  non local Contribution for L=            1  read in
    real space projection operators read in
  non local Contribution for L=            2  read in
    real space projection operators read in
    PAW grid and wavefunctions read in
 
   number of l-projection  operators is LMAX  =            5
   number of lm-projection operators is LMMAX =           13
 
 POTCAR:    PAW_PBE Se 06Sep2000                  
   VRHFIN =Se: s2p4                                                                                 
   LEXCH  = PE                                                                                      
   EATOM  =   257.1286 eV,   18.8984 Ry                                                             
                                                                                                    
   TITEL  = PAW_PBE Se 06Sep2000                                                                    
   LULTRA =        F    use ultrasoft PP ?                                                          
   IUNSCR =        1    unscreen: 0-lin 1-nonlin 2-no                                               
   RPACOR =    1.900    partial core radius                                                         
   POMASS =   78.960; ZVAL   =    6.000    mass and valenz                                          
   RCORE  =    2.100    outmost cutoff radius                                                       
   RWIGS  =    2.200; RWIGS  =    1.164    wigner-seitz radius (au A)                               
   ENMAX  =  211.555; ENMIN  =  158.666 eV                                                          
   ICORE  =        3    local potential                                                             
   LCOR   =        T    correct aug charges                                                         
   LPAW   =        T    paw PP                                                                      
   EAUG   =  446.842                                                                                
   DEXC   =    0.000                                                                                
   RMAX   =    2.147    core radius for proj-oper                                                   
   RAUG   =    1.300    factor for augmentation sphere                                              
   RDEP   =    2.177    radius for radial grids                                                     
   RDEPT  =    1.928    core radius for aug-charge                                                  
                                                                                                    
   Atomic configuration                                                                             
   10 entries                                                                                       
     n  l   j            E        occ.                                                              
     1  0  0.50    -12503.4787   2.0000                                                             
     2  0  0.50     -1606.9547   2.0000                                                             
     2  1  1.50     -1413.3140   6.0000                                                             
     3  0  0.50      -213.4885   2.0000                                                             
     3  1  1.50      -152.9538   6.0000                                                             
     3  2  2.50       -53.1221  10.0000                                                             
     4  0  0.50       -17.2865   2.0000                                                             
     4  1  0.50        -6.5110   4.0000                                                             
     4  2  2.50        -6.8029   0.0000                                                             
     4  3  2.50        -6.8029   0.0000                                                             
   Description                                                                                      
     l       E           TYP  RCUT    TYP  RCUT                                                     
     0    -17.2865377     23  2.100                                                                 
     0    -15.3094411     23  2.100                                                                 
     1     -6.5110275     23  2.100                                                                 
     1     -0.0695192     23  2.100                                                                 
     2     -6.8029130     23  2.100                                                                 
     3     -1.3605826      7  2.100                                                                 
  local pseudopotential read in
  partial core-charges read in
  partial kinetic energy density read in
  atomic valenz-charges read in
  non local Contribution for L=            0  read in
    real space projection operators read in
  non local Contribution for L=            0  read in
    real space projection operators read in
  non local Contribution for L=            1  read in
    real space projection operators read in
  non local Contribution for L=            1  read in
    real space projection operators read in
  non local Contribution for L=            2  read in
    real space projection operators read in
    PAW grid and wavefunctions read in
 
   number of l-projection  operators is LMAX  =            5
   number of lm-projection operators is LMMAX =           13
 
  PAW_PBE Ge 05Jan2001                  :
 energy of atom  1       EATOM= -104.9960
 kinetic energy error for atom=    0.0002 (will be added to EATOM!!)
  PAW_PBE Se 06Sep2000                  :
 energy of atom  2       EATOM= -257.1286
 kinetic energy error for atom=    0.0007 (will be added to EATOM!!)
 
 
 POSCAR: Ge Se
  positions in cartesian coordinates
  No initial velocities read in
 exchange correlation table for  LEXCH =        8
   RHO(1)=    0.500       N(1)  =     2000
   RHO(2)=  100.500       N(2)  =     4000
 


--------------------------------------------------------------------------------------------------------


 ion  position               nearest neighbor table
   1  0.496  0.042  0.123-   6 2.60   6 2.60   5 2.60
   2  0.996  0.542  0.377-   5 2.60   5 2.60   6 2.60
   3  0.750  0.886  0.877-   8 2.60   8 2.60   7 2.60
   4  0.250  0.386  0.623-   7 2.60   7 2.60   8 2.60
   5  0.496  0.921  0.352-   2 2.60   2 2.60   1 2.60
   6  0.996  0.421  0.148-   1 2.60   1 2.60   2 2.60
   7  0.750  0.007  0.648-   4 2.60   4 2.60   3 2.60
   8  0.250  0.507  0.852-   3 2.60   3 2.60   4 2.60
 

IMPORTANT INFORMATION: All symmetrisations will be switched off!
NOSYMM: (Re-)initialisation of all symmetry stuff for point group C_1.


----------------------------------------------------------------------------------------

                                     Primitive cell                                     

  volume of cell :     193.5913

  direct lattice vectors                    reciprocal lattice vectors
     3.858100176  0.000000000  0.000000000     0.259194929  0.000000000  0.000000000
     0.000000000  4.526575088  0.000000000     0.000000000  0.220917577  0.000000000
     0.000000000  0.000000000 11.085176468     0.000000000  0.000000000  0.090210562

  length of vectors
     3.858100176  4.526575088 11.085176468     0.259194929  0.220917577  0.090210562

  position of ions in fractional coordinates (direct lattice)
     0.496376812  0.041656666  0.122982664
     0.996376812  0.541656666  0.377017336
     0.750000000  0.885879566  0.877017336
     0.250000000  0.385879566  0.622982664
     0.496376812  0.920846121  0.352381810
     0.996376812  0.420846121  0.147618190
     0.750000000  0.006690111  0.647618190
     0.250000000  0.506690111  0.852381810

  ion indices of the primitive-cell ions
   primitive index   ion index
                 1           1
                 2           2
                 3           3
                 4           4
                 5           5
                 6           6
                 7           7
                 8           8

----------------------------------------------------------------------------------------

 
 
 KPOINTS: KPOINTS created by Atomic Simulation Env

Automatic generation of k-mesh.
 Grid dimensions read from file:
 generate k-points for:    6    6    2

 Generating k-lattice:

  Cartesian coordinates                     Fractional coordinates (reciprocal lattice)
     0.043199155  0.000000000  0.000000000     0.166666667  0.000000000  0.000000000
     0.000000000  0.036819596  0.000000000     0.000000000  0.166666667  0.000000000
     0.000000000  0.000000000  0.045105281     0.000000000  0.000000000  0.500000000

  Length of vectors
     0.043199155  0.036819596  0.045105281

  Shift w.r.t. Gamma in fractional coordinates (k-lattice)
     0.000000000  0.000000000  0.000000000

 
 Subroutine IBZKPT returns following result:
 ===========================================
 
 Found     40 irreducible k-points:
 
 Following reciprocal coordinates:
            Coordinates               Weight
  0.000000  0.000000  0.000000      1.000000
  0.166667  0.000000  0.000000      2.000000
  0.333333  0.000000  0.000000      2.000000
  0.500000  0.000000  0.000000      1.000000
  0.000000  0.166667  0.000000      2.000000
  0.166667  0.166667  0.000000      2.000000
  0.166667 -0.166667  0.000000      2.000000
  0.333333  0.166667  0.000000      2.000000
  0.333333 -0.166667  0.000000      2.000000
  0.500000  0.166667  0.000000      2.000000
  0.000000  0.333333  0.000000      2.000000
  0.166667  0.333333  0.000000      2.000000
  0.166667 -0.333333  0.000000      2.000000
  0.333333  0.333333  0.000000      2.000000
  0.333333 -0.333333  0.000000      2.000000
  0.500000  0.333333  0.000000      2.000000
  0.000000  0.500000  0.000000      1.000000
  0.166667  0.500000  0.000000      2.000000
  0.333333  0.500000  0.000000      2.000000
  0.500000  0.500000  0.000000      1.000000
  0.000000  0.000000  0.500000      1.000000
  0.166667  0.000000  0.500000      2.000000
  0.333333  0.000000  0.500000      2.000000
  0.500000  0.000000  0.500000      1.000000
  0.000000  0.166667  0.500000      2.000000
  0.166667  0.166667  0.500000      2.000000
  0.166667 -0.166667  0.500000      2.000000
  0.333333  0.166667  0.500000      2.000000
  0.333333 -0.166667  0.500000      2.000000
  0.500000  0.166667  0.500000      2.000000
  0.000000  0.333333  0.500000      2.000000
  0.166667  0.333333  0.500000      2.000000
  0.166667 -0.333333  0.500000      2.000000
  0.333333  0.333333  0.500000      2.000000
  0.333333 -0.333333  0.500000      2.000000
  0.500000  0.333333  0.500000      2.000000
  0.000000  0.500000  0.500000      1.000000
  0.166667  0.500000  0.500000      2.000000
  0.333333  0.500000  0.500000      2.000000
  0.500000  0.500000  0.500000      1.000000
 
 Following cartesian coordinates:
            Coordinates               Weight
  0.000000  0.000000  0.000000      1.000000
  0.043199  0.000000  0.000000      2.000000
  0.086398  0.000000  0.000000      2.000000
  0.129597  0.000000  0.000000      1.000000
  0.000000  0.036820  0.000000      2.000000
  0.043199  0.036820  0.000000      2.000000
  0.043199 -0.036820  0.000000      2.000000
  0.086398  0.036820  0.000000      2.000000
  0.086398 -0.036820  0.000000      2.000000
  0.129597  0.036820  0.000000      2.000000
  0.000000  0.073639  0.000000      2.000000
  0.043199  0.073639  0.000000      2.000000
  0.043199 -0.073639  0.000000      2.000000
  0.086398  0.073639  0.000000      2.000000
  0.086398 -0.073639  0.000000      2.000000
  0.129597  0.073639  0.000000      2.000000
  0.000000  0.110459  0.000000      1.000000
  0.043199  0.110459  0.000000      2.000000
  0.086398  0.110459  0.000000      2.000000
  0.129597  0.110459  0.000000      1.000000
  0.000000  0.000000  0.045105      1.000000
  0.043199  0.000000  0.045105      2.000000
  0.086398  0.000000  0.045105      2.000000
  0.129597  0.000000  0.045105      1.000000
  0.000000  0.036820  0.045105      2.000000
  0.043199  0.036820  0.045105      2.000000
  0.043199 -0.036820  0.045105      2.000000
  0.086398  0.036820  0.045105      2.000000
  0.086398 -0.036820  0.045105      2.000000
  0.129597  0.036820  0.045105      2.000000
  0.000000  0.073639  0.045105      2.000000
  0.043199  0.073639  0.045105      2.000000
  0.043199 -0.073639  0.045105      2.000000
  0.086398  0.073639  0.045105      2.000000
  0.086398 -0.073639  0.045105      2.000000
  0.129597  0.073639  0.045105      2.000000
  0.000000  0.110459  0.045105      1.000000
  0.043199  0.110459  0.045105      2.000000
  0.086398  0.110459  0.045105      2.000000
  0.129597  0.110459  0.045105      1.000000
 


--------------------------------------------------------------------------------------------------------




 Dimension of arrays:
   k-points           NKPTS =     40   k-points in BZ     NKDIM =     40   number of bands    NBANDS=     32
   number of dos      NEDOS =    301   number of ions     NIONS =      8
   non local maximal  LDIM  =      5   non local SUM 2l+1 LMDIM =     13
   total plane-waves  NPLWV =  43008
   max r-space proj   IRMAX =      1   max aug-charges    IRDMAX=  12272
   dimension x,y,z NGX =    24 NGY =   28 NGZ =   64
   dimension x,y,z NGXF=    48 NGYF=   56 NGZF=  128
   support grid    NGXF=    48 NGYF=   56 NGZF=  128
   ions per type =               4   4
   NGX,Y,Z   is equivalent  to a cutoff of  10.34, 10.28,  9.60 a.u.
   NGXF,Y,Z  is equivalent  to a cutoff of  20.68, 20.57, 19.20 a.u.

 SYSTEM =  ./                                      
 POSCAR =  Ge Se                                   

 Startparameter for this run:
   NWRITE =      2    write-flag & timer
   PREC   = normal    normal or accurate (medium, high low for compatibility)
   ISTART =      0    job   : 0-new  1-cont  2-samecut
   ICHARG =      2    charge: 1-file 2-atom 10-const
   ISPIN  =      1    spin polarized calculation?
   LNONCOLLINEAR =      F non collinear calculations
   LSORBIT =      F    spin-orbit coupling
   INIWAV =      1    electr: 0-lowe 1-rand  2-diag
   LASPH  =      T    aspherical Exc in radial PAW
 Electronic Relaxation 1
   ENCUT  =  520.0 eV  38.22 Ry    6.18 a.u.   7.17  8.42 20.61*2*pi/ulx,y,z
   ENINI  =  520.0     initial cutoff
   ENAUG  =  446.8 eV  augmentation charge cutoff
   NELM   =    100;   NELMIN=  2; NELMDL= -5     # of ELM steps 
   EDIFF  = 0.1E-05   stopping-criterion for ELM
   LREAL  =      F    real-space projection
   NLSPLINE    = F    spline interpolate recip. space projectors
   LCOMPAT=      F    compatible to vasp.4.4
   GGA_COMPAT  = T    GGA compatible to vasp.4.4-vasp.4.6
   LMAXPAW     = -100 max onsite density
   LMAXMIX     =    4 max onsite mixed and CHGCAR
   VOSKOWN=      0    Vosko Wilk Nusair interpolation
   ROPT   =    0.00000   0.00000
 Ionic relaxation
   EDIFFG = 0.1E-04   stopping-criterion for IOM
   NSW    =      0    number of steps for IOM
   NBLOCK =      1;   KBLOCK =      1    inner block; outer block 
   IBRION =     -1    ionic relax: 0-MD 1-quasi-New 2-CG
   NFREE  =      0    steps in history (QN), initial steepest desc. (CG)
   ISIF   =      2    stress and relaxation
   IWAVPR =     10    prediction:  0-non 1-charg 2-wave 3-comb
   ISYM   =      0    0-nonsym 1-usesym 2-fastsym
   LCORR  =      T    Harris-Foulkes like correction to forces

   POTIM  = 0.5000    time-step for ionic-motion
   TEIN   =    0.0    initial temperature
   TEBEG  =    0.0;   TEEND  =   0.0 temperature during run
   SMASS  =  -3.00    Nose mass-parameter (am)
   estimated Nose-frequenzy (Omega)   =  0.10E-29 period in steps = 0.13E+47 mass=  -0.340E-27a.u.
   SCALEE = 1.0000    scale energy and forces
   NPACO  =    256;   APACO  = 10.0  distance and # of slots for P.C.
   PSTRESS=    0.0 pullay stress

  Mass of Ions in am
   POMASS =  72.61 78.96
  Ionic Valenz
   ZVAL   =   4.00  6.00
  Atomic Wigner-Seitz radii
   RWIGS  =  -1.00 -1.00
  virtual crystal weights 
   VCA    =   1.00  1.00
   NELECT =      40.0000    total number of electrons
   NUPDOWN=      -1.0000    fix difference up-down

 DOS related values:
   EMIN   =  10.00;   EMAX   =-10.00  energy-range for DOS
   EFERMI =   0.00;   METHOD = LEGACY      
   ISMEAR =     0;   SIGMA  =   0.05  broadening in eV -4-tet -1-fermi 0-gaus

 Electronic relaxation 2 (details)
   IALGO  =     38    algorithm
   LDIAG  =      T    sub-space diagonalisation (order eigenvalues)
   LSUBROT=      F    optimize rotation matrix (better conditioning)
   TURBO    =      0    0=normal 1=particle mesh
   IRESTART =      0    0=no restart 2=restart with 2 vectors
   NREBOOT  =      0    no. of reboots
   NMIN     =      0    reboot dimension
   EREF     =   0.00    reference energy to select bands
   IMIX   =      4    mixing-type and parameters
     AMIX     =   0.40;   BMIX     =  1.00
     AMIX_MAG =   1.60;   BMIX_MAG =  1.00
     AMIN     =   0.10
     WC   =   100.;   INIMIX=   1;  MIXPRE=   1;  MAXMIX= -45

 Intra band minimization:
   WEIMIN = 0.0000     energy-eigenvalue tresh-hold
   EBREAK =  0.78E-08  absolut break condition
   DEPER  =   0.30     relativ break condition  

   TIME   =   0.40     timestep for ELM

  volume/ion in A,a.u.               =      24.20       163.30
  Fermi-wavevector in a.u.,A,eV,Ry     =   0.967831  1.828935 12.744535  0.936697
  Thomas-Fermi vector in A             =   2.097750
 
 Write flags
   LWAVE        =      F    write WAVECAR
   LDOWNSAMPLE  =      F    k-point downsampling of WAVECAR
   LCHARG       =      F    write CHGCAR
   LVTOT        =      F    write LOCPOT, total local potential
   LVHAR        =      F    write LOCPOT, Hartree potential only
   LELF         =      F    write electronic localiz. function (ELF)
   LORBIT       =      0    0 simple, 1 ext, 2 COOP (PROOUT), +10 PAW based schemes


 Dipole corrections
   LMONO  =      F    monopole corrections only (constant potential shift)
   LDIPOL =      F    correct potential (dipole corrections)
   IDIPOL =      0    1-x, 2-y, 3-z, 4-all directions 
   EPSILON=  1.0000000 bulk dielectric constant

 Exchange correlation treatment:
   GGA     =    PE    GGA type
   LEXCH   =     8    internal setting for exchange type
   LIBXC   =     F    Libxc                    
   VOSKOWN =     0    Vosko Wilk Nusair interpolation
   LHFCALC =     F    Hartree Fock is set to
   LHFONE  =     F    Hartree Fock one center treatment
   AEXX    =    0.0000 exact exchange contribution

 Linear response parameters
   LEPSILON=     F    determine dielectric tensor
   LRPA    =     F    only Hartree local field effects (RPA)
   LNABLA  =     F    use nabla operator in PAW spheres
   LVEL    =     F    velocity operator in full k-point grid
   CSHIFT  =0.1000    complex shift for real part using Kramers Kronig
   OMEGAMAX=  -1.0    maximum frequency
   DEG_THRESHOLD= 0.2000000E-02 threshold for treating states as degnerate
   RTIME   =   -0.100 relaxation time in fs
  (WPLASMAI=    0.000 imaginary part of plasma frequency in eV, 0.658/RTIME)
   DFIELD  = 0.0000000 0.0000000 0.0000000 field for delta impulse in time
 
  Optional k-point grid parameters
   LKPOINTS_OPT  =     F    use optional k-point grid
   KPOINTS_OPT_MODE=     1    mode for optional k-point grid
 
 Orbital magnetization related:
   ORBITALMAG=     F  switch on orbital magnetization
   LCHIMAG   =     F  perturbation theory with respect to B field
   DQ        =  0.001000  dq finite difference perturbation B field
   LLRAUG    =     F  two centre corrections for induced B field
   LBONE     =     F  B-component reconstruction in AE one-centre
   LVGVCALC  =     T  calculate vGv susceptibility
   LVGVAPPL  =     F  apply vGv susceptibility instead of pGv for G=0

 Random number generation:
   RANDOM_GENERATOR = DEFAULT
   PCG_SEED         = not used


--------------------------------------------------------------------------------------------------------


 Static calculation
 charge density and potential will be updated during run
 non-spin polarized calculation
 Variant of blocked Davidson
 Davidson routine will perform the subspace rotation
 perform sub-space diagonalisation
    after iterative eigenvector-optimisation
 modified Broyden-mixing scheme, WC =      100.0
 initial mixing is a Kerker type mixing with AMIX =  0.4000 and BMIX =      1.0000
 Hartree-type preconditioning will be used
 using additional bands            12
 reciprocal scheme for non local part
 use partial core corrections
 calculate Harris-corrections to forces 
   (improved forces if not selfconsistent)
 use gradient corrections 
 use of overlap-Matrix (Vanderbilt PP)
 Gauss-broadening in eV      SIGMA  =   0.05


--------------------------------------------------------------------------------------------------------


  energy-cutoff  :      520.00
  volume of cell :      193.59
      direct lattice vectors                 reciprocal lattice vectors
     3.858100176  0.000000000  0.000000000     0.259194929  0.000000000  0.000000000
     0.000000000  4.526575088  0.000000000     0.000000000  0.220917577  0.000000000
     0.000000000  0.000000000 11.085176468     0.000000000  0.000000000  0.090210562

  length of vectors
     3.858100176  4.526575088 11.085176468     0.259194929  0.220917577  0.090210562


 
 k-points in units of 2pi/SCALE and weight: KPOINTS created by Atomic Simulation Env
   0.00000000  0.00000000  0.00000000       0.014
   0.04319915  0.00000000  0.00000000       0.028
   0.08639831  0.00000000  0.00000000       0.028
   0.12959746  0.00000000  0.00000000       0.014
   0.00000000  0.03681960  0.00000000       0.028
   0.04319915  0.03681960  0.00000000       0.028
   0.04319915 -0.03681960  0.00000000       0.028
   0.08639831  0.03681960  0.00000000       0.028
   0.08639831 -0.03681960  0.00000000       0.028
   0.12959746  0.03681960  0.00000000       0.028
   0.00000000  0.07363919  0.00000000       0.028
   0.04319915  0.07363919  0.00000000       0.028
   0.04319915 -0.07363919  0.00000000       0.028
   0.08639831  0.07363919  0.00000000       0.028
   0.08639831 -0.07363919  0.00000000       0.028
   0.12959746  0.07363919  0.00000000       0.028
   0.00000000  0.11045879  0.00000000       0.014
   0.04319915  0.11045879  0.00000000       0.028
   0.08639831  0.11045879  0.00000000       0.028
   0.12959746  0.11045879  0.00000000       0.014
   0.00000000  0.00000000  0.04510528       0.014
   0.04319915  0.00000000  0.04510528       0.028
   0.08639831  0.00000000  0.04510528       0.028
   0.12959746  0.00000000  0.04510528       0.014
   0.00000000  0.03681960  0.04510528       0.028
   0.04319915  0.03681960  0.04510528       0.028
   0.04319915 -0.03681960  0.04510528       0.028
   0.08639831  0.03681960  0.04510528       0.028
   0.08639831 -0.03681960  0.04510528       0.028
   0.12959746  0.03681960  0.04510528       0.028
   0.00000000  0.07363919  0.04510528       0.028
   0.04319915  0.07363919  0.04510528       0.028
   0.04319915 -0.07363919  0.04510528       0.028
   0.08639831  0.07363919  0.04510528       0.028
   0.08639831 -0.07363919  0.04510528       0.028
   0.12959746  0.07363919  0.04510528       0.028
   0.00000000  0.11045879  0.04510528       0.014
   0.04319915  0.11045879  0.04510528       0.028
   0.08639831  0.11045879  0.04510528       0.028
   0.12959746  0.11045879  0.04510528       0.014
 
 k-points in reciprocal lattice and weights: KPOINTS created by Atomic Simulation Env
   0.00000000  0.00000000  0.00000000       0.014
   0.16666667  0.00000000  0.00000000       0.028
   0.33333333  0.00000000  0.00000000       0.028
   0.50000000  0.00000000  0.00000000       0.014
   0.00000000  0.16666667  0.00000000       0.028
   0.16666667  0.16666667  0.00000000       0.028
   0.16666667 -0.16666667  0.00000000       0.028
   0.33333333  0.16666667  0.00000000       0.028
   0.33333333 -0.16666667  0.00000000       0.028
   0.50000000  0.16666667  0.00000000       0.028
   0.00000000  0.33333333  0.00000000       0.028
   0.16666667  0.33333333  0.00000000       0.028
   0.16666667 -0.33333333  0.00000000       0.028
   0.33333333  0.33333333  0.00000000       0.028
   0.33333333 -0.33333333  0.00000000       0.028
   0.50000000  0.33333333  0.00000000       0.028
   0.00000000  0.50000000  0.00000000       0.014
   0.16666667  0.50000000  0.00000000       0.028
   0.33333333  0.50000000  0.00000000       0.028
   0.50000000  0.50000000  0.00000000       0.014
   0.00000000  0.00000000  0.50000000       0.014
   0.16666667  0.00000000  0.50000000       0.028
   0.33333333  0.00000000  0.50000000       0.028
   0.50000000  0.00000000  0.50000000       0.014
   0.00000000  0.16666667  0.50000000       0.028
   0.16666667  0.16666667  0.50000000       0.028
   0.16666667 -0.16666667  0.50000000       0.028
   0.33333333  0.16666667  0.50000000       0.028
   0.33333333 -0.16666667  0.50000000       0.028
   0.50000000  0.16666667  0.50000000       0.028
   0.00000000  0.33333333  0.50000000       0.028
   0.16666667  0.33333333  0.50000000       0.028
   0.16666667 -0.33333333  0.50000000       0.028
   0.33333333  0.33333333  0.50000000       0.028
   0.33333333 -0.33333333  0.50000000       0.028
   0.50000000  0.33333333  0.50000000       0.028
   0.00000000  0.50000000  0.50000000       0.014
   0.16666667  0.50000000  0.50000000       0.028
   0.33333333  0.50000000  0.50000000       0.028
   0.50000000  0.50000000  0.50000000       0.014
 
 position of ions in fractional coordinates (direct lattice) 
   0.49637681  0.04165667  0.12298266
   0.99637681  0.54165667  0.37701734
   0.75000000  0.88587957  0.87701734
   0.25000000  0.38587957  0.62298266
   0.49637681  0.92084612  0.35238181
   0.99637681  0.42084612  0.14761819
   0.75000000  0.00669011  0.64761819
   0.25000000  0.50669011  0.85238181
 
 position of ions in cartesian coordinates  (Angst):
   1.91507146  0.18856203  1.36328454
   3.84412155  2.45184957  4.17930370
   2.89357513  4.01000037  9.72189193
   0.96452504  1.74671283  6.90587277
   1.91507146  4.16827911  3.90621455
   3.84412155  1.90499157  1.63637368
   2.89357513  0.03028329  7.17896192
   0.96452504  2.29357083  9.44880278
 


--------------------------------------------------------------------------------------------------------


 k-point   1 :   0.0000 0.0000 0.0000  plane waves:    5211
 k-point   2 :   0.1667 0.0000 0.0000  plane waves:    5225
 k-point   3 :   0.3333 0.0000 0.0000  plane waves:    5224
 k-point   4 :   0.5000 0.0000 0.0000  plane waves:    5258
 k-point   5 :   0.0000 0.1667 0.0000  plane waves:    5209
 k-point   6 :   0.1667 0.1667 0.0000  plane waves:    5201
 k-point   7 :   0.1667-0.1667 0.0000  plane waves:    5201
 k-point   8 :   0.3333 0.1667 0.0000  plane waves:    5230
 k-point   9 :   0.3333-0.1667 0.0000  plane waves:    5230
 k-point  10 :   0.5000 0.1667 0.0000  plane waves:    5236
 k-point  11 :   0.0000 0.3333 0.0000  plane waves:    5213
 k-point  12 :   0.1667 0.3333 0.0000  plane waves:    5199
 k-point  13 :   0.1667-0.3333 0.0000  plane waves:    5199
 k-point  14 :   0.3333 0.3333 0.0000  plane waves:    5211
 k-point  15 :   0.3333-0.3333 0.0000  plane waves:    5211
 k-point  16 :   0.5000 0.3333 0.0000  plane waves:    5230
 k-point  17 :   0.0000 0.5000 0.0000  plane waves:    5220
 k-point  18 :   0.1667 0.5000 0.0000  plane waves:    5208
 k-point  19 :   0.3333 0.5000 0.0000  plane waves:    5230
 k-point  20 :   0.5000 0.5000 0.0000  plane waves:    5180
 k-point  21 :   0.0000 0.0000 0.5000  plane waves:    5210
 k-point  22 :   0.1667 0.0000 0.5000  plane waves:    5178
 k-point  23 :   0.3333 0.0000 0.5000  plane waves:    5214
 k-point  24 :   0.5000 0.0000 0.5000  plane waves:    5232
 k-point  25 :   0.0000 0.1667 0.5000  plane waves:    5224
 k-point  26 :   0.1667 0.1667 0.5000  plane waves:    5210
 k-point  27 :   0.1667-0.1667 0.5000  plane waves:    5210
 k-point  28 :   0.3333 0.1667 0.5000  plane waves:    5196
 k-point  29 :   0.3333-0.1667 0.5000  plane waves:    5196
 k-point  30 :   0.5000 0.1667 0.5000  plane waves:    5224
 k-point  31 :   0.0000 0.3333 0.5000  plane waves:    5202
 k-point  32 :   0.1667 0.3333 0.5000  plane waves:    5214
 k-point  33 :   0.1667-0.3333 0.5000  plane waves:    5214
 k-point  34 :   0.3333 0.3333 0.5000  plane waves:    5216
 k-point  35 :   0.3333-0.3333 0.5000  plane waves:    5216
 k-point  36 :   0.5000 0.3333 0.5000  plane waves:    5216
 k-point  37 :   0.0000 0.5000 0.5000  plane waves:    5212
 k-point  38 :   0.1667 0.5000 0.5000  plane waves:    5192
 k-point  39 :   0.3333 0.5000 0.5000  plane waves:    5208
 k-point  40 :   0.5000 0.5000 0.5000  plane waves:    5208

 maximum and minimum number of plane-waves per node :      1076     1017

 maximum number of plane-waves:      5258
 maximum index in each direction: 
   IXMAX=    7   IYMAX=    8   IZMAX=   20
   IXMIN=   -7   IYMIN=   -8   IZMIN=  -21


 parallel 3D FFT for wavefunctions:
    minimum data exchange during FFTs selected (reduces bandwidth)
 parallel 3D FFT for charge:
    minimum data exchange during FFTs selected (reduces bandwidth)


 total amount of memory used by VASP MPI-rank0    41770. kBytes
=======================================================================

   base      :      30000. kBytes
   nonl-proj :       9056. kBytes
   fftplans  :        519. kBytes
   grid      :        766. kBytes
   one-center:         16. kBytes
   wavefun   :       1413. kBytes
 
     INWAV:  cpu time      0.0000: real time      0.0001
 Broyden mixing: mesh for mixing (old mesh)
   NGX = 15   NGY = 17   NGZ = 41
  (NGX  = 48   NGY  = 56   NGZ  =128)
  gives a total of  10455 points

 initial charge density was supplied:
 charge density of overlapping atoms calculated
 number of electron      40.0000000 magnetization 
 keeping initial charge density in first step


--------------------------------------------------------------------------------------------------------


 Maximum index for augmentation-charges           607 (set IRDMAX)


--------------------------------------------------------------------------------------------------------


 First call to EWALD:  gamma=   0.306
 Maximum number of real-space cells 4x 3x 2
 Maximum number of reciprocal cells 2x 2x 5

    FEWALD:  cpu time      0.0012: real time      0.0012


--------------------------------------- Ionic step        1  -------------------------------------------




--------------------------------------- Iteration      1(   1)  ---------------------------------------


    POTLOK:  cpu time      0.0109: real time      0.0110
    SETDIJ:  cpu time      0.2181: real time      0.2187
     EDDAV:  cpu time      0.3481: real time      0.3495
       DOS:  cpu time      0.0011: real time      0.0011
    --------------------------------------------
      LOOP:  cpu time      0.5781: real time      0.5802

 eigenvalue-minimisations  :  2560
 total energy-change (2. order) : 0.1641792E+03  (-0.1588869E+04)
 number of electron      40.0000000 magnetization 
 augmentation part       40.0000000 magnetization 

 Free energy of the ion-electron system (eV)
  ---------------------------------------------------
  alpha Z        PSCENC =        87.52689448
  Ewald energy   TEWEN  =     -1419.53186068
  -Hartree energ DENC   =      -127.16781017
  -exchange      EXHF   =         0.00000000
  -V(xc)+E(xc)   XCENC  =       -33.36606493
  PAW double counting   =      1193.78262552    -1080.73714043
  entropy T*S    EENTRO =        -0.00368932
  eigenvalues    EBANDS =        95.18165583
  atomic energy  EATOM  =      1448.49460871
  Solvation  Ediel_sol  =         0.00000000
  ---------------------------------------------------
  free energy    TOTEN  =       164.17921900 eV

  energy without entropy =      164.18290832  energy(sigma->0) =      164.18106366


--------------------------------------------------------------------------------------------------------




--------------------------------------- Iteration      1(   2)  ---------------------------------------


     EDDAV:  cpu time      0.4892: real time      0.4922
       DOS:  cpu time      0.0010: real time      0.0010
    --------------------------------------------
      LOOP:  cpu time      0.4901: real time      0.4932

 eigenvalue-minimisations  :  3680
 total energy-change (2. order) :-0.1866033E+03  (-0.1810616E+03)
 number of electron      40.0000000 magnetization 
 augmentation part       40.0000000 magnetization 

 Free energy of the ion-electron system (eV)
  ---------------------------------------------------
  alpha Z        PSCENC =        87.52689448
  Ewald energy   TEWEN  =     -1419.53186068
  -Hartree energ DENC   =      -127.16781017
  -exchange      EXHF   =         0.00000000
  -V(xc)+E(xc)   XCENC  =       -33.36606493
  PAW double counting   =      1193.78262552    -1080.73714043
  entropy T*S    EENTRO =        -0.00039576
  eigenvalues    EBANDS =       -91.42496859
  atomic energy  EATOM  =      1448.49460871
  Solvation  Ediel_sol  =         0.00000000
  ---------------------------------------------------
  free energy    TOTEN  =       -22.42411185 eV

  energy without entropy =      -22.42371609  energy(sigma->0) =      -22.42391397


--------------------------------------------------------------------------------------------------------




--------------------------------------- Iteration      1(   3)  ---------------------------------------


     EDDAV:  cpu time      0.5209: real time      0.5237
       DOS:  cpu time      0.0007: real time      0.0007
    --------------------------------------------
      LOOP:  cpu time      0.5216: real time      0.5244

 eigenvalue-minimisations  :  3408
 total energy-change (2. order) :-0.1143008E+02  (-0.1139918E+02)
 number of electron      40.0000000 magnetization 
 augmentation part       40.0000000 magnetization 

 Free energy of the ion-electron system (eV)
  ---------------------------------------------------
  alpha Z        PSCENC =        87.52689448
  Ewald energy   TEWEN  =     -1419.53186068
  -Hartree energ DENC   =      -127.16781017
  -exchange      EXHF   =         0.00000000
  -V(xc)+E(xc)   XCENC  =       -33.36606493
  PAW double counting   =      1193.78262552    -1080.73714043
  entropy T*S    EENTRO =        -0.00000000
  eigenvalues    EBANDS =      -102.85544789
  atomic energy  EATOM  =      1448.49460871
  Solvation  Ediel_sol  =         0.00000000
  ---------------------------------------------------
  free energy    TOTEN  =       -33.85419540 eV

  energy without entropy =      -33.85419540  energy(sigma->0) =      -33.85419540


--------------------------------------------------------------------------------------------------------




--------------------------------------- Iteration      1(   4)  ---------------------------------------


     EDDAV:  cpu time      0.4330: real time      0.4355
       DOS:  cpu time      0.0007: real time      0.0007
    --------------------------------------------
      LOOP:  cpu time      0.4338: real time      0.4362

 eigenvalue-minimisations  :  3200
 total energy-change (2. order) :-0.8646865E-01  (-0.8645583E-01)
 number of electron      40.0000000 magnetization 
 augmentation part       40.0000000 magnetization 

 Free energy of the ion-electron system (eV)
  ---------------------------------------------------
  alpha Z        PSCENC =        87.52689448
  Ewald energy   TEWEN  =     -1419.53186068
  -Hartree energ DENC   =      -127.16781017
  -exchange      EXHF   =         0.00000000
  -V(xc)+E(xc)   XCENC  =       -33.36606493
  PAW double counting   =      1193.78262552    -1080.73714043
  entropy T*S    EENTRO =        -0.00000000
  eigenvalues    EBANDS =      -102.94191654
  atomic energy  EATOM  =      1448.49460871
  Solvation  Ediel_sol  =         0.00000000
  ---------------------------------------------------
  free energy    TOTEN  =       -33.94066404 eV

  energy without entropy =      -33.94066404  energy(sigma->0) =      -33.94066404


--------------------------------------------------------------------------------------------------------




--------------------------------------- Iteration      1(   5)  ---------------------------------------


     EDDAV:  cpu time      0.4646: real time      0.4670
       DOS:  cpu time      0.0007: real time      0.0007
    CHARGE:  cpu time      0.0091: real time      0.0091
    MIXING:  cpu time      0.0007: real time      0.0007
    --------------------------------------------
      LOOP:  cpu time      0.4751: real time      0.4776

 eigenvalue-minimisations  :  3344
 total energy-change (2. order) :-0.5349276E-03  (-0.5349194E-03)
 number of electron      40.0000002 magnetization 
 augmentation part       -7.4138242 magnetization 

 Broyden mixing:
  rms(total) = 0.65315E+00    rms(broyden)= 0.65315E+00
  rms(prec ) = 0.73424E+00
  weight for this iteration     100.00

 Free energy of the ion-electron system (eV)
  ---------------------------------------------------
  alpha Z        PSCENC =        87.52689448
  Ewald energy   TEWEN  =     -1419.53186068
  -Hartree energ DENC   =      -127.16781017
  -exchange      EXHF   =         0.00000000
  -V(xc)+E(xc)   XCENC  =       -33.36606493
  PAW double counting   =      1193.78262552    -1080.73714043
  entropy T*S    EENTRO =        -0.00000000
  eigenvalues    EBANDS =      -102.94245147
  atomic energy  EATOM  =      1448.49460871
  Solvation  Ediel_sol  =         0.00000000
  ---------------------------------------------------
  free energy    TOTEN  =       -33.94119897 eV

  energy without entropy =      -33.94119897  energy(sigma->0) =      -33.94119897


--------------------------------------------------------------------------------------------------------




--------------------------------------- Iteration      1(   6)  ---------------------------------------


    POTLOK:  cpu time      0.0101: real time      0.0103
    SETDIJ:  cpu time      0.2173: real time      0.2178
     EDDAV:  cpu time      0.4289: real time      0.4312
       DOS:  cpu time      0.0010: real time      0.0010
    CHARGE:  cpu time      0.0086: real time      0.0086
    MIXING:  cpu time      0.0006: real time      0.0006
    --------------------------------------------
      LOOP:  cpu time      0.6665: real time      0.6696

 eigenvalue-minimisations  :  3120
 total energy-change (2. order) : 0.3581115E+00  (-0.7543369E-01)
 number of electron      40.0000002 magnetization 
 augmentation part       -7.3591902 magnetization 

 Broyden mixing:
  rms(total) = 0.41039E+00    rms(broyden)= 0.41039E+00
  rms(prec ) = 0.43204E+00
  weight for this iteration     100.00

 eigenvalues of (default mixing * dielectric matrix)
  average eigenvalue GAMMA=   2.2182
  2.2182

 Free energy of the ion-electron system (eV)
  ---------------------------------------------------
  alpha Z        PSCENC =        87.52689448
  Ewald energy   TEWEN  =     -1419.53186068
  -Hartree energ DENC   =      -133.09219064
  -exchange      EXHF   =         0.00000000
  -V(xc)+E(xc)   XCENC  =       -32.76054450
  PAW double counting   =      1459.86116654    -1347.13743053
  entropy T*S    EENTRO =        -0.00026149
  eigenvalues    EBANDS =       -96.94346938
  atomic energy  EATOM  =      1448.49460871
  Solvation  Ediel_sol  =         0.00000000
  ---------------------------------------------------
  free energy    TOTEN  =       -33.58308749 eV

  energy without entropy =      -33.58282600  energy(sigma->0) =      -33.58295675


--------------------------------------------------------------------------------------------------------




--------------------------------------- Iteration      1(   7)  ---------------------------------------


    POTLOK:  cpu time      0.0103: real time      0.0104
    SETDIJ:  cpu time      0.2174: real time      0.2179
     EDDAV:  cpu time      0.4137: real time      0.4159
       DOS:  cpu time      0.0010: real time      0.0010
    CHARGE:  cpu time      0.0088: real time      0.0089
    MIXING:  cpu time      0.0007: real time      0.0007
    --------------------------------------------
      LOOP:  cpu time      0.6519: real time      0.6547

 eigenvalue-minimisations  :  2864
 total energy-change (2. order) : 0.1337802E-01  (-0.2147101E-01)
 number of electron      40.0000002 magnetization 
 augmentation part       -7.3439757 magnetization 

 Broyden mixing:
  rms(total) = 0.12622E+00    rms(broyden)= 0.12622E+00
  rms(prec ) = 0.13472E+00
  weight for this iteration     100.00

 eigenvalues of (default mixing * dielectric matrix)
  average eigenvalue GAMMA=   1.7788
  1.1738  2.3839

 Free energy of the ion-electron system (eV)
  ---------------------------------------------------
  alpha Z        PSCENC =        87.52689448
  Ewald energy   TEWEN  =     -1419.53186068
  -Hartree energ DENC   =      -135.88127586
  -exchange      EXHF   =         0.00000000
  -V(xc)+E(xc)   XCENC  =       -32.27972102
  PAW double counting   =      1791.08442259    -1678.60576758
  entropy T*S    EENTRO =        -0.00067605
  eigenvalues    EBANDS =       -94.37633406
  atomic energy  EATOM  =      1448.49460871
  Solvation  Ediel_sol  =         0.00000000
  ---------------------------------------------------
  free energy    TOTEN  =       -33.56970947 eV

  energy without entropy =      -33.56903342  energy(sigma->0) =      -33.56937144


--------------------------------------------------------------------------------------------------------




--------------------------------------- Iteration      1(   8)  ---------------------------------------


    POTLOK:  cpu time      0.0105: real time      0.0108
    SETDIJ:  cpu time      0.2169: real time      0.2175
     EDDAV:  cpu time      0.4561: real time      0.4582
       DOS:  cpu time      0.0010: real time      0.0010
    CHARGE:  cpu time      0.0092: real time      0.0092
    MIXING:  cpu time      0.0006: real time      0.0006
    --------------------------------------------
      LOOP:  cpu time      0.6942: real time      0.6972

 eigenvalue-minimisations  :  3184
 total energy-change (2. order) : 0.8920216E-03  (-0.1938748E-02)
 number of electron      40.0000002 magnetization 
 augmentation part       -7.3512654 magnetization 

 Broyden mixing:
  rms(total) = 0.18049E-01    rms(broyden)= 0.18049E-01
  rms(prec ) = 0.22165E-01
  weight for this iteration     100.00

 eigenvalues of (default mixing * dielectric matrix)
  average eigenvalue GAMMA=   1.6890
  2.5119  1.2775  1.2775

 Free energy of the ion-electron system (eV)
  ---------------------------------------------------
  alpha Z        PSCENC =        87.52689448
  Ewald energy   TEWEN  =     -1419.53186068
  -Hartree energ DENC   =      -136.09005616
  -exchange      EXHF   =         0.00000000
  -V(xc)+E(xc)   XCENC  =       -32.13673589
  PAW double counting   =      1927.44832928    -1815.03201084
  entropy T*S    EENTRO =        -0.00048318
  eigenvalues    EBANDS =       -94.24750316
  atomic energy  EATOM  =      1448.49460871
  Solvation  Ediel_sol  =         0.00000000
  ---------------------------------------------------
  free energy    TOTEN  =       -33.56881745 eV

  energy without entropy =      -33.56833427  energy(sigma->0) =      -33.56857586


--------------------------------------------------------------------------------------------------------




--------------------------------------- Iteration      1(   9)  ---------------------------------------


    POTLOK:  cpu time      0.0107: real time      0.0108
    SETDIJ:  cpu time      0.2194: real time      0.2200
     EDDAV:  cpu time      0.4184: real time      0.4205
       DOS:  cpu time      0.0010: real time      0.0010
    CHARGE:  cpu time      0.0086: real time      0.0087
    MIXING:  cpu time      0.0006: real time      0.0006
    --------------------------------------------
      LOOP:  cpu time      0.6588: real time      0.6616

 eigenvalue-minimisations  :  3184
 total energy-change (2. order) :-0.2969081E-03  (-0.3384186E-03)
 number of electron      40.0000002 magnetization 
 augmentation part       -7.3497722 magnetization 

 Broyden mixing:
  rms(total) = 0.67229E-02    rms(broyden)= 0.67229E-02
  rms(prec ) = 0.75535E-02
  weight for this iteration     100.00

 eigenvalues of (default mixing * dielectric matrix)
  average eigenvalue GAMMA=   1.7111
  2.2724  2.2724  1.1497  1.1497

 Free energy of the ion-electron system (eV)
  ---------------------------------------------------
  alpha Z        PSCENC =        87.52689448
  Ewald energy   TEWEN  =     -1419.53186068
  -Hartree energ DENC   =      -136.43317623
  -exchange      EXHF   =         0.00000000
  -V(xc)+E(xc)   XCENC  =       -32.09587292
  PAW double counting   =      1942.22468704    -1829.81769332
  entropy T*S    EENTRO =        -0.00053333
  eigenvalues    EBANDS =       -93.93616810
  atomic energy  EATOM  =      1448.49460871
  Solvation  Ediel_sol  =         0.00000000
  ---------------------------------------------------
  free energy    TOTEN  =       -33.56911435 eV

  energy without entropy =      -33.56858103  energy(sigma->0) =      -33.56884769


--------------------------------------------------------------------------------------------------------




--------------------------------------- Iteration      1(  10)  ---------------------------------------


    POTLOK:  cpu time      0.0100: real time      0.0101
    SETDIJ:  cpu time      0.2164: real time      0.2169
     EDDAV:  cpu time      0.4572: real time      0.4598
       DOS:  cpu time      0.0077: real time      0.0077
    CHARGE:  cpu time      0.0081: real time      0.0082
    MIXING:  cpu time      0.0006: real time      0.0006
    --------------------------------------------
      LOOP:  cpu time      0.6999: real time      0.7033

 eigenvalue-minimisations  :  3200
 total energy-change (2. order) :-0.9834484E-04  (-0.2902961E-04)
 number of electron      40.0000002 magnetization 
 augmentation part       -7.3498900 magnetization 

 Broyden mixing:
  rms(total) = 0.24010E-02    rms(broyden)= 0.24010E-02
  rms(prec ) = 0.29526E-02
  weight for this iteration     100.00

 eigenvalues of (default mixing * dielectric matrix)
  average eigenvalue GAMMA=   1.7442
  2.6811  2.4682  1.1695  1.2011  1.2011

 Free energy of the ion-electron system (eV)
  ---------------------------------------------------
  alpha Z        PSCENC =        87.52689448
  Ewald energy   TEWEN  =     -1419.53186068
  -Hartree energ DENC   =      -136.45195446
  -exchange      EXHF   =         0.00000000
  -V(xc)+E(xc)   XCENC  =       -32.09354082
  PAW double counting   =      1935.64916101    -1823.23652196
  entropy T*S    EENTRO =        -0.00051846
  eigenvalues    EBANDS =       -93.92548052
  atomic energy  EATOM  =      1448.49460871
  Solvation  Ediel_sol  =         0.00000000
  ---------------------------------------------------
  free energy    TOTEN  =       -33.56921270 eV

  energy without entropy =      -33.56869423  energy(sigma->0) =      -33.56895347


--------------------------------------------------------------------------------------------------------




--------------------------------------- Iteration      1(  11)  ---------------------------------------


    POTLOK:  cpu time      0.0100: real time      0.0101
    SETDIJ:  cpu time      0.2175: real time      0.2180
     EDDAV:  cpu time      0.4426: real time      0.4445
       DOS:  cpu time      0.0009: real time      0.0009
    CHARGE:  cpu time      0.0087: real time      0.0087
    MIXING:  cpu time      0.0007: real time      0.0007
    --------------------------------------------
      LOOP:  cpu time      0.6804: real time      0.6829

 eigenvalue-minimisations  :  3072
 total energy-change (2. order) :-0.3126183E-04  (-0.4124541E-05)
 number of electron      40.0000002 magnetization 
 augmentation part       -7.3500430 magnetization 

 Broyden mixing:
  rms(total) = 0.12061E-02    rms(broyden)= 0.12061E-02
  rms(prec ) = 0.13565E-02
  weight for this iteration     100.00

 eigenvalues of (default mixing * dielectric matrix)
  average eigenvalue GAMMA=   1.7109
  2.5230  2.5230  1.9796  1.1520  1.1520  0.9355

 Free energy of the ion-electron system (eV)
  ---------------------------------------------------
  alpha Z        PSCENC =        87.52689448
  Ewald energy   TEWEN  =     -1419.53186068
  -Hartree energ DENC   =      -136.48538140
  -exchange      EXHF   =         0.00000000
  -V(xc)+E(xc)   XCENC  =       -32.08683321
  PAW double counting   =      1936.94217516    -1824.52978888
  entropy T*S    EENTRO =        -0.00051386
  eigenvalues    EBANDS =       -93.89854428
  atomic energy  EATOM  =      1448.49460871
  Solvation  Ediel_sol  =         0.00000000
  ---------------------------------------------------
  free energy    TOTEN  =       -33.56924396 eV

  energy without entropy =      -33.56873010  energy(sigma->0) =      -33.56898703


--------------------------------------------------------------------------------------------------------




--------------------------------------- Iteration      1(  12)  ---------------------------------------


    POTLOK:  cpu time      0.0101: real time      0.0102
    SETDIJ:  cpu time      0.2173: real time      0.2178
     EDDAV:  cpu time      0.4484: real time      0.4510
       DOS:  cpu time      0.0010: real time      0.0010
    --------------------------------------------
      LOOP:  cpu time      0.6768: real time      0.6800

 eigenvalue-minimisations  :  3488
 total energy-change (2. order) :-0.4213226E-06  (-0.6042426E-06)
 number of electron      40.0000002 magnetization 
 augmentation part       -7.3500430 magnetization 

 Free energy of the ion-electron system (eV)
  ---------------------------------------------------
  alpha Z        PSCENC =        87.52689448
  Ewald energy   TEWEN  =     -1419.53186068
  -Hartree energ DENC   =      -136.50123520
  -exchange      EXHF   =         0.00000000
  -V(xc)+E(xc)   XCENC  =       -32.08577898
  PAW double counting   =      1936.14668170    -1823.73413050
  entropy T*S    EENTRO =        -0.00051724
  eigenvalues    EBANDS =       -93.88390666
  atomic energy  EATOM  =      1448.49460871
  Solvation  Ediel_sol  =         0.00000000
  ---------------------------------------------------
  free energy    TOTEN  =       -33.56924438 eV

  energy without entropy =      -33.56872714  energy(sigma->0) =      -33.56898576


--------------------------------------------------------------------------------------------------------




 average (electrostatic) potential at core
  the test charge radii are     1.1631  1.0808
  (the norm of the test charge is              1.0000)
       1 -33.4483       2 -33.4483       3 -33.4483       4 -33.4483       5 -54.9616
       6 -54.9616       7 -54.9616       8 -54.9616
 
 
 
 E-fermi :   3.8548     XC(G=0):  -9.2839     alpha+bet : -8.7197

 Fermi energy:         3.8547917877

 k-point     1 :       0.0000    0.0000    0.0000
  band No.  band energies     occupation 
      1     -10.9553      2.00000
      2     -10.6171      2.00000
      3      -9.6950      2.00000
      4      -9.1890      2.00000
      5      -4.9081      2.00000
      6      -4.0281      2.00000
      7      -3.0824      2.00000
      8      -1.9118      2.00000
      9      -1.8171      2.00000
     10      -0.3737      2.00000
     11      -0.2328      2.00000
     12      -0.0725      2.00000
     13       0.3097      2.00000
     14       0.3359      2.00000
     15       1.5277      2.00000
     16       1.6539      2.00000
     17       1.6573      2.00000
     18       2.1176      2.00000
     19       2.3047      2.00000
     20       3.8226      1.63795
     21       3.8870      0.36205
     22       5.6148      0.00000
     23       5.7268      0.00000
     24       5.9774      0.00000
     25       6.1705      0.00000
     26       6.8649      0.00000
     27       6.8937      0.00000
     28       6.9724      0.00000
     29       8.0303      0.00000
     30       8.4893      0.00000
     31       8.4958      0.00000
     32       9.6815      0.00000

 k-point     2 :       0.1667    0.0000    0.0000
  band No.  band energies     occupation 
      1     -10.7672      2.00000
      2     -10.4392      2.00000
      3      -9.5848      2.00000
      4      -9.1257      2.00000
      5      -5.1121      2.00000
      6      -4.2593      2.00000
      7      -3.4336      2.00000
      8      -2.4592      2.00000
      9      -1.6670      2.00000
     10      -0.2264      2.00000
     11      -0.1495      2.00000
     12      -0.0490      2.00000
     13       0.0132      2.00000
     14       0.3833      2.00000
     15       1.2215      2.00000
     16       1.5060      2.00000
     17       1.6912      2.00000
     18       1.9452      2.00000
     19       2.5954      2.00000
     20       3.6501      2.00000
     21       4.1152      0.00000
     22       5.3004      0.00000
     23       5.8307      0.00000
     24       6.0181      0.00000
     25       6.3746      0.00000
     26       6.5410      0.00000
     27       6.7633      0.00000
     28       7.2619      0.00000
     29       7.3899      0.00000
     30       7.9424      0.00000
     31       8.2554      0.00000
     32       9.1050      0.00000

 k-point     3 :       0.3333    0.0000    0.0000
  band No.  band energies     occupation 
      1     -10.2560      2.00000
      2      -9.9634      2.00000
      3      -9.4170      2.00000
      4      -9.0988      2.00000
      5      -5.5178      2.00000
      6      -4.6649      2.00000
      7      -4.4548      2.00000
      8      -3.5630      2.00000
      9      -1.1285      2.00000
     10      -0.2167      2.00000
     11      -0.0602      2.00000
     12       0.3803      2.00000
     13       0.4701      2.00000
     14       0.7635      2.00000
     15       1.0290      2.00000
     16       1.4241      2.00000
     17       1.5412      2.00000
     18       1.6723      2.00000
     19       2.7828      2.00000
     20       3.1439      2.00000
     21       4.1104      0.00000
     22       4.5530      0.00000
     23       4.7893      0.00000
     24       5.1911      0.00000
     25       5.4381      0.00000
     26       5.8321      0.00000
     27       5.9221      0.00000
     28       6.6574      0.00000
     29       6.9479      0.00000
     30       7.2831      0.00000
     31       7.6729      0.00000
     32       9.0958      0.00000

 k-point     4 :       0.5000    0.0000    0.0000
  band No.  band energies     occupation 
      1      -9.6464      2.00000
      2      -9.6464      2.00000
      3      -9.4059      2.00000
      4      -9.4059      2.00000
      5      -5.3799      2.00000
      6      -5.3799      2.00000
      7      -4.4846      2.00000
      8      -4.4845      2.00000
      9      -0.3480      2.00000
     10      -0.3480      2.00000
     11       0.4081      2.00000
     12       0.4081      2.00000
     13       0.8602      2.00000
     14       0.8602      2.00000
     15       1.1610      2.00000
     16       1.1610      2.00000
     17       1.4803      2.00000
     18       1.4803      2.00000
     19       2.6410      2.00000
     20       2.6410      2.00000
     21       4.1372      0.00000
     22       4.1372      0.00000
     23       4.8862      0.00000
     24       4.8862      0.00000
     25       5.1158      0.00000
     26       5.1158      0.00000
     27       5.7422      0.00000
     28       5.7422      0.00000
     29       6.3714      0.00000
     30       6.3714      0.00000
     31       8.2655      0.00000
     32       8.2655      0.00000

 k-point     5 :       0.0000    0.1667    0.0000
  band No.  band energies     occupation 
      1     -10.8382      2.00000
      2     -10.5105      2.00000
      3      -9.7004      2.00000
      4      -9.2532      2.00000
      5      -5.1716      2.00000
      6      -4.1853      2.00000
      7      -3.6272      2.00000
      8      -2.4976      2.00000
      9      -1.6631      2.00000
     10      -0.0727      2.00000
     11       0.3669      2.00000
     12       0.4157      2.00000
     13       0.4661      2.00000
     14       0.5091      2.00000
     15       1.5971      2.00000
     16       1.6529      2.00000
     17       1.6885      2.00000
     18       2.0663      2.00000
     19       2.6643      2.00000
     20       3.5024      2.00000
     21       4.1927      0.00000
     22       5.2286      0.00000
     23       5.7951      0.00000
     24       5.8465      0.00000
     25       5.9076      0.00000
     26       6.5347      0.00000
     27       6.5902      0.00000
     28       7.1312      0.00000
     29       7.7318      0.00000
     30       7.8970      0.00000
     31       7.9962      0.00000
     32       9.5557      0.00000

 k-point     6 :       0.1667    0.1667    0.0000
  band No.  band energies     occupation 
      1     -10.6549      2.00000
      2     -10.3392      2.00000
      3      -9.5901      2.00000
      4      -9.1875      2.00000
      5      -5.2157      2.00000
      6      -4.3373      2.00000
      7      -3.7707      2.00000
      8      -2.8193      2.00000
      9      -1.5211      2.00000
     10      -0.7492      2.00000
     11      -0.5086      2.00000
     12       0.0897      2.00000
     13       0.8530      2.00000
     14       0.9564      2.00000
     15       1.2399      2.00000
     16       1.2430      2.00000
     17       1.6420      2.00000
     18       2.1717      2.00000
     19       2.7891      2.00000
     20       3.4496      2.00000
     21       4.4293      0.00000
     22       5.1482      0.00000
     23       5.5333      0.00000
     24       5.6788      0.00000
     25       6.1684      0.00000
     26       6.4693      0.00000
     27       6.8518      0.00000
     28       6.8606      0.00000
     29       7.6551      0.00000
     30       8.0195      0.00000
     31       8.0336      0.00000
     32       9.2434      0.00000

 k-point     7 :       0.1667   -0.1667    0.0000
  band No.  band energies     occupation 
      1     -10.6566      2.00000
      2     -10.3372      2.00000
      3      -9.5947      2.00000
      4      -9.1779      2.00000
      5      -5.2780      2.00000
      6      -4.2742      2.00000
      7      -3.8107      2.00000
      8      -2.7678      2.00000
      9      -1.5039      2.00000
     10      -0.6844      2.00000
     11      -0.5374      2.00000
     12       0.0553      2.00000
     13       0.8364      2.00000
     14       0.9490      2.00000
     15       1.1688      2.00000
     16       1.3113      2.00000
     17       1.7150      2.00000
     18       2.0679      2.00000
     19       2.8563      2.00000
     20       3.4157      2.00000
     21       4.3063      0.00000
     22       4.9396      0.00000
     23       5.4301      0.00000
     24       5.6086      0.00000
     25       6.4841      0.00000
     26       6.6950      0.00000
     27       7.1814      0.00000
     28       7.2943      0.00000
     29       7.3634      0.00000
     30       7.6626      0.00000
     31       7.9468      0.00000
     32       9.5148      0.00000

 k-point     8 :       0.3333    0.1667    0.0000
  band No.  band energies     occupation 
      1     -10.1643      2.00000
      2      -9.8853      2.00000
      3      -9.4153      2.00000
      4      -9.1303      2.00000
      5      -5.4106      2.00000
      6      -4.6301      2.00000
      7      -4.4630      2.00000
      8      -3.6766      2.00000
      9      -1.0053      2.00000
     10      -0.9411      2.00000
     11      -0.8502      2.00000
     12      -0.1226      2.00000
     13       0.8179      2.00000
     14       0.9287      2.00000
     15       0.9939      2.00000
     16       1.1881      2.00000
     17       1.2421      2.00000
     18       1.6563      2.00000
     19       2.5212      2.00000
     20       3.2340      2.00000
     21       4.2581      0.00000
     22       5.0774      0.00000
     23       5.0867      0.00000
     24       5.2426      0.00000
     25       5.7393      0.00000
     26       6.3651      0.00000
     27       6.5395      0.00000
     28       6.5767      0.00000
     29       7.5498      0.00000
     30       7.7125      0.00000
     31       8.5875      0.00000
     32       8.6155      0.00000

 k-point     9 :       0.3333   -0.1667    0.0000
  band No.  band energies     occupation 
      1     -10.1682      2.00000
      2      -9.8810      2.00000
      3      -9.4246      2.00000
      4      -9.1137      2.00000
      5      -5.4901      2.00000
      6      -4.5521      2.00000
      7      -4.5090      2.00000
      8      -3.6090      2.00000
      9      -1.0429      2.00000
     10      -1.0029      2.00000
     11      -0.6899      2.00000
     12      -0.1290      2.00000
     13       0.5587      2.00000
     14       0.8636      2.00000
     15       1.0626      2.00000
     16       1.1656      2.00000
     17       1.3950      2.00000
     18       1.8591      2.00000
     19       2.5372      2.00000
     20       3.0027      2.00000
     21       4.2197      0.00000
     22       4.8262      0.00000
     23       4.8577      0.00000
     24       5.6234      0.00000
     25       5.9495      0.00000
     26       6.0337      0.00000
     27       6.8961      0.00000
     28       6.9979      0.00000
     29       7.1193      0.00000
     30       8.0286      0.00000
     31       8.4772      0.00000
     32       8.7674      0.00000

 k-point    10 :       0.5000    0.1667    0.0000
  band No.  band energies     occupation 
      1      -9.6053      2.00000
      2      -9.6046      2.00000
      3      -9.3704      2.00000
      4      -9.3690      2.00000
      5      -5.2894      2.00000
      6      -5.2765      2.00000
      7      -4.4411      2.00000
      8      -4.4386      2.00000
      9      -0.6011      2.00000
     10      -0.5227      2.00000
     11      -0.3340      2.00000
     12      -0.0447      2.00000
     13       0.2185      2.00000
     14       0.4847      2.00000
     15       0.5243      2.00000
     16       0.6237      2.00000
     17       1.5569      2.00000
     18       1.5580      2.00000
     19       2.7403      2.00000
     20       2.8392      2.00000
     21       4.2284      0.00000
     22       4.2934      0.00000
     23       5.2921      0.00000
     24       5.4967      0.00000
     25       6.0119      0.00000
     26       6.1224      0.00000
     27       6.2715      0.00000
     28       6.5610      0.00000
     29       7.0922      0.00000
     30       7.2371      0.00000
     31       7.8391      0.00000
     32       8.0769      0.00000

 k-point    11 :       0.0000    0.3333    0.0000
  band No.  band energies     occupation 
      1     -10.5170      2.00000
      2     -10.2203      2.00000
      3      -9.7957      2.00000
      4      -9.4759      2.00000
      5      -5.4776      2.00000
      6      -4.5940      2.00000
      7      -4.3461      2.00000
      8      -3.3942      2.00000
      9      -1.2290      2.00000
     10       0.3204      2.00000
     11       0.7476      2.00000
     12       0.8437      2.00000
     13       1.2375      2.00000
     14       1.2419      2.00000
     15       1.5524      2.00000
     16       1.5703      2.00000
     17       1.6091      2.00000
     18       2.8115      2.00000
     19       3.0232      2.00000
     20       3.1677      2.00000
     21       4.4546      0.00000
     22       4.7052      0.00000
     23       4.9002      0.00000
     24       5.5854      0.00000
     25       5.8951      0.00000
     26       5.9966      0.00000
     27       6.0616      0.00000
     28       6.8520      0.00000
     29       6.8715      0.00000
     30       6.9617      0.00000
     31       8.1725      0.00000
     32       9.6182      0.00000

 k-point    12 :       0.1667    0.3333    0.0000
  band No.  band energies     occupation 
      1     -10.3513      2.00000
      2     -10.0666      2.00000
      3      -9.6823      2.00000
      4      -9.3854      2.00000
      5      -5.3823      2.00000
      6      -4.5360      2.00000
      7      -4.3269      2.00000
      8      -3.4836      2.00000
      9      -1.0671      2.00000
     10      -0.8200      2.00000
     11      -0.4013      2.00000
     12       0.1863      2.00000
     13       0.5604      2.00000
     14       0.6214      2.00000
     15       1.3835      2.00000
     16       1.7847      2.00000
     17       1.9559      2.00000
     18       2.1533      2.00000
     19       2.9395      2.00000
     20       3.2502      2.00000
     21       4.6159      0.00000
     22       5.2942      0.00000
     23       5.4610      0.00000
     24       5.7562      0.00000
     25       6.0190      0.00000
     26       6.0450      0.00000
     27       6.7875      0.00000
     28       7.0293      0.00000
     29       7.4944      0.00000
     30       7.7306      0.00000
     31       8.3617      0.00000
     32       9.0590      0.00000

 k-point    13 :       0.1667   -0.3333    0.0000
  band No.  band energies     occupation 
      1     -10.3542      2.00000
      2     -10.0634      2.00000
      3      -9.6873      2.00000
      4      -9.3757      2.00000
      5      -5.4199      2.00000
      6      -4.5701      2.00000
      7      -4.3033      2.00000
      8      -3.4264      2.00000
      9      -1.0511      2.00000
     10      -0.6413      2.00000
     11      -0.5447      2.00000
     12       0.1133      2.00000
     13       0.5008      2.00000
     14       0.6780      2.00000
     15       1.3200      2.00000
     16       1.7808      2.00000
     17       2.1161      2.00000
     18       2.2914      2.00000
     19       2.8057      2.00000
     20       3.0823      2.00000
     21       4.6429      0.00000
     22       5.0389      0.00000
     23       5.5288      0.00000
     24       5.7534      0.00000
     25       5.9692      0.00000
     26       6.2064      0.00000
     27       6.8718      0.00000
     28       7.2090      0.00000
     29       7.5211      0.00000
     30       7.8714      0.00000
     31       8.1728      0.00000
     32       9.2772      0.00000

 k-point    14 :       0.3333    0.3333    0.0000
  band No.  band energies     occupation 
      1      -9.9284      2.00000
      2      -9.6766      2.00000
      3      -9.4707      2.00000
      4      -9.2277      2.00000
      5      -5.2280      2.00000
      6      -4.6305      2.00000
      7      -4.4299      2.00000
      8      -3.9099      2.00000
      9      -1.5377      2.00000
     10      -1.2716      2.00000
     11      -0.8392      2.00000
     12      -0.6503      2.00000
     13      -0.1875      2.00000
     14       0.5141      2.00000
     15       0.5820      2.00000
     16       0.6730      2.00000
     17       0.8764      2.00000
     18       1.9042      2.00000
     19       2.5000      2.00000
     20       3.0324      2.00000
     21       4.3981      0.00000
     22       6.0235      0.00000
     23       6.0606      0.00000
     24       6.3307      0.00000
     25       6.5479      0.00000
     26       6.6943      0.00000
     27       6.8533      0.00000
     28       7.7895      0.00000
     29       8.2463      0.00000
     30       8.4881      0.00000
     31       9.0497      0.00000
     32       9.4840      0.00000

 k-point    15 :       0.3333   -0.3333    0.0000
  band No.  band energies     occupation 
      1      -9.9349      2.00000
      2      -9.6702      2.00000
      3      -9.4793      2.00000
      4      -9.2114      2.00000
      5      -5.3128      2.00000
      6      -4.6917      2.00000
      7      -4.3552      2.00000
      8      -3.8030      2.00000
      9      -1.5429      2.00000
     10      -1.2153      2.00000
     11      -0.9140      2.00000
     12      -0.6592      2.00000
     13      -0.2254      2.00000
     14       0.2752      2.00000
     15       0.5238      2.00000
     16       0.9902      2.00000
     17       1.1159      2.00000
     18       1.6739      2.00000
     19       2.5375      2.00000
     20       2.9725      2.00000
     21       4.3083      0.00000
     22       5.7825      0.00000
     23       5.9848      0.00000
     24       6.3516      0.00000
     25       6.6071      0.00000
     26       7.2647      0.00000
     27       7.3246      0.00000
     28       7.4638      0.00000
     29       8.1171      0.00000
     30       8.4117      0.00000
     31       8.7705      0.00000
     32       9.5138      0.00000

 k-point    16 :       0.5000    0.3333    0.0000
  band No.  band energies     occupation 
      1      -9.5191      2.00000
      2      -9.5172      2.00000
      3      -9.2956      2.00000
      4      -9.2938      2.00000
      5      -5.0732      2.00000
      6      -5.0442      2.00000
      7      -4.3671      2.00000
      8      -4.3606      2.00000
      9      -1.2392      2.00000
     10      -1.2391      2.00000
     11      -0.8780      2.00000
     12      -0.8134      2.00000
     13      -0.3695      2.00000
     14      -0.2251      2.00000
     15       0.1469      2.00000
     16       0.1912      2.00000
     17       0.8547      2.00000
     18       1.0351      2.00000
     19       2.6526      2.00000
     20       2.7510      2.00000
     21       5.2017      0.00000
     22       5.2315      0.00000
     23       6.2436      0.00000
     24       6.5486      0.00000
     25       7.0038      0.00000
     26       7.0376      0.00000
     27       7.2585      0.00000
     28       7.5264      0.00000
     29       8.2649      0.00000
     30       8.4390      0.00000
     31       9.1211      0.00000
     32       9.2216      0.00000

 k-point    17 :       0.0000    0.5000    0.0000
  band No.  band energies     occupation 
      1     -10.1011      2.00000
      2     -10.1011      2.00000
      3      -9.8355      2.00000
      4      -9.8355      2.00000
      5      -5.3009      2.00000
      6      -5.3009      2.00000
      7      -4.0922      2.00000
      8      -4.0922      2.00000
      9      -0.4866      2.00000
     10      -0.4866      2.00000
     11       1.2584      2.00000
     12       1.2584      2.00000
     13       1.2911      2.00000
     14       1.2911      2.00000
     15       1.9196      2.00000
     16       1.9196      2.00000
     17       2.2049      2.00000
     18       2.2049      2.00000
     19       2.9776      2.00000
     20       2.9776      2.00000
     21       4.7176      0.00000
     22       4.7176      0.00000
     23       5.0930      0.00000
     24       5.0930      0.00000
     25       5.6322      0.00000
     26       5.6322      0.00000
     27       6.2168      0.00000
     28       6.2168      0.00000
     29       6.3145      0.00000
     30       6.3145      0.00000
     31       9.0576      0.00000
     32       9.0576      0.00000

 k-point    18 :       0.1667    0.5000    0.0000
  band No.  band energies     occupation 
      1      -9.9672      2.00000
      2      -9.9661      2.00000
      3      -9.7074      2.00000
      4      -9.7071      2.00000
      5      -5.1894      2.00000
      6      -5.1852      2.00000
      7      -4.0543      2.00000
      8      -4.0289      2.00000
      9      -0.5019      2.00000
     10      -0.4336      2.00000
     11      -0.2759      2.00000
     12      -0.0814      2.00000
     13       0.0972      2.00000
     14       0.1148      2.00000
     15       1.5269      2.00000
     16       1.8077      2.00000
     17       1.9268      2.00000
     18       2.4812      2.00000
     19       3.0124      2.00000
     20       3.0845      2.00000
     21       4.7687      0.00000
     22       4.8521      0.00000
     23       5.7886      0.00000
     24       5.8314      0.00000
     25       6.0768      0.00000
     26       6.3697      0.00000
     27       6.9469      0.00000
     28       7.1163      0.00000
     29       7.3241      0.00000
     30       7.3699      0.00000
     31       8.6191      0.00000
     32       8.6551      0.00000

 k-point    19 :       0.3333    0.5000    0.0000
  band No.  band energies     occupation 
      1      -9.6581      2.00000
      2      -9.6558      2.00000
      3      -9.4196      2.00000
      4      -9.4188      2.00000
      5      -4.9902      2.00000
      6      -4.9840      2.00000
      7      -4.1418      2.00000
      8      -4.1089      2.00000
      9      -1.5108      2.00000
     10      -1.3858      2.00000
     11      -1.0220      2.00000
     12      -0.9586      2.00000
     13      -0.1795      2.00000
     14      -0.1299      2.00000
     15       0.3640      2.00000
     16       0.5551      2.00000
     17       1.0208      2.00000
     18       1.3699      2.00000
     19       2.7059      2.00000
     20       2.7494      2.00000
     21       5.2263      0.00000
     22       5.2387      0.00000
     23       6.6773      0.00000
     24       6.9379      0.00000
     25       7.2652      0.00000
     26       7.3238      0.00000
     27       7.6274      0.00000
     28       7.8378      0.00000
     29       8.6723      0.00000
     30       8.7527      0.00000
     31       9.1904      0.00000
     32       9.3800      0.00000

 k-point    20 :       0.5000    0.5000    0.0000
  band No.  band energies     occupation 
      1      -9.4740      2.00000
      2      -9.4712      2.00000
      3      -9.2566      2.00000
      4      -9.2550      2.00000
      5      -4.9436      2.00000
      6      -4.9042      2.00000
      7      -4.3440      2.00000
      8      -4.3348      2.00000
      9      -1.5382      2.00000
     10      -1.4141      2.00000
     11      -1.2710      2.00000
     12      -1.1252      2.00000
     13      -0.6643      2.00000
     14      -0.3421      2.00000
     15      -0.1307      2.00000
     16      -0.0502      2.00000
     17       0.6341      2.00000
     18       0.8862      2.00000
[...]
     32       8.5440      0.00000

 k-point    32 :       0.1667    0.3333    0.5000
  band No.  band energies     occupation 
      1     -10.2390      2.00000
      2     -10.2390      2.00000
      3      -9.5045      2.00000
      4      -9.5045      2.00000
      5      -5.0620      2.00000
      6      -5.0620      2.00000
      7      -3.8707      2.00000
      8      -3.8707      2.00000
      9      -0.7699      2.00000
     10      -0.7699      2.00000
     11       0.0462      2.00000
     12       0.0462      2.00000
     13       0.4484      2.00000
     14       0.4484      2.00000
     15       1.4005      2.00000
     16       1.4005      2.00000
     17       2.1115      2.00000
     18       2.1115      2.00000
     19       2.7709      2.00000
     20       2.7709      2.00000
     21       5.3046      0.00000
     22       5.3046      0.00000
     23       5.6366      0.00000
     24       5.6366      0.00000
     25       6.2664      0.00000
     26       6.2664      0.00000
     27       7.1198      0.00000
     28       7.1198      0.00000
     29       7.3589      0.00000
     30       7.3589      0.00000
     31       8.4049      0.00000
     32       8.4049      0.00000

 k-point    33 :       0.1667   -0.3333    0.5000
  band No.  band energies     occupation 
      1     -10.2405      2.00000
      2     -10.2405      2.00000
      3      -9.5006      2.00000
      4      -9.5006      2.00000
      5      -5.0979      2.00000
      6      -5.0979      2.00000
      7      -3.8276      2.00000
      8      -3.8276      2.00000
      9      -0.7685      2.00000
     10      -0.7685      2.00000
     11       0.0568      2.00000
     12       0.0568      2.00000
     13       0.4183      2.00000
     14       0.4183      2.00000
     15       1.5062      2.00000
     16       1.5062      2.00000
     17       2.0485      2.00000
     18       2.0485      2.00000
     19       2.7169      2.00000
     20       2.7169      2.00000
     21       5.1525      0.00000
     22       5.1525      0.00000
     23       5.6222      0.00000
     24       5.6222      0.00000
     25       6.4606      0.00000
     26       6.4606      0.00000
     27       6.8675      0.00000
     28       6.8675      0.00000
     29       7.7811      0.00000
     30       7.7811      0.00000
     31       8.5611      0.00000
     32       8.5611      0.00000

 k-point    34 :       0.3333    0.3333    0.5000
  band No.  band energies     occupation 
      1      -9.8334      2.00000
      2      -9.8334      2.00000
      3      -9.3194      2.00000
      4      -9.3194      2.00000
      5      -4.9691      2.00000
      6      -4.9691      2.00000
      7      -4.1629      2.00000
      8      -4.1629      2.00000
      9      -1.4696      2.00000
     10      -1.4696      2.00000
     11      -0.5917      2.00000
     12      -0.5917      2.00000
     13       0.0914      2.00000
     14       0.0914      2.00000
     15       0.7446      2.00000
     16       0.7446      2.00000
     17       1.4134      2.00000
     18       1.4134      2.00000
     19       2.3275      2.00000
     20       2.3275      2.00000
     21       5.5555      0.00000
     22       5.5555      0.00000
     23       6.2798      0.00000
     24       6.2798      0.00000
     25       6.5624      0.00000
     26       6.5624      0.00000
     27       7.4338      0.00000
     28       7.4338      0.00000
     29       8.0269      0.00000
     30       8.0269      0.00000
     31       9.4276      0.00000
     32       9.4276      0.00000

 k-point    35 :       0.3333   -0.3333    0.5000
  band No.  band energies     occupation 
      1      -9.8374      2.00000
      2      -9.8374      2.00000
      3      -9.3116      2.00000
      4      -9.3116      2.00000
      5      -5.0503      2.00000
      6      -5.0503      2.00000
      7      -4.0561      2.00000
      8      -4.0561      2.00000
      9      -1.4963      2.00000
     10      -1.4963      2.00000
     11      -0.6502      2.00000
     12      -0.6502      2.00000
     13       0.1505      2.00000
     14       0.1506      2.00000
     15       0.7556      2.00000
     16       0.7556      2.00000
     17       1.4960      2.00000
     18       1.4960      2.00000
     19       2.2258      2.00000
     20       2.2258      2.00000
     21       5.3546      0.00000
     22       5.3546      0.00000
     23       6.1156      0.00000
     24       6.1156      0.00000
     25       6.8821      0.00000
     26       6.8821      0.00000
     27       7.7702      0.00000
     28       7.7702      0.00000
     29       8.1794      0.00000
     30       8.1794      0.00000
     31       9.0991      0.00000
     32       9.0991      0.00000

 k-point    36 :       0.5000    0.3333    0.5000
  band No.  band energies     occupation 
      1      -9.5126      2.00000
      2      -9.5126      2.00000
      3      -9.3017      2.00000
      4      -9.3017      2.00000
      5      -5.0022      2.00000
      6      -5.0022      2.00000
      7      -4.4344      2.00000
      8      -4.4344      2.00000
      9      -1.2227      2.00000
     10      -1.2227      2.00000
     11      -0.9755      2.00000
     12      -0.9755      2.00000
     13      -0.1459      2.00000
     14      -0.1459      2.00000
     15       0.1060      2.00000
     16       0.1060      2.00000
     17       1.4970      2.00000
     18       1.4970      2.00000
     19       1.9469      2.00000
     20       1.9469      2.00000
     21       5.7207      0.00000
     22       5.7207      0.00000
     23       6.2098      0.00000
     24       6.2098      0.00000
     25       6.8750      0.00000
     26       6.8750      0.00000
     27       7.4882      0.00000
     28       7.4882      0.00000
     29       8.5286      0.00000
     30       8.5286      0.00000
     31       8.8915      0.00000
     32       8.8915      0.00000

 k-point    37 :       0.0000    0.5000    0.5000
  band No.  band energies     occupation 
      1     -10.0939      2.00000
      2     -10.0939      2.00000
      3      -9.8450      2.00000
      4      -9.8450      2.00000
      5      -5.1991      2.00000
      6      -5.1991      2.00000
      7      -4.2817      2.00000
      8      -4.2817      2.00000
      9       0.3906      2.00000
     10       0.3906      2.00000
     11       0.5865      2.00000
     12       0.5865      2.00000
     13       1.2936      2.00000
     14       1.2936      2.00000
     15       1.2961      2.00000
     16       1.2961      2.00000
     17       2.4900      2.00000
     18       2.4900      2.00000
     19       2.9992      2.00000
     20       2.9992      2.00000
     21       4.8039      0.00000
     22       4.8039      0.00000
     23       4.8322      0.00000
     24       4.8322      0.00000
     25       6.1186      0.00000
     26       6.1186      0.00000
     27       6.1440      0.00000
     28       6.1440      0.00000
     29       6.8784      0.00000
     30       6.8784      0.00000
     31       8.3615      0.00000
     32       8.3615      0.00000

 k-point    38 :       0.1667    0.5000    0.5000
  band No.  band energies     occupation 
      1      -9.9599      2.00000
      2      -9.9599      2.00000
      3      -9.7161      2.00000
      4      -9.7161      2.00000
      5      -5.0962      2.00000
      6      -5.0962      2.00000
      7      -4.2035      2.00000
      8      -4.2035      2.00000
      9      -0.3593      2.00000
     10      -0.3593      2.00000
     11      -0.1461      2.00000
     12      -0.1461      2.00000
     13       0.7537      2.00000
     14       0.7537      2.00000
     15       0.8527      2.00000
     16       0.8527      2.00000
     17       2.1606      2.00000
     18       2.1606      2.00000
     19       2.7628      2.00000
     20       2.7628      2.00000
     21       5.4738      0.00000
     22       5.4738      0.00000
     23       5.6557      0.00000
     24       5.6557      0.00000
     25       6.4608      0.00000
     26       6.4608      0.00000
     27       6.9913      0.00000
     28       6.9913      0.00000
     29       7.4834      0.00000
     30       7.4834      0.00000
     31       8.3132      0.00000
     32       8.3132      0.00000

 k-point    39 :       0.3333    0.5000    0.5000
  band No.  band energies     occupation 
      1      -9.6516      2.00000
      2      -9.6516      2.00000
      3      -9.4261      2.00000
      4      -9.4261      2.00000
      5      -4.9273      2.00000
      6      -4.9273      2.00000
      7      -4.2082      2.00000
      8      -4.2082      2.00000
      9      -1.3174      2.00000
     10      -1.3174      2.00000
     11      -1.2896      2.00000
     12      -1.2896      2.00000
     13       0.2726      2.00000
     14       0.2726      2.00000
     15       0.4104      2.00000
     16       0.4104      2.00000
     17       1.4560      2.00000
     18       1.4560      2.00000
     19       1.9722      2.00000
     20       1.9722      2.00000
     21       5.8888      0.00000
     22       5.8888      0.00000
     23       6.5205      0.00000
     24       6.5205      0.00000
     25       7.2800      0.00000
     26       7.2800      0.00000
     27       7.7540      0.00000
     28       7.7540      0.00000
     29       8.7957      0.00000
     30       8.7957      0.00000
     31       9.2066      0.00000
     32       9.2066      0.00000

 k-point    40 :       0.5000    0.5000    0.5000
  band No.  band energies     occupation 
      1      -9.4683      2.00000
      2      -9.4683      2.00000
      3      -9.2611      2.00000
      4      -9.2611      2.00000
      5      -4.8850      2.00000
      6      -4.8850      2.00000
      7      -4.3832      2.00000
      8      -4.3832      2.00000
      9      -1.4857      2.00000
     10      -1.4857      2.00000
     11      -1.1821      2.00000
     12      -1.1821      2.00000
     13      -0.5066      2.00000
     14      -0.5066      2.00000
     15      -0.3280      2.00000
     16      -0.3280      2.00000
     17       1.5561      2.00000
     18       1.5561      2.00000
     19       1.9568      2.00000
     20       1.9568      2.00000
     21       5.8726      0.00000
     22       5.8726      0.00000
     23       6.0732      0.00000
     24       6.0732      0.00000
     25       7.7499      0.00000
     26       7.7499      0.00000
     27       8.2148      0.00000
     28       8.2148      0.00000
     29       9.2573      0.00000
     30       9.2573      0.00000
     31       9.9014      0.00000
     32       9.9014      0.00000


--------------------------------------------------------------------------------------------------------


 soft charge-density along one line, spin component            1
         0         1         2         3         4         5         6         7         8         9
 total charge-density along one line
 
 pseudopotential strength for first ion, spin component:            1
 14.512  18.106   0.038   0.038   0.004   0.069   0.068   0.008
 18.106  22.603   0.048   0.048   0.005   0.087   0.087   0.010
  0.038   0.048   3.224  -0.002  -0.000   5.489  -0.004  -0.001
  0.038   0.048  -0.002   3.222  -0.000  -0.004   5.484  -0.000
  0.004   0.005  -0.000  -0.000   3.226  -0.001  -0.000   5.491
  0.069   0.087   5.489  -0.004  -0.001   9.401  -0.007  -0.001
  0.068   0.087  -0.004   5.484  -0.000  -0.007   9.394  -0.000
  0.008   0.010  -0.001  -0.000   5.491  -0.001  -0.000   9.405
 -0.001  -0.001   0.001  -0.000   0.006   0.002  -0.000   0.011
 -0.005  -0.006   0.009   0.012  -0.000   0.017   0.022  -0.000
 -0.004  -0.005  -0.003   0.010  -0.001  -0.006   0.018  -0.002
 -0.000  -0.000  -0.000   0.001   0.010  -0.000   0.001   0.018
  0.001   0.002  -0.011   0.000   0.001  -0.020   0.000   0.002
 total augmentation occupancy for first ion, spin component:            1
  2.802  -0.759   0.317   0.291   0.034  -0.059  -0.052  -0.006  -0.006  -0.002   0.007  -0.013   0.011
 -0.759   0.706  -0.407  -0.400  -0.042   0.064   0.062   0.007   0.007   0.000  -0.006   0.014  -0.007
  0.317  -0.407   1.240   0.079   0.000  -0.203  -0.006   0.001   0.003   0.042  -0.103   0.003   0.003
  0.291  -0.400   0.079   1.386  -0.026  -0.006  -0.228   0.008   0.007  -0.027   0.080   0.014  -0.005
  0.034  -0.042   0.000  -0.026   1.261   0.001   0.008  -0.218   0.143   0.002   0.006   0.034   0.002
 -0.059   0.064  -0.203  -0.006   0.001   0.037   0.000  -0.000  -0.001  -0.007   0.017  -0.001  -0.000
 -0.052   0.062  -0.006  -0.228   0.008   0.000   0.043  -0.002  -0.001   0.005  -0.014  -0.003   0.001
 -0.006   0.007   0.001   0.008  -0.218  -0.000  -0.002   0.042  -0.025  -0.000  -0.001  -0.006  -0.000
 -0.006   0.007   0.003   0.007   0.143  -0.001  -0.001  -0.025   0.031  -0.000  -0.001   0.004   0.000
 -0.002   0.000   0.042  -0.027   0.002  -0.007   0.005  -0.000  -0.000   0.011  -0.006  -0.001   0.001
  0.007  -0.006  -0.103   0.080   0.006   0.017  -0.014  -0.001  -0.001  -0.006   0.033  -0.003  -0.002
 -0.013   0.014   0.003   0.014   0.034  -0.001  -0.003  -0.006   0.004  -0.001  -0.003   0.011  -0.000
  0.011  -0.007   0.003  -0.005   0.002  -0.000   0.001  -0.000   0.000   0.001  -0.002  -0.000   0.008


------------------------ aborting loop because EDIFF is reached ----------------------------------------


    CHARGE:  cpu time      0.0086: real time      0.0086
    FORLOC:  cpu time      0.0004: real time      0.0004
    FORNL :  cpu time      0.0466: real time      0.0469
    STRESS:  cpu time      0.4433: real time      0.4454
    FORCOR:  cpu time      0.0090: real time      0.0090
    FORHAR:  cpu time      0.0022: real time      0.0022
    MIXING:  cpu time      0.0016: real time      0.0016
    OFIELD:  cpu time      0.0000: real time      0.0000

  FORCE on cell =-STRESS in cart. coord.  units (eV):
  Direction    XX          YY          ZZ          XY          YZ          ZX
  --------------------------------------------------------------------------------------
  Alpha Z    87.52689    87.52689    87.52689
  Ewald    -441.11458  -485.55010  -492.86874    -2.46578    -0.00000    -0.00000
  Hartree    61.00401    43.16065    32.34211    -0.30925    -0.00000    -0.00000
  E(xc)    -141.30083  -141.32719  -141.56306    -0.03432     0.00000    -0.00000
  Local    -184.60688  -128.29197  -113.95433     2.38832     0.00000    -0.00000
  n-local   240.66939   240.11006   242.02071     0.07886     0.00000     0.00000
  augment   -11.38579   -11.78479   -12.17001    -0.00479     0.00000    -0.00000
  Kinetic   390.13015   396.26189   402.45405    -0.45765     0.00000    -0.00000
  Fock        0.00000     0.00000     0.00000     0.00000     0.00000     0.00000
  -------------------------------------------------------------------------------------
  Total       0.92237     0.10545     3.78762    -0.80461     0.00000    -0.00000
  in kB       7.63362     0.87272    31.34664    -6.65902     0.00000    -0.00000
  external pressure =       13.28 kB  Pullay stress =        0.00 kB


 VOLUME and BASIS-vectors are now :
 -----------------------------------------------------------------------------
  energy-cutoff  :      520.00
  volume of cell :      193.59
      direct lattice vectors                 reciprocal lattice vectors
     3.858100176  0.000000000  0.000000000     0.259194929  0.000000000  0.000000000
     0.000000000  4.526575088  0.000000000     0.000000000  0.220917577  0.000000000
     0.000000000  0.000000000 11.085176468     0.000000000  0.000000000  0.090210562

  length of vectors
     3.858100176  4.526575088 11.085176468     0.259194929  0.220917577  0.090210562


 FORCES acting on ions
    electron-ion (+dipol)            ewald-force                    non-local-force                 convergence-correction
 -----------------------------------------------------------------------------------------------
   0.800E+00 0.139E+02 0.250E+02   -.110E+01 -.163E+02 -.273E+02   0.240E+00 0.240E+01 0.264E+01   -.176E-04 0.150E-03 -.119E-02
   0.800E+00 0.139E+02 -.250E+02   -.110E+01 -.163E+02 0.273E+02   0.240E+00 0.240E+01 -.264E+01   -.181E-04 0.151E-03 0.119E-02
   -.800E+00 -.139E+02 -.250E+02   0.110E+01 0.163E+02 0.273E+02   -.240E+00 -.240E+01 -.264E+01   0.175E-04 -.150E-03 0.118E-02
   -.800E+00 -.139E+02 0.250E+02   0.110E+01 0.163E+02 -.273E+02   -.240E+00 -.240E+01 0.264E+01   0.180E-04 -.151E-03 -.118E-02
   0.111E+01 -.144E+02 -.245E+02   -.952E+00 0.159E+02 0.261E+02   -.311E+00 -.155E+01 -.155E+01   -.567E-04 0.204E-03 0.271E-02
   0.111E+01 -.144E+02 0.245E+02   -.952E+00 0.159E+02 -.261E+02   -.311E+00 -.155E+01 0.155E+01   -.570E-04 0.206E-03 -.270E-02
   -.111E+01 0.144E+02 0.245E+02   0.952E+00 -.159E+02 -.261E+02   0.311E+00 0.155E+01 0.155E+01   0.554E-04 -.205E-03 -.270E-02
   -.111E+01 0.144E+02 -.245E+02   0.952E+00 -.159E+02 0.261E+02   0.311E+00 0.155E+01 -.155E+01   0.574E-04 -.209E-03 0.269E-02
 -----------------------------------------------------------------------------------------------
   -.910E-05 0.397E-05 -.646E-05   -.366E-14 0.355E-14 -.355E-14   -.273E-03 0.110E-03 0.365E-06   -.117E-05 -.392E-05 0.689E-05
 
 
 POSITION                                       TOTAL-FORCE (eV/Angst)
 -----------------------------------------------------------------------------------
      1.91507      0.18856      1.36328        -0.056230      0.033059      0.264892
      3.84412      2.45185      4.17930        -0.056230      0.033059     -0.264892
      2.89358      4.01000      9.72189         0.056301     -0.033081     -0.264907
      0.96453      1.74671      6.90587         0.056301     -0.033081      0.264907
      1.91507      4.16828      3.90621        -0.154197      0.009172      0.014320
      3.84412      1.90499      1.63637        -0.154197      0.009172     -0.014320
      2.89358      0.03028      7.17896         0.154126     -0.009149     -0.014360
      0.96453      2.29357      9.44880         0.154126     -0.009150      0.014358
 -----------------------------------------------------------------------------------
    total drift:                               -0.000284      0.000110      0.000001


--------------------------------------------------------------------------------------------------------



  FREE ENERGIE OF THE ION-ELECTRON SYSTEM (eV)
  ---------------------------------------------------
  free  energy   TOTEN  =       -33.56924438 eV

  energy  without entropy=      -33.56872714  energy(sigma->0) =      -33.56898576
 


--------------------------------------------------------------------------------------------------------


    POTLOK:  cpu time      0.2318: real time      0.2322


--------------------------------------------------------------------------------------------------------


     LOOP+:  cpu time      8.1867: real time      8.2258
    4ORBIT:  cpu time      0.0000: real time      0.0000

 total amount of memory used by VASP MPI-rank0    41770. kBytes
=======================================================================

   base      :      30000. kBytes
   nonl-proj :       9056. kBytes
   fftplans  :        519. kBytes
   grid      :        766. kBytes
   one-center:         16. kBytes
   wavefun   :       1413. kBytes
 
  
  
 General timing and accounting informations for this job:
 ========================================================
  
                  Total CPU time used (sec):        9.922
                            User time (sec):        9.595
                          System time (sec):        0.327
                         Elapsed time (sec):       10.229
  
                   Maximum memory used (kb):      180836.
                   Average memory used (kb):          N/A
  
                          Minor page faults:        21321
                          Major page faults:           74
                 Voluntary context switches:         1851
