72
Lattice="12.466180941867783 2.9953633703e-06 1.2507629348e-06 3.0063521985e-06 12.51191405240967 8.367245594e-06 1.4319260551e-06 9.5441611205e-06 11.086882327422272" Properties=species:S:1:pos:R:3:forces:R:3:magmoms:R:1 energy=-301.04255279 stress="-0.004889989404593864 0.0020242856111460246 -0.0015216272340702977 0.0020242856111460246 -0.003032095286457447 -0.0010041245947008642 -0.0015216272340702977 -0.0010041245947008642 -0.012712360769457559" dipole="_JSON [[0.0, 0.0, 0.0]]" magmom=0.0018161 free_energy=-301.04255279 pbc="T T T"
Ge       0.96061393       0.50327725       1.52650413      -0.11242770      -0.58216811       0.14692543       0.00000000
Ge       3.04942433      11.00808880       4.00868749      -0.25188419      -0.23764922       0.05331559      -0.00000000
Ge       7.32784917       2.07027377       4.01064046      -0.13042852       0.52542530       0.29814619       0.00000000
Ge       7.07156294       6.85061899       3.91189082       0.47880359      -0.47103024       0.71788670       0.00000000
Ge       7.11437621      10.75711510       4.22674728       0.07522934      -0.20219514      -0.32739353       0.00000000
Ge      11.07745070       2.44316516       4.10559482       0.74585779       0.03186142      -0.19325353       0.00000000
Ge      11.66910210       6.72706695       4.18626106      -0.49401303      -0.04740968       0.27875042       0.00000000
Ge      11.53659401      10.49351580       4.08414139       0.16628361       0.09151809       0.27962512       0.00000000
Ge       1.13537966       2.20896831       7.07170886       0.12237392       0.10956344      -0.19200245       0.00000000
Ge       0.95342021       6.18492135       7.05038929      -0.16640995      -0.00556853       0.35835103      -0.00000000
Ge       0.96206232      10.22023203       6.97322052      -0.16714325       0.20916367      -0.06090142      -0.00000000
Ge       4.98052312       1.85020954       7.07831196       0.06580093       0.12334643      -0.68582936       0.00000000
Ge       5.33847515       6.33187240       6.87258337      -0.00372360       0.30775561      -0.48945116      -0.00000000
Ge       5.02086832      10.35267398       7.10798079       0.15664360      -0.11657463      -0.24714713      -0.00000000
Ge       9.22526722       1.97930651       7.07494142       0.10451605      -0.37950125      -0.14428739       0.00000000
Ge       9.36398871       6.08927897       6.55786357      -0.10157194      -0.34047651       0.46001531       0.00000000
Ge       3.13767885       6.42731475       3.89883869       0.19258041      -0.12413444      -0.09246248      -0.00000000
Ge       3.16597896       2.55143458       4.09121917      -0.13143732      -0.09699451       0.60224682      -0.00000000
Ge       9.35594743      10.51121688       6.90757942       0.08760721      -0.21457497       0.38044166       0.00000000
Ge      10.99639414       8.10463056       9.56405186       0.75095614       0.19925332      -0.13886328      -0.00000000
Ge      11.67514757      12.45391012       9.64133592      -0.52511795       0.36501726       0.59321388       0.00000000
Ge       0.80726429       4.29790005       1.41505444       0.46872273       0.30073479      -0.20299910       0.00000000
Ge       1.16408804       8.40804002       1.29912615      -0.20272472       0.41157851       0.18167613      -0.00000000
Ge       5.29051145       0.26992435       1.47579240      -0.31482190       0.15361614      -0.29138787       0.00000000
Ge       5.51254768       4.27551306       1.36469277      -0.10941369       0.21830629       0.23608677       0.00000000
Ge       9.49735801       0.15564018       1.41374728       0.42036846      -0.25310425      -0.28576016       0.00000000
Ge       9.45265215       4.71271947       1.36268115      -0.64433896      -0.03907329       0.09902377       0.00000000
Ge       5.05165403       8.84867002       1.32488071      -0.43793926      -0.14935396       0.18299403       0.00000000
Ge       3.25553424       4.40198668       9.57921226      -0.34398236       0.10573746       0.19956304       0.00000000
Ge       2.86127705       8.07975421       9.44819664       0.19848358      -0.03725536       0.05819010      -0.00000000
Ge       2.75015400      12.40693225       9.57085319       0.41974144      -0.23016083       0.26228057       0.00000000
Ge       7.23371428       3.86561745       9.49078389      -0.46914350       0.63083701       0.65026306       0.00000000
Ge       7.37039098       8.39121827       9.74996693      -0.01732911      -0.03697537      -0.25641329       0.00000000
Ge       7.14453966      12.31476560       9.65385140      -0.10452848      -0.32652134      -0.30518402       0.00000000
Ge      11.18849777       4.04317146       9.50836622       0.24103013      -0.13649729       0.17976496       0.00000000
Ge       9.09034125       8.78950226       1.56917362       0.64277464       0.24105685      -0.78434328       0.00000000
Se      10.96656208      -0.03404757       7.25913827       0.23922766       0.60259889      -0.71200412      -0.00000000
Se       2.77693194       4.40286343       7.09323363      -0.07896614      -0.40399669      -0.29329764      -0.00000000
Se       2.78617891       8.40518061       6.93632126      -0.02131312      -0.16294838       0.22334128      -0.00000000
Se       6.93469661       0.10906667       7.09338071      -0.01430543      -0.01281019       0.31306230      -0.00000000
Se       7.13932620       4.55646512       7.07873953       0.42329605      -0.53082938      -0.56586641      -0.00000000
Se       6.89063725       8.50895213       7.21902446      -0.03333858      -0.01962434      -0.04583808      -0.00000000
Se      11.19989932       4.12388576       7.00165396      -0.33559023       0.35872331      -0.10725302      -0.00000000
Se       8.90896246       0.08788645       3.88123555       0.51327379      -0.05614974       0.39507650      -0.00000000
Se       0.80662983      -0.11050304       4.07727561       0.39728405       0.39640239      -0.29688874      -0.00000000
Se       0.50373754       4.53851207       3.88128212       0.18203707      -0.38451325       0.33757291      -0.00000000
Se       0.93000136       8.59774160       3.90560972      -0.15130166      -0.29511185      -0.20180359      -0.00000000
Se       4.82617324       0.44561548       3.97672005      -0.08292719      -0.11088898      -0.07067145      -0.00000000
Se       4.90666356       4.38804965       3.93499278       0.18872260       0.09157647      -0.44284984      -0.00000000
Se       5.05283734       8.27292568       3.93564651      -0.55568029       0.50163951      -0.44417060      -0.00000000
Se       2.92631884       0.20860002       7.06150031      -0.12429225       0.15634834       0.06597802      -0.00000000
Se      11.28557845       8.70648961       6.97584652      -0.32740783      -0.37076288       0.43924813      -0.00000000
Se      11.25572464      10.64719424       1.65562749      -0.79948700      -0.17966341      -0.66852623      -0.00000000
Se       2.65012669       2.40335368       1.68211974       0.16348471       0.33697942      -0.56100055      -0.00000000
Se      11.39278554       2.05611155       1.51081010      -0.71060983       0.01701313       0.39120107      -0.00000000
Se       9.18410039       3.99122948       3.84997422      -0.43689237       0.52581369       0.02904102      -0.00000000
Se       0.72528118       2.20645580       9.58624521      -0.10544543      -0.00165185      -0.18589914      -0.00000000
Se       0.69901511       6.32398932       9.65500733      -0.30551353       0.16635147      -0.70717177      -0.00000000
Se       0.84744443      10.56633506       9.51760776       0.39544190      -0.09425370      -0.15942587      -0.00000000
Se       4.92110856       2.48660260       9.46455725       0.46968983      -0.50528450       0.50687221      -0.00000000
Se       4.88900581       6.38563508       9.28229281      -0.22828757       0.16915469       0.88061793      -0.00000000
Se       4.83342625      10.60188403       9.56585713      -0.02639186       0.11023191       0.19521249      -0.00000000
Se       9.03088189       2.10895364       9.55945906       0.20332728      -0.04413392      -0.06221397      -0.00000000
Se       9.15019981       6.45305615       9.24018741      -0.08912289      -0.08842249      -0.17279977      -0.00000000
Se       9.04060478      10.41836619       9.51958833      -0.26270668       0.28808715      -0.11011164      -0.00000000
Se       2.70055280       6.40740704       1.36657240       0.29015938      -0.46640162       0.31713521      -0.00000000
Se       2.91353352      10.41440221       1.49045831       0.29784439       0.06539582       0.05586255      -0.00000000
Se       7.10126097       2.17994976       1.52133001      -0.14695503       0.03732065      -0.25222440      -0.00000000
Se       7.22087404       6.32934640       1.49778616      -0.09423142      -0.55510759      -0.55398752      -0.00000000
Se       6.82274196      10.66291881       1.59652669       0.14300397       0.36714349       0.26162255      -0.00000000
Se      10.79256218       6.77596564       1.75901335       0.74981607       0.11007325      -0.20237831      -0.00000000
Se       8.89664462       8.79336790       3.96370650      -0.33523662      -0.01585146       0.88345734      -0.00000000
