72
Lattice="12.466790259975232 2.9955097767e-06 1.2508240692e-06 3.0027954902e-06 12.49711165235377 8.3573466036e-06 1.4278570041e-06 9.5170398335e-06 11.055377147046613" Properties=species:S:1:pos:R:3:forces:R:3:magmoms:R:1 energy=-300.51277639 stress="0.003444637150705826 0.0013613459350760738 0.0002789952020251075 0.0013613459350760738 -0.006428771807228709 0.0008944450327108406 0.0002789952020251075 0.0008944450327108406 -0.00933245516498302" dipole="_JSON [[0.0, 0.0, 0.0]]" magmom=0.0019243 free_energy=-300.51277639 pbc="T T T"
Ge       0.57956792       0.53871536       1.18597411       0.01642479       0.25553165       0.65645141       0.00000000
Ge       2.93900104      10.86499496       4.01289204      -0.25210724       0.21287700       0.13711198       0.00000000
Ge       7.11516605       2.64453505       4.11119188       0.36514455      -0.22389504       0.13647803      -0.00000000
Ge       7.14690951       6.85870777       4.10464408      -0.44726603       0.01847046      -0.41914208       0.00000000
Ge       7.22306677      10.82086977       4.20224453       0.38384698      -0.01345561       0.01684040       0.00000000
Ge      11.17593622       2.68045144       4.28139546       0.48961223      -0.20365741      -0.34917927       0.00000000
Ge      11.25146621       6.54763542       3.99828453       0.65808094      -0.00496618       0.03855217       0.00000000
Ge      11.32702464      10.93519231       4.16956053       0.16016164      -0.37016181       0.02768888       0.00000000
Ge       1.03991297       1.89664799       6.90399542      -0.03170825       0.22943574       0.27364899       0.00000000
Ge       0.90285345       5.76232887       7.05136301      -0.41150054       0.49072770      -0.70385966       0.00000000
Ge       0.98282211      10.18401774       6.69957731      -0.45629717       0.58457374       0.50335015       0.00000000
Ge       5.27167968       1.99285858       6.89241333      -0.67682670       0.27840479       0.22057823       0.00000000
Ge       5.07042286       6.29190654       6.94221193       0.35903017      -0.36725864      -0.30122479       0.00000000
Ge       4.94072738      10.11709381       6.97087883      -0.03902589       0.15645842      -0.11891602       0.00000000
Ge       9.04810210       1.73840238       6.76569620       0.06993023       0.19667401       0.29080881       0.00000000
Ge       9.31634480       6.07509752       6.79038798      -0.24078437      -0.26583453       0.02162501       0.00000000
Ge       3.06937396       6.72342618       3.98175525      -0.35914891      -0.05422720       0.61377895       0.00000000
Ge       3.02378022       2.36635516       4.09192032       0.41709683       0.01332091      -0.41708976      -0.00000000
Ge       9.42987202      10.16281736       7.14999142      -0.49621147       0.64431913      -0.73873773       0.00000000
Ge      11.32174161       8.01816668       9.52255626       0.07016997       0.24293586       0.58646449       0.00000000
Ge      11.43495148      12.71345759       9.43808750       0.33559470      -0.13976194       0.44683895      -0.00000000
Ge       1.42773891       4.30230881       1.35402225      -0.27117383       0.05603721       0.37430114       0.00000000
Ge       0.94222915       8.74049469       1.27742579      -0.10781533       0.07657771      -0.13552944       0.00000000
Ge       5.39676431       0.19297855       1.48860438      -0.22190426       0.18139577       0.14855808      -0.00000000
Ge       5.23235159       4.78554977       1.29925065      -0.18871341      -0.58863114       0.18074050       0.00000000
Ge       9.30337307       0.59977291       1.40945099      -0.73168518      -0.46833930      -0.19371613       0.00000000
Ge       8.97153541       4.72080882       1.21927849       0.27895368       0.19589036       0.10713822       0.00000000
Ge       4.98444386       9.05657060       1.30792302      -0.10426886      -0.17511715       0.18851404       0.00000000
Ge       3.23229809       4.13586522       9.54581991       0.02818544      -0.17576351       0.09910169       0.00000000
Ge       2.93004187       7.95308043       9.73354324       0.05722419       0.18302941       0.08106628       0.00000000
Ge       2.93227485      12.07270433       9.71497748      -0.09997146       0.50049061      -0.15210056       0.00000000
Ge       7.09194766       4.09466131       9.53189316       0.13612791      -0.47511222       0.06212707       0.00000000
Ge       7.32235687       8.25693188       9.71657566      -0.13296960       0.28714956      -0.48837225       0.00000000
Ge       6.88740817      12.11911979       9.57241499       0.66928367       0.58561947       0.67766902      -0.00000000
Ge      11.27044710       3.97830277       9.72116635      -0.10380963      -0.54279530      -0.17067115       0.00000000
Ge       9.46332640       8.65496582       1.44544734       0.03537888      -0.14033522      -0.22138306       0.00000000
Se      11.12771621       0.12167228       6.99929525      -0.08020762      -0.06300769      -0.18618723      -0.00000000
Se       2.90123196       4.28397045       7.06034076       0.04745613      -0.43440419      -0.08803500      -0.00000000
Se       2.79688687       8.60914875       7.23303603       0.56080494      -0.85198646      -0.19931557      -0.00000000
Se       6.89235290       0.14578146       7.14722545       0.62254954      -0.46133836      -0.58645882      -0.00000000
Se       7.12526932       4.38038004       7.03238801      -0.24738724       0.39227046      -0.23957616      -0.00000000
Se       6.80290069       8.34501447       7.03053498       0.34258158       0.08590326       0.30898462      -0.00000000
Se      11.08153155       4.20322572       7.18086203       0.38738947       0.25877126      -0.06878797      -0.00000000
Se       9.34671709       0.01558514       3.93581163      -0.66054545       0.06298257       0.02403828      -0.00000000
Se       0.67179689       0.17675616       3.80897735       0.42098404       0.11769171      -0.26326887      -0.00000000
Se       0.67747318       4.43328598       4.07191349      -0.03838643      -0.13539805      -0.59426610      -0.00000000
Se       0.96841651       8.31071068       3.72697737      -0.21007829      -0.31764019       0.58451842      -0.00000000
Se       4.84847356       0.14708357       4.06916129      -0.12877886       0.10558279      -0.40595746      -0.00000000
Se       5.24705222       4.26744002       3.88350867      -0.89377086       0.08185960      -0.17157858      -0.00000000
Se       4.86008793       8.54887438       3.86014725       0.39988256       0.15286728       0.08704323      -0.00000000
Se       2.90528439       0.25239192       7.14802600       0.34338431      -0.38138390      -0.06094708      -0.00000000
Se      11.24818726       8.50363686       7.09650672       0.57707211      -0.36771326      -0.46875291      -0.00000000
Se      11.39755441      10.36384528       1.65107982      -0.17034887       0.14339114      -0.14019592      -0.00000000
Se       2.77276234       2.03638192       1.53216417      -0.05070188       0.53072770       0.30607373      -0.00000000
Se      10.94908573       2.38266612       1.65119617       1.21825390       0.07095742      -0.03725995      -0.00000000
Se       9.26068479       4.27366828       3.77431619      -1.07164831       0.56590323       0.24640246      -0.00000000
Se       0.97196175       2.25419160       9.48802102      -0.98553315       0.02692804      -0.11683252      -0.00000000
Se       0.90739550       6.34561199       9.50274155      -0.40949227      -0.25197612       0.40203883      -0.00000000
Se       0.74826172      10.71569465       9.36654194      -0.04792328      -0.15799293      -0.37913067      -0.00000000
Se       5.04449178       2.30560735       9.44397254       0.17673225       0.18201261      -0.09266093      -0.00000000
Se       4.95310087       6.27341613       9.43894712      -0.25104369       0.25831288       0.21596663      -0.00000000
Se       5.05040615      10.43524827       9.52868831      -0.70122428      -0.32353046      -0.15878037      -0.00000000
Se       9.02494738       2.29190124       9.32740850       0.25875488       0.02494552       0.25500203      -0.00000000
Se       9.10378623       6.50749045       9.30885781       0.43883897      -0.30359554       0.17738991      -0.00000000
Se       8.97811127      10.47201754       9.53382679      -0.08347178      -0.08344619       0.50124274      -0.00000000
Se       3.15826899       6.31672022       1.54502806      -0.23824553      -0.31473345      -0.48541806      -0.00000000
Se       2.74780843      10.60538761       1.49056246       0.39706698       0.07534590      -0.08254777      -0.00000000
Se       7.06482568       2.16766665       1.63498818       0.46622834      -0.30741855      -0.19224075      -0.00000000
Se       6.99858078       6.54363264       1.41107779       0.41111247       0.17183822       0.56439466      -0.00000000
Se       7.02852300      10.64470669       1.68690842      -0.19012322       0.08463899      -0.24365988      -0.00000000
Se      10.99359187       6.44359176       1.51455870      -0.10550165       0.08765258      -0.19592731      -0.00000000
Se       8.91964466       8.61749795       3.92457616       0.33826155       0.09437489       0.30517973      -0.00000000
72
Lattice="12.46830342144177 2.9958733579e-06 1.2509758884e-06 3.0017559687e-06 12.492785345039477 8.3544534191e-06 1.4272823705e-06 9.5132097501e-06 11.050927967742835" Properties=species:S:1:pos:R:3:forces:R:3:magmoms:R:1 energy=-300.57524784 stress="-0.00018078206000495399 -4.826243186683754e-05 -0.0011730738581502587 -4.826243186683754e-05 -0.005159984512738684 0.001236702286300145 -0.0011730738581502587 0.001236702286300145 -0.012617769743703903" dipole="_JSON [[0.0, 0.0, 0.0]]" magmom=0.0018589 free_energy=-300.57524784 pbc="T T T"
Ge       0.77532478       0.62216526       1.41937565       0.57260173      -0.56636286      -0.07559729       0.00000000
Ge       2.66437305      11.04735456       4.05273640       0.31993815      -0.45954398       0.14518295       0.00000000
Ge       7.01444565       2.71480053       4.15855717       0.18767544      -0.09641377      -0.41550002       0.00000000
Ge       7.09383734       6.87858780       4.13391768       0.19698537      -0.32266847       0.75896590       0.00000000
Ge       7.44508651      10.44500332       3.96524655      -0.20081088       0.51213993      -0.16250779       0.00000000
Ge      11.30818700       2.75307440       4.17077470      -0.37314492      -0.01665239       0.23102005      -0.00000000
Ge      11.39217758       6.52339582       3.79459098       0.00732003      -0.11633983       0.35087400      -0.00000000
Ge      11.34051303      10.72233358       4.05186606      -0.07253410       0.40311621       0.20076178      -0.00000000
Ge       1.26037304       1.97215774       6.97953342      -0.16890328       0.06331245      -0.05662664       0.00000000
Ge       0.74420334       5.93857181       6.86304611      -0.04000151      -0.14868748       0.74839077       0.00000000
Ge       0.62629363      10.22537944       6.96541256       0.82957639      -0.05452685      -0.37315065      -0.00000000
Ge       4.98738015       1.75043062       6.79672367       0.47478956      -0.05826599       0.32048214       0.00000000
Ge       5.27540890       6.18295775       6.90006249      -0.22740335       0.64991900      -0.25607738       0.00000000
Ge       4.77519934      10.06769965       6.72301315      -0.11612151      -0.49271735       0.63384246       0.00000000
Ge       9.05915828       1.78235357       6.99520205       0.27132310       0.06167327      -0.72907839       0.00000000
Ge       9.05912418       6.14792521       7.09691659       0.63147773       0.05184900      -0.64135998       0.00000000
Ge       3.07251907       6.76241889       4.11783309       0.00013485       0.08937023      -0.38766832       0.00000000
Ge       3.12213189       2.47306419       3.96443095      -0.58592228      -0.77711490       0.74090783       0.00000000
Ge       9.49012572      10.56251214       7.08119999       0.09017795      -0.09828973      -0.05103770      -0.00000000
Ge      11.52110403       8.19756674       9.70010539      -0.07287319      -0.44828206      -0.31599515      -0.00000000
Ge      11.60017046      12.66676370       9.56114303      -0.25279015      -0.29795026       0.18734511      -0.00000000
Ge       1.20855348       4.30543510       1.41443327      -0.18062269       0.25232916      -0.16028877       0.00000000
Ge       0.96392971       8.92460503       1.41689909      -0.13028113      -0.23663998      -0.28181852      -0.00000000
Ge       5.26027182       0.35964488       1.49040618       0.34423731      -0.30709200      -0.40079598       0.00000000
Ge       5.12607548       4.56007190       1.37593456      -0.29631198       0.29757919       0.48198283       0.00000000
Ge       9.33357984       0.36334011       1.73599089       0.18120515      -0.18151794      -0.35809068      -0.00000000
Ge       8.92932320       4.87071201       1.29705996       0.09288590      -0.61311718       0.14741840       0.00000000
Ge       4.92951341       8.89517204       1.34424247       0.21569522       0.26581571       0.00768980       0.00000000
Ge       3.39129857       4.31013479       9.38654243      -0.25314034      -0.30004803       0.62074138       0.00000000
Ge       2.79337045       8.04557168       9.70976747      -0.19011891      -0.12576369      -0.62489717       0.00000000
Ge       3.15489849      12.15105702       9.62950359      -0.35066582       0.22557800       0.24767864       0.00000000
Ge       7.16697479       4.01739989       9.43561497       0.10370561      -0.08755451       0.10197924       0.00000000
Ge       7.29969845       8.29547024       9.43565278       0.24773150       0.27941444       0.73154349       0.00000000
Ge       7.15733052      12.36891793       9.61139055      -0.22692890      -0.27371943      -0.17607201       0.00000000
Ge      11.12575970       3.81951131       9.56739841       0.22828138       0.44795562      -0.14218431       0.00000000
Ge       9.38454916       8.61370427       1.28153830       0.01503699       0.23463277       0.30253882       0.00000000
Se      11.24722112       0.21745197       7.05026008      -0.44094396      -0.35362603      -0.06273821      -0.00000000
Se       2.80842578       4.12867285       6.98706966       0.00235609       0.26575686      -0.33965832      -0.00000000
Se       2.67848770       8.27306145       7.04256288       0.22623401       0.71949328       0.30542157      -0.00000000
Se       7.14905815       0.01343930       7.05823727      -0.56388125       0.07764664       0.04640831      -0.00000000
Se       7.11599842       4.45504477       6.88576963       0.14453197      -0.46385291       0.48743013      -0.00000000
Se       6.95078698       8.42341787       7.02343630      -0.21025953      -0.05358766      -0.68609184      -0.00000000
Se      11.10462916       4.28453743       7.03586465      -0.13779958       0.12222029       0.03222752      -0.00000000
Se       9.15260490      -0.00524520       4.17855460       0.32610433      -0.35533780      -0.04497482      -0.00000000
Se       0.76817568       0.18448977       3.94706673      -0.44558303       0.00608422       0.05108742      -0.00000000
Se       0.75701114       4.44134876       3.94589624      -0.04106159       0.07890433       0.00577963      -0.00000000
Se       0.76263419       8.32025564       3.87346867       0.43489328       0.09628768       0.03033578      -0.00000000
Se       4.63390183       0.15037124       3.89852990       0.59237597       0.47821608       0.46620893      -0.00000000
Se       4.73891243       4.30445707       4.00808792       1.26313720       0.33710599      -0.55444659      -0.00000000
Se       5.12251241       8.53282558       3.88939523      -0.74289252       0.05069187       0.07615071      -0.00000000
Se       3.10040268       0.02051282       7.10027425      -0.16260033       0.43726325      -0.10263266      -0.00000000
Se      11.37335636       8.44433223       7.12474879      -0.64249221       0.09764008       0.25531757      -0.00000000
Se      11.26993600      10.47691468       1.54397274       0.00240737       0.02177739      -0.17144262      -0.00000000
Se       2.86060226       2.30662689       1.53593341      -0.08202513      -0.07984150      -0.70617264      -0.00000000
Se      11.37538721       2.17068822       1.70148475      -1.05573820       0.63664569      -0.32247395      -0.00000000
Se       8.90464770       4.44637307       3.88131329       0.57691669      -0.35608641      -0.07150247      -0.00000000
Se       0.69836974       2.19674509       9.48157434       0.35468206       0.05822312       0.02687554      -0.00000000
Se       0.70066921       6.15900488       9.58646623       0.32525238       0.49097752      -0.62982236      -0.00000000
Se       0.87533258      10.70609874       9.42998316       0.14509941      -0.10011442       0.25443365      -0.00000000
Se       5.22129986       2.35915208       9.37566709      -0.35889951      -0.06324848      -0.26608147      -0.00000000
Se       4.85029412       6.47445925       9.40004095       0.36759944      -0.37564069       0.21056691      -0.00000000
Se       4.85570597      10.35948178       9.42908944       0.42679041      -0.06586293      -0.38327804      -0.00000000
Se       9.08623684       2.16283929       9.42819031      -0.33872273      -0.05432687       0.60335574      -0.00000000
Se       9.32288649       6.48580730       9.54500559      -0.37844565       0.20720212       0.11110241      -0.00000000
Se       9.01905035      10.59834951       9.55420597       0.12368410      -0.39157392      -0.07518385      -0.00000000
Se       2.99024127       6.20267108       1.47348496       0.29885416       0.17491658       0.30602811      -0.00000000
Se       2.88013050      10.63853619       1.53053928      -0.09655824      -0.19390985      -0.00004655      -0.00000000
Se       7.32806688       1.95320421       1.56907762      -0.73686011       0.64662370       0.50445869      -0.00000000
Se       6.97083182       6.41181812       1.73511263      -0.41981157       0.27328298      -1.10247852      -0.00000000
Se       7.00714039      10.64269361       1.38369473      -0.38026421      -0.09122093       0.45353131      -0.00000000
Se      10.92338690       6.48576959       1.33896225       0.44908011      -0.05153612       0.09427354      -0.00000000
Se       9.15686551       8.49577504       3.89661119      -0.09736404       0.01739060      -0.15256739      -0.00000000
72
Lattice="12.465330725134377 2.9951590809e-06 1.2506776304e-06 3.0042801559e-06 12.503290572503543 8.3614787086e-06 1.4291372398e-06 9.5255729386e-06 11.06528954593036" Properties=species:S:1:pos:R:3:forces:R:3:magmoms:R:1 energy=-300.50305995 stress="-0.0030946442768115573 0.0017560823029580436 0.0001822271940619245 0.0017560823029580436 -0.0070790872259368825 -0.0019253298543700733 0.0001822271940619245 -0.0019253298543700733 -0.012535901191699627" dipole="_JSON [[0.0, 0.0, 0.0]]" magmom=0.0017666 free_energy=-300.50305995 pbc="T T T"
Ge       1.00191218       0.59348298       1.49130047      -0.44130331      -0.08361515      -0.12958878       0.00000000
Ge       2.82120787      11.11360736       4.12112456      -0.05410078      -0.55843187      -0.16985335       0.00000000
Ge       7.16836938       2.52927335       3.99400111       0.73833573      -0.40512712       0.13041571       0.00000000
Ge       7.00183590       6.73647299       4.04249535      -0.09545355       0.39049988       0.97273099       0.00000000
Ge       7.55466410      10.61916013       4.02401092      -0.29683887       0.46520424       0.23779881      -0.00000000
Ge      11.10788143       2.62841643       3.86058558       0.46681378      -0.53199905       0.16385465       0.00000000
Ge      11.65569138       6.37487503       4.19365257       0.34394490       0.28669051       0.42680530       0.00000000
Ge      11.34998983      10.99211646       3.93048861       0.20825670      -0.20998624       0.55219658       0.00000000
Ge       0.95592284       2.02834428       6.80244071       0.22950381       0.21434195       0.09042954       0.00000000
Ge       0.96826302       5.96922496       6.93788220      -0.85459381       0.49879727       0.54361039       0.00000000
Ge       1.04364461      10.25687922       7.00614119      -0.15810420       0.24510890      -0.33490461       0.00000000
Ge       5.12942162       1.96519102       7.08459316      -0.02542394       0.74157359      -0.17565341       0.00000000
Ge       5.38831545       6.13604938       6.95245637      -0.55446695      -0.56524787      -0.20475897       0.00000000
Ge       4.95937724      10.25267666       6.97093994      -0.05208842      -0.07492828       0.28892842      -0.00000000
Ge       9.21958435       1.68641444       6.99260381      -0.23655217       0.56366559      -0.16856632       0.00000000
Ge       9.44405381       6.30862093       6.76662525       0.12729666      -0.27368399       0.17327286       0.00000000
Ge       3.07703210       6.61401234       4.23539753      -0.14367024       0.66118482      -0.40717751      -0.00000000
Ge       3.20635770       2.37474059       3.96738458       0.24672832       0.16395378       1.13731421      -0.00000000
Ge       9.43412628      10.42537154       6.89490779      -0.12015348      -0.33787150      -0.03147067       0.00000000
Ge      11.22412613       8.28808223       9.52943449       0.22834820      -0.37078975      -0.41635654       0.00000000
Ge      11.32420424      12.15809689       9.58253113       0.52069607       0.16176206       0.33974070       0.00000000
Ge       1.07350408       4.50461676       1.30106909       0.02542114       0.05367399       0.24265135       0.00000000
Ge       1.01525907       8.87585609       1.50478967       0.16656133      -0.15457887      -0.00481003       0.00000000
Ge       5.14216090       0.38973366       1.39521085       0.28263423      -0.44543064      -0.14491683       0.00000000
Ge       5.07265389       4.67130434       1.38513667      -0.04690806      -0.09234620       0.40756930       0.00000000
Ge       9.19345716       0.43578433       1.06471168      -0.09444244      -0.09419846       0.07171071       0.00000000
Ge       9.13895073       4.92599740       1.55199633       0.15868005      -0.36286948      -0.15671687       0.00000000
Ge       4.88787021       8.71158845       1.43776792       0.12711318       0.69091363       0.00491486       0.00000000
Ge       3.10974436       4.07498199       9.53238569      -0.37727235       0.30174767       0.48457553       0.00000000
Ge       2.73418923       8.06945923       9.70490726       0.26835959       0.04142438      -0.40489212       0.00000000
Ge       2.93491737      12.53417298       9.45340525       0.09476901      -0.12721316       0.10753647      -0.00000000
Ge       7.14686979       3.99617916       9.76278778      -0.11899278       0.09053829       0.08209553       0.00000000
Ge       7.35596607       8.12165752       9.61084104      -0.23452576       0.13557672       0.34912492       0.00000000
Ge       6.93922301      12.18055966       9.66244238       0.60044561       0.23676137      -0.34878252       0.00000000
Ge      11.12287422       3.82705004       9.44108655       0.25605747       0.30935594       0.50573063       0.00000000
Ge       9.39408901       8.66654458       1.45949465       0.15181404       0.03388372       0.20068578       0.00000000
Se      11.10977077      -0.11131628       7.11816901      -0.28360479      -0.13979308      -0.31524599      -0.00000000
Se       2.64407667       4.23248228       7.09481819       0.41386474      -1.01310262      -0.42129776      -0.00000000
Se       2.92984730       8.61085098       6.98417889       0.05278493      -0.46460430       0.68373601      -0.00000000
Se       7.01637295       0.33343282       7.02026550       0.23268156      -0.90594562       0.40359288      -0.00000000
Se       7.07514994       4.15910200       7.30065493       0.05150185       0.65835932      -0.57612794      -0.00000000
Se       6.66840631       8.27453778       7.20272462       0.65295108       0.39741179      -0.30823898      -0.00000000
Se      11.23160230       4.38401168       6.97139481       0.01075930       0.17690608      -0.22350802      -0.00000000
Se       9.41169449       0.05894480       3.59982038      -0.57898848      -0.15977108       0.39039208      -0.00000000
Se       0.88055936       0.29031172       4.02614288      -0.45924003       0.05987746      -0.19512899      -0.00000000
Se       0.76482418       4.23362767       3.89000316      -0.34935425       0.54065874      -0.26691446      -0.00000000
Se       1.04544373       8.47003987       4.02761847      -0.02495758      -0.66510120      -0.13500111      -0.00000000
Se       4.72190091       0.25129280       3.86669986       0.59741553       0.45480608       0.24115931      -0.00000000
Se       5.35348415       4.16972049       4.06698769      -1.07372554       0.33702835      -0.60394888      -0.00000000
Se       4.96760232       8.50299299       3.96083676      -0.13775255      -0.38403729       0.13450744      -0.00000000
Se       2.96490719       0.32603590       6.92520082      -0.18697873      -0.36631449       0.27529594      -0.00000000
Se      11.29023537       8.53814256       6.89399706      -0.16173847       0.04813697       0.67439998      -0.00000000
Se      11.38646020      10.40883816       1.52125269      -0.07542135       0.12753632      -0.44222627      -0.00000000
Se       2.75669787       2.47712928       1.59922091       0.25317724      -0.17192491      -1.17334645      -0.00000000
Se      11.07689456       2.13494516       1.33709423       0.55746404       0.46849913       0.07812462      -0.00000000
Se       9.33088264       4.37133992       4.03112283      -1.10036271       0.17422985      -0.18553051      -0.00000000
Se       0.39983536       1.90510217       9.30735552       0.22187159      -0.00362406       0.21908999      -0.00000000
Se       0.75615947       6.49853854       9.61146475      -0.30153437      -0.09058987      -0.63422168      -0.00000000
Se       1.04944796      10.50344311       9.50514725      -0.56337048       0.38050641       0.12097248      -0.00000000
Se       4.93432527       2.31443223       9.61941220       0.25221282      -0.33738765      -0.05439551      -0.00000000
Se       4.60104515       6.17835341       9.39384785       0.25038179       0.02961676       0.28249625      -0.00000000
Se       4.93159116      10.76296753       9.58155579      -0.58272130      -0.44835694      -0.54491281      -0.00000000
Se       9.05955509       2.32047542       9.49508215       0.10955468      -0.59493272      -0.10714812      -0.00000000
Se       9.20563310       6.37355926       9.32085521       0.27994228       0.24751621       0.16725766      -0.00000000
Se       8.86229540      10.23645950       9.43560302       0.04693584       0.54364680      -0.16084967      -0.00000000
Se       2.98105636       6.29851385       1.57975616       0.23371747      -0.16338847       0.36509962      -0.00000000
Se       2.86058155      10.74579199       1.55086110       0.01310493      -0.48977152       0.16350885      -0.00000000
Se       7.13903157       2.06218713       1.47381864       0.06023481       0.26362975       0.13724289      -0.00000000
Se       6.92534335       6.45107420       1.65148856       0.27248303       0.16622700      -1.05229692      -0.00000000
Se       6.83052841      10.59578785       1.57806641      -0.10370183       0.01240288      -0.25018307      -0.00000000
Se      11.07446903       6.62828568       1.80694373       0.04203229      -0.16625327      -0.91600815      -0.00000000
Se       9.01394055       8.54660166       3.99056181       0.04149187      -0.12043751      -0.18558942      -0.00000000
72
Lattice="12.465128391875611 2.9951104644e-06 1.2506573298e-06 3.0047218803e-06 12.505128952329228 8.3627081109e-06 1.429629442e-06 9.5288535947e-06 11.069100488330275" Properties=species:S:1:pos:R:3:forces:R:3:magmoms:R:1 energy=-300.76608872 stress="0.0018745754438111448 -0.0005019837885278921 -0.0008816879310688292 -0.0005019837885278921 -0.0011630975672766476 0.00020488504559259638 -0.0008816879310688292 0.00020488504559259638 -0.006361567325149675" dipole="_JSON [[0.0, 0.0, 0.0]]" magmom=0.0018393 free_energy=-300.76608872 pbc="T T T"
Ge       0.82785054       0.49882078       1.36718367       0.46300950       0.34896898       0.02596325       0.00000000
Ge       2.75465044      11.12542962       4.14660077       0.42470765       0.41119421       0.09479830       0.00000000
Ge       7.27137274       2.47065834       4.00300678      -0.35496673      -0.22477387       0.07978127       0.00000000
Ge       7.02418401       6.69354930       4.29207118       0.33538623       0.44388426      -0.84085391      -0.00000000
Ge       7.39602287      10.62081099       3.97054743      -0.03543481      -0.32176557      -0.06464793       0.00000000
Ge      11.20503785       2.49875435       3.95167614       0.06047511       0.54296250      -0.00890622       0.00000000
Ge      11.64595176       6.62208355       4.16305614      -0.75423115      -0.60267983      -0.52791660       0.00000000
Ge      11.40010849      10.80010701       4.02060966      -0.32046979       0.28933918      -0.31838037       0.00000000
Ge       0.99589558       2.02343354       6.85425450       0.21999707      -0.25642620       0.05614657       0.00000000
Ge       0.67864805       5.87648538       7.12340483       0.38508623       0.10785393      -0.95126963       0.00000000
Ge       0.92295682      10.38494425       7.00773879       0.37144054      -0.16551884       0.19429601       0.00000000
Ge       5.20136643       2.05782095       7.01714735       0.08917893      -0.33668524       0.00096391       0.00000000