72
Lattice="12.464644441228119 2.9949941812e-06 1.2506087738e-06 3.0031953102e-06 12.498775633396969 8.358459378e-06 1.4283398716e-06 9.5202582712e-06 11.059115814079204" Properties=species:S:1:pos:R:3:forces:R:3:magmoms:R:1 energy=-300.91416725 stress="0.0028752535832783513 0.0010052111103679888 -0.00011315203807522692 0.0010052111103679888 -0.0020797647879396645 -0.0004084310877493988 -0.00011315203807522692 -0.0004084310877493988 -0.005287543114797147" dipole="_JSON [[0.0, 0.0, 0.0]]" magmom=0.0017453 free_energy=-300.91416725 pbc="T T T"
Ge       0.57500559       0.67923207       1.35824252       0.49010587      -0.35859367      -0.36318607       0.00000000
Ge       3.09778865      10.86546452       4.03058151      -0.38805998      -0.01951356      -0.12773380      -0.00000000
Ge       7.34659741       2.46202211       4.18932539      -0.07070474       0.29443498      -0.30747813       0.00000000
Ge       6.95315491       6.94265479       3.87643337       0.25771742       0.00427727       0.64657249       0.00000000
Ge       7.27194487      10.96166621       4.35038440       0.34248806      -0.27659128      -0.41522551       0.00000000
Ge      11.26350552       2.56204613       4.05054778      -0.23646977       0.15088221       0.19544326       0.00000000
Ge      11.60958098       6.54891327       4.12103718      -0.23471809      -0.40970788       0.03238552      -0.00000000
Ge      11.45068002      10.87106275       4.14825731      -0.16573788       0.34279749      -0.02903981      -0.00000000
Ge       1.01287673       2.04716801       6.90673128       0.16957963      -0.03357287      -0.15547205       0.00000000
Ge       0.89964516       6.08415040       6.86349723       0.01789161      -0.24803506       0.84201271      -0.00000000
Ge       1.06672337      10.31629854       6.81001195       0.04761672      -0.40569756      -0.41225752      -0.00000000
Ge       5.24618593       2.25938861       7.04681260      -0.06794012      -0.44113165      -0.34889713       0.00000000
Ge       5.13515517       6.17927499       6.87314169      -0.10077408       0.25898371       0.41765349       0.00000000
Ge       5.15077564      10.23815695       6.98062539      -0.50814069      -0.13805024       0.32487399       0.00000000
Ge       9.07124295       1.78020063       6.85523884       0.10180040       0.07046984      -0.05471281       0.00000000
Ge       9.33673828       5.87685433       6.63168981       0.37000013       0.31822839       0.14856195       0.00000000
Ge       2.98455636       6.58139803       4.17378254       0.15730431       0.40627633      -0.42359807      -0.00000000
Ge       3.38440569       2.30483307       4.02408498      -0.72221542       0.19230045       0.41304536       0.00000000
Ge       9.18359581      10.23717537       6.91367145       0.59086075      -0.06737487       0.46137160       0.00000000
Ge      11.16150636       8.06790115       9.55997919       0.39760218      -0.11544033      -0.43692421      -0.00000000
Ge      11.47829518      12.49170198       9.56676154      -0.15086828      -0.17074656      -0.25629297       0.00000000
Ge       1.22726839       4.41262037       1.35633489      -0.24985894      -0.03006002       0.09893934       0.00000000
Ge       0.83186592       8.71011684       1.23708817       0.42280673       0.16662584       0.35878922      -0.00000000
Ge       5.27899611       0.27752713       1.51983434       0.01899624      -0.29492729      -0.34278671       0.00000000
Ge       5.25340898       4.69125027       1.23162399      -0.08830766       0.10314811       0.42386461       0.00000000
Ge       9.00778705       0.58232769       1.08168291       0.49716218      -0.25251047       0.27476975       0.00000000
Ge       9.23074723       4.77699088       1.32287607      -0.40271621      -0.03145465       0.12941584       0.00000000
Ge       4.93373025       8.96076544       1.39475935       0.20211494       0.01947802       0.03686690       0.00000000
Ge       3.03947973       3.97914406       9.67484705       0.24584767       0.41858028      -0.36723866       0.00000000
Ge       3.00113688       7.93360831       9.79483982      -0.34382839       0.11182575      -0.57651027      -0.00000000
Ge       2.70441022      12.37023210       9.68429036       0.29230869      -0.26566192      -0.15564070       0.00000000
Ge       7.17191262       3.81628954       9.65026104      -0.15672232       0.71696531       0.03586150       0.00000000
Ge       7.33522817       8.35025917       9.58737291       0.03225549      -0.37317115       0.65587022       0.00000000
Ge       7.08188612      12.16703706       9.70385205      -0.18137269      -0.26152811      -0.47592158       0.00000000
Ge      11.19707885       3.94880222       9.73559393      -0.15117521       0.30227704      -0.08226705       0.00000000
Ge       9.55471827       8.61702684       1.56081757      -0.28045801      -0.03198312       0.08443362      -0.00000000
Se      10.83518379      -0.01401067       7.02834301       0.49572644      -0.05985061       0.16709838      -0.00000000
Se       2.82037894       4.16356895       7.10305414      -0.12100809       0.05050730       0.04335910      -0.00000000
Se       2.93314603       8.37174716       7.09578315      -0.12800148       0.52727682       0.40450021      -0.00000000
Se       7.04111262       0.17199036       7.02974208      -0.29503477       0.06903420       0.63778828      -0.00000000
Se       7.05712520       4.50721288       7.05001774      -0.02346798      -0.71981358       0.25017330      -0.00000000
Se       6.96997940       8.45127311       7.16937804      -0.28042120      -0.22579826      -0.78661340      -0.00000000
Se      11.29744047       4.24166440       7.20820553      -0.24773311       0.30996218      -0.45634494      -0.00000000
Se       9.15636649       0.12517932       3.69061254       0.34672544      -0.19719821       0.16700027      -0.00000000
Se       0.72503034       0.23075373       3.78995478       0.00036663      -0.16186887       0.62849516      -0.00000000
Se       0.67374566       4.36131499       3.89913055       0.11687995       0.19009606       0.12607252      -0.00000000
Se       0.96118247       8.28536313       3.84449029       0.20159223       0.12896027      -0.20344277      -0.00000000
Se       4.90658170       0.22981971       4.00713348       0.15760090      -0.23135824       0.09960635      -0.00000000
Se       5.13284931       4.07637964       3.85526996       0.26318303       0.36594050      -0.36030142      -0.00000000
Se       4.81767110       8.61451094       3.98344375      -0.05586534      -0.34773050      -0.10712392      -0.00000000
Se       2.75809315       0.15256281       7.15597941       0.35061857       0.34465354      -0.14304569      -0.00000000
Se      11.34152792       8.52122229       6.99147183      -0.30994093       0.16439397       0.38524582      -0.00000000
Se      11.39483640      10.40272371       1.64580109      -0.07859781       0.03932888      -0.18619299      -0.00000000
Se       2.64800472       2.26658623       1.58223751       0.29129721      -0.04520414      -0.35383307      -0.00000000
Se      11.16671104       2.36231020       1.53048535      -0.70966553       0.07747909      -0.18389271      -0.00000000
Se       8.93581626       4.43745017       3.84665062       0.53979167      -0.36427839       0.10936584      -0.00000000
Se       0.60020191       2.19267357       9.44721715       0.30724787      -0.29114880       0.01866349      -0.00000000
Se       0.88091718       6.28603034       9.51211486      -0.31561916       0.25679044      -0.52977203      -0.00000000
Se       0.77149030      10.61367645       9.25071340       0.02409438       0.13073163       0.78799027      -0.00000000
Se       5.08583810       2.25015537       9.51189999      -0.17759675      -0.12660952       0.17502341      -0.00000000
Se       4.84152774       6.25157238       9.47970661       0.00686140      -0.38802703      -0.30498925      -0.00000000
Se       4.83984315      10.60036813       9.55962968       0.36195859       0.20765641      -0.26651392      -0.00000000
Se       9.10821270       2.24674169       9.39312406       0.13055085      -0.29151290       0.01454299      -0.00000000
Se       9.21512080       6.44052947       9.17735746      -0.21757941       0.06966578       0.34484963      -0.00000000
Se       9.02523480      10.35081213       9.56544042      -0.07400306       0.36873953      -0.34064787      -0.00000000
Se       3.05015737       6.21288922       1.54449302       0.25029172       0.12464777       0.37486537      -0.00000000
Se       2.87075939      10.51516990       1.49382540      -0.29584268       0.19821675       0.10074922      -0.00000000
Se       7.10677695       2.12735568       1.57670523      -0.15252798       0.35644377       0.18481881      -0.00000000
Se       7.09238581       6.54971377       1.44238033      -0.14860118      -0.15944957      -0.42491612      -0.00000000
Se       6.93468672      10.71544834       1.79780723      -0.36407468      -0.08289575      -0.36043394      -0.00000000
Se      11.13305597       6.43320427       1.58636838       0.00366404       0.37512692       0.05541384      -0.00000000
Se       8.88631996       8.72435626       4.08158625      -0.00726029      -0.31470618      -0.31710656      -0.00000000
