72
Lattice="12.468428135426784 2.995903324e-06 1.2509884013e-06 3.0013933303e-06 12.491276107209767 8.353444128e-06 1.4265511104e-06 9.5083357106e-06 11.045266086970305" Properties=species:S:1:pos:R:3:forces:R:3:magmoms:R:1 energy=-300.38921866 stress="0.0008795248299755992 -0.0012065142038053139 0.0012567795047431017 -0.0012065142038053139 -0.0017857033193827516 -0.0007668765191358859 0.0012567795047431017 -0.0007668765191358859 -0.010476753288047981" dipole="_JSON [[0.0, 0.0, 0.0]]" magmom=0.0018769 free_energy=-300.38921866 pbc="T T T"
Ge       1.16306511       0.56831534       1.51835864      -0.73361739      -0.09024927       0.17188010       0.00000000
Ge       2.87135254      10.97997517       4.15990791      -0.02610612       0.04363175      -0.11482113       0.00000000
Ge       7.03728476       2.58725828       4.10023148       0.11821371      -0.05052170       0.76858709      -0.00000000
Ge       7.13782637       6.79868240       4.22601693      -0.16059575      -0.01090485      -0.83706956       0.00000000
Ge       7.36019866      10.47679496       3.86447807       0.07641697       0.14813989       0.63293145       0.00000000
Ge      11.17043928       2.76000180       4.08531646       0.11750533      -0.23894072      -0.18410330       0.00000000
Ge      11.57148315       6.46810715       3.86902032      -0.01295797       0.30712922       0.19118988       0.00000000
Ge      11.36911258      10.78895801       4.03361513      -0.06230761      -0.05254779      -0.07082662       0.00000000
Ge       1.31290835       2.07159164       6.91940188      -0.46392819       0.05579245       0.18234162       0.00000000
Ge       0.69181933       6.11404416       6.97513128       0.17061588      -0.59923322      -0.98892520       0.00000000
Ge       0.90680750      10.12549931       6.95502412      -0.56902798       0.63877056       0.31189753       0.00000000
Ge       5.19490603       1.66039030       6.87428903      -0.71439276       0.64897149      -0.38864775      -0.00000000
Ge       5.33460584       6.39535279       6.85306297       0.26567956      -0.44300198       0.27032743      -0.00000000
Ge       4.78467277       9.85340317       6.83025140       0.18159833       0.85161863      -0.10294523       0.00000000
Ge       9.14401956       1.85123098       6.93852840      -0.28272481       0.00159791       0.45632630       0.00000000
Ge       9.18257529       6.16994154       6.97488843      -0.05214634      -0.15693951       0.16905131       0.00000000
Ge       3.14177903       6.67466476       4.05002405      -0.44406553       0.01016638       0.35345900       0.00000000
Ge       3.11426860       2.19959410       4.05625576       0.18397326       0.63869652      -0.54281639      -0.00000000
Ge       9.46731593      10.67217610       6.94510639      -0.26633072      -0.62221613       0.07138815       0.00000000
Ge      11.47203079       8.09519181       9.65224096      -0.31134272       0.13637319       0.16422212       0.00000000
Ge      11.58302283      12.39272209       9.70433173       0.34081255       0.32458198      -0.09996746       0.00000000
Ge       0.87752336       4.50746356       1.21812222       0.42216590      -0.05357741       0.72324309       0.00000000
Ge       0.85276583       8.88512999       1.37684122       0.23356743      -0.11902089       0.17188947       0.00000000
Ge       5.27796874       0.42443342       1.33823223      -0.15421421      -0.18858645       0.31510288       0.00000000
Ge       4.94045501       4.58988154       1.50512310       0.08275507      -0.10299176      -0.38420202       0.00000000
Ge       9.44468657       0.26956406       1.67893297      -0.34587313       0.27254959      -0.20616709       0.00000000
Ge       9.02947213       4.68281228       1.44260051      -0.05449255       0.18024596      -0.29712176       0.00000000
Ge       4.97759423       8.81048188       1.37532188      -0.08033726      -0.21631244       0.13787392       0.00000000
Ge       3.27782971       4.24721311       9.51223621       0.34762534      -0.14177887      -0.41839748       0.00000000
Ge       2.70378329       7.99647625       9.42014218       0.80781030       0.20472463       0.51333919       0.00000000
Ge       3.09667249      12.37343723       9.66638611       0.12287904      -0.33095928      -0.23400019       0.00000000
Ge       7.26637134       3.85827948       9.54006037      -0.42072537       0.36106090       0.35419140       0.00000000
Ge       7.45482204       8.51135514       9.49141601      -0.33641432      -0.20358338      -0.17248020       0.00000000
Ge       7.20334496      12.24842060       9.48348469      -0.27913235      -0.18223621       0.08363554       0.00000000
Ge      11.04764144       4.04396913       9.42236218       0.25518215      -0.73578314       0.46645354       0.00000000
Ge       9.39538176       8.67508197       1.40131219       0.14032081      -0.18613595      -0.18329677       0.00000000
Se      11.01153824       0.10781809       7.18308824       0.76005149       0.10365972       0.00833216      -0.00000000
Se       2.74268065       4.24402539       6.96435514       0.00113077       0.21915452       0.32264604      -0.00000000
Se       2.62620412       8.33367456       6.93360958       0.42357333      -0.69317844      -0.10441152      -0.00000000
Se       7.05995931       0.07371623       6.95665081       0.60634659      -0.56267643       0.13818831      -0.00000000
Se       7.22319635       4.38530776       7.06207507      -0.08549662       0.40303643      -0.14038567      -0.00000000
Se       7.00781038       8.53231680       6.85373818      -0.04907408      -0.43596253       0.58260589      -0.00000000
Se      11.06139015       4.29379886       6.97930945       0.03047830       0.17288066      -0.19191699      -0.00000000
Se       9.19311259      -0.06983028       4.15760002      -0.03269462      -0.07848963      -0.30148396      -0.00000000
Se       0.58991289       0.20473247       4.15480071       0.78687799       0.06737237      -0.59908119      -0.00000000
Se       0.72403289       4.41406520       3.88138709      -0.26617483      -0.15575850      -0.44925594      -0.00000000
Se       0.85774082       8.50338439       3.91917755      -0.07090460      -0.46692539      -0.12695667      -0.00000000
Se       4.82622510       0.30660486       3.94447314      -0.12644004      -0.42630725      -0.42280141      -0.00000000
Se       5.04556213       4.22004757       3.96867001      -0.53791974      -0.07057013       0.42056015      -0.00000000
Se       4.83880755       8.55834245       3.99344361       0.48010120      -0.12881424      -0.31281566      -0.00000000
Se       2.96329397       0.08293504       7.10517453       0.33527720       0.36401826       0.09640270      -0.00000000
Se      11.14709722       8.61646829       7.20345207       0.64395636      -0.07052770      -0.42471005      -0.00000000
Se      11.23555432      10.56976058       1.42182862      -0.02678028      -0.13904772       0.37906304      -0.00000000
Se       2.78091801       2.48136291       1.34818851       0.09794196      -0.40647864       0.82183934      -0.00000000
Se      11.13654683       2.18542675       1.55754558       0.24952232       0.14811933       0.20809913      -0.00000000
Se       8.95562914       4.39874703       3.93442836       0.19561512       0.12952043       0.10100602      -0.00000000
Se       0.68311437       2.09185052       9.47641225      -0.35505321       0.17715959      -0.20092483      -0.00000000
Se       0.84910552       6.21795475       9.38340514      -0.48792882      -0.10806265       0.88355260      -0.00000000
Se       1.12839263      10.60780706       9.61524164      -0.54453517       0.09634647      -0.54143714      -0.00000000
Se       5.16336591       2.30800152       9.29634717      -0.32150495       0.14401080       0.54844536      -0.00000000
Se       4.88921842       6.37867291       9.36454007      -0.32308221       0.00394643      -0.10659465      -0.00000000
Se       4.92188259      10.48182206       9.29288790       0.08970549       0.03389355       0.45539526      -0.00000000
Se       8.97921026       2.00376172       9.64872548       0.49770195       0.24771173      -0.80638526      -0.00000000
Se       9.25406907       6.60059784       9.57435641       0.04565716      -0.26398424      -0.41134868      -0.00000000
Se       9.13289546      10.43726106       9.48158304      -0.22633106       0.46172739      -0.04224288      -0.00000000
Se       2.90622648       6.28439440       1.60820584      -0.16239853       0.04295256      -0.66122642      -0.00000000
Se       2.90875721      10.47854712       1.61667772      -0.34433235       0.56133806       0.03339735      -0.00000000
Se       7.08195572       2.13155779       1.72208314       0.36557279      -0.05993185      -1.00049708      -0.00000000
Se       6.75124112       6.37858663       1.55406781       0.76429018       0.26348551       0.48735968      -0.00000000
Se       6.82968796      10.59881719       1.43350106       0.26179926       0.20490638      -0.34612130      -0.00000000
Se      11.17590505       6.41909397       1.35525004      -0.43796243       0.06810478       0.26891833      -0.00000000
Se       9.15834711       8.48024176       3.88153054      -0.33337445       0.05484025       0.15124309      -0.00000000
