 vasp.6.4.1 05Apr23 (build May 18 2023 13:19:41) complex                         
 executed on    LinuxNV_CrayMPICH date 2023.12.08  07:20:03
 running  256 mpi-ranks, with    1 threads/rank, on    7 nodes
 distrk:  each k-point on  128 cores,    2 groups
 distr:  one band on NCORE=   4 cores,   32 groups


--------------------------------------------------------------------------------------------------------


 INCAR:
   SIGMA = 0.010000
   EDIFF = 1.00e-06
   ALGO = N
   GGA = PE
   PREC = Accurate
   SYSTEM = 02_SCF
   ICHARG = 0
   ISMEAR = 0
   ISPIN = 1
   ISTART = 1
   KPAR = 2
   LORBIT = 11
   NBANDS = 896
   NELMIN = 5
   NPAR = 32
   IVDW = 11
   LCHARG = .TRUE.
   LWAVE = .TRUE.
   LREAL = .FALSE.

 POTCAR:   PAW_PBE C 08Apr2002                    
 POTCAR:    PAW_PBE S 17Jan2003                   
 POTCAR:   PAW_PBE C 08Apr2002                    
   VRHFIN =C: s2p2                                                                                  
   LEXCH  = PE                                                                                      
   EATOM  =   147.1560 eV,   10.8157 Ry                                                             
                                                                                                    
   TITEL  = PAW_PBE C 08Apr2002                                                                     
   LULTRA =        F    use ultrasoft PP ?                                                          
   IUNSCR =        0    unscreen: 0-lin 1-nonlin 2-no                                               
   RPACOR =     .000    partial core radius                                                         
   POMASS =   12.011; ZVAL   =    4.000    mass and valenz                                          
   RCORE  =    1.500    outmost cutoff radius                                                       
   RWIGS  =    1.630; RWIGS  =     .863    wigner-seitz radius (au A)                               
   ENMAX  =  400.000; ENMIN  =  300.000 eV                                                          
   ICORE  =        2    local potential                                                             
   LCOR   =        T    correct aug charges                                                         
   LPAW   =        T    paw PP                                                                      
   EAUG   =  644.873                                                                                
   DEXC   =     .000                                                                                
   RMAX   =    2.266    core radius for proj-oper                                                   
   RAUG   =    1.300    factor for augmentation sphere                                              
   RDEP   =    1.501    radius for radial grids                                                     
   RDEPT  =    1.300    core radius for aug-charge                                                  
   QCUT   =   -5.516; QGAM   =   11.032    optimization parameters                                  
                                                                                                    
   Description                                                                                      
     l     E      TYP  RCUT    TYP  RCUT                                                            
     0   .000     23  1.200                                                                         
     0   .000     23  1.200                                                                         
     1   .000     23  1.500                                                                         
     1  2.500     23  1.500                                                                         
     2   .000      7  1.500                                                                         
  local pseudopotential read in
  atomic valenz-charges read in
  non local Contribution for L=            0  read in
    real space projection operators read in
  non local Contribution for L=            0  read in
    real space projection operators read in
  non local Contribution for L=            1  read in
    real space projection operators read in
  non local Contribution for L=            1  read in
    real space projection operators read in
    PAW grid and wavefunctions read in
 
   number of l-projection  operators is LMAX  =            4
   number of lm-projection operators is LMMAX =            8
 
 POTCAR:    PAW_PBE S 17Jan2003                   
   VRHFIN =S : s2p4                                                                                 
   LEXCH  = PE                                                                                      
   EATOM  =   276.8230 eV,   20.3459 Ry                                                             
                                                                                                    
   TITEL  = PAW_PBE S 17Jan2003                                                                     
   LULTRA =        F    use ultrasoft PP ?                                                          
   IUNSCR =        1    unscreen: 0-lin 1-nonlin 2-no                                               
   RPACOR =    1.500    partial core radius                                                         
   POMASS =   32.066; ZVAL   =    6.000    mass and valenz                                          
   RCORE  =    1.900    outmost cutoff radius                                                       
   RWIGS  =    2.200; RWIGS  =    1.164    wigner-seitz radius (au A)                               
   ENMAX  =  280.000; ENMIN  =  194.016 eV                                                          
   ICORE  =        2    local potential                                                             
   LCOR   =        T    correct aug charges                                                         
   LPAW   =        T    paw PP                                                                      
   EAUG   =  335.092                                                                                
   DEXC   =     .000                                                                                
   RMAX   =    2.867    core radius for proj-oper                                                   
   RAUG   =    1.300    factor for augmentation sphere                                              
   RDEP   =    1.954    radius for radial grids                                                     
   QCUT   =   -4.360; QGAM   =    8.721    optimization parameters                                  
                                                                                                    
   Description                                                                                      
     l     E      TYP  RCUT    TYP  RCUT                                                            
     0   .000     23  1.900                                                                         
     0   .000     23  1.900                                                                         
     1   .000     23  1.900                                                                         
     1   .000     23  1.900                                                                         
     2   .000     23  1.900                                                                         
  local pseudopotential read in
  partial core-charges read in
  atomic valenz-charges read in
  non local Contribution for L=            0  read in
    real space projection operators read in
  non local Contribution for L=            0  read in
    real space projection operators read in
  non local Contribution for L=            1  read in
    real space projection operators read in
  non local Contribution for L=            1  read in
    real space projection operators read in
    PAW grid and wavefunctions read in
 
   number of l-projection  operators is LMAX  =            4
   number of lm-projection operators is LMMAX =            8
 
 -----------------------------------------------------------------------------
|                                                                             |
|               ----> ADVICE to this user running VASP <----                  |
|                                                                             |
|     You have a (more or less) 'large supercell' and for larger cells it     |
|     might be more efficient to use real-space projection operators.         |
|     Therefore, try LREAL= Auto in the INCAR file.                           |
|     Mind: If you want to do very accurate calculations, keep the            |
|     reciprocal projection scheme (i.e. LREAL=.FALSE.).                      |
|                                                                             |
 -----------------------------------------------------------------------------

 PAW_PBE C 08Apr2002                    :
 energy of atom  1       EATOM= -147.1560
 kinetic energy error for atom=    0.0288 (will be added to EATOM!!)
  PAW_PBE S 17Jan2003                   :
 energy of atom  2       EATOM= -276.8230
 kinetic energy error for atom=    0.0046 (will be added to EATOM!!)
 
 
 POSCAR:  C  S
  positions in cartesian coordinates
  No initial velocities read in
 exchange correlation table for  LEXCH =        8
   RHO(1)=    0.500       N(1)  =     2000
   RHO(2)=  100.500       N(2)  =     4000
 


--------------------------------------------------------------------------------------------------------


 ion  position               nearest neighbor table
   1  0.371  0.538  0.002-  85 1.42 363 1.42 288 1.43
   2  0.369  0.544  0.063- 108 1.42  85 1.42   3 1.43
   3  0.338  0.595  0.061-   4 1.42   8 1.42   2 1.43
   4  0.320  0.611  0.030-   3 1.42 288 1.42   5 1.43
   5  0.278  0.629  0.028- 310 1.42  10 1.42   4 1.43
   6  0.366  0.549  0.123- 131 1.42 108 1.42   7 1.43
   7  0.335  0.599  0.122-   8 1.42  16 1.42   6 1.43
   8  0.317  0.614  0.090-   7 1.42   3 1.42   9 1.43
   9  0.274  0.629  0.089-  10 1.42  18 1.42   8 1.43
  10  0.254  0.627  0.057-   9 1.42   5 1.42  11 1.43
  11  0.212  0.603  0.056-  12 1.42  20 1.42  10 1.43
  12  0.196  0.584  0.024-  11 1.42 311 1.42  13 1.43
  13  0.168  0.528  0.023- 329 1.42  22 1.42  12 1.43
  14  0.364  0.554  0.184- 154 1.42 131 1.42  15 1.43
  15  0.331  0.602  0.182-  16 1.42  28 1.42  14 1.43
  16  0.313  0.617  0.151-  15 1.42   7 1.42  17 1.43
  17  0.270  0.629  0.149-  18 1.42  30 1.42  16 1.43
  18  0.250  0.626  0.118-  17 1.42   9 1.42  19 1.43
  19  0.209  0.599  0.116-  20 1.42  32 1.42  18 1.43
  20  0.193  0.580  0.085-  19 1.42  11 1.42  21 1.43
  21  0.166  0.522  0.083-  22 1.42  34 1.42  20 1.43
  22  0.159  0.492  0.052-  21 1.42  13 1.42  23 1.43
  23  0.155  0.420  0.050-  24 1.42  36 1.42  22 1.43
  24  0.159  0.388  0.019-  23 1.42 330 1.42  25 1.43
  25  0.178  0.324  0.017- 344 1.42  38 1.42  24 1.43
  26  0.361  0.560  0.244- 177 1.42 154 1.42  27 1.43
  27  0.328  0.605  0.242-  28 1.42  45 1.42  26 1.43
  28  0.309  0.619  0.211-  27 1.42  15 1.42  29 1.43
  29  0.266  0.629  0.209-  30 1.42  47 1.42  28 1.43
  30  0.246  0.624  0.178-  29 1.42  17 1.42  31 1.43
  31  0.205  0.596  0.176-  32 1.42  49 1.42  30 1.43
  32  0.190  0.575  0.145-  31 1.42  19 1.42  33 1.43
  33  0.164  0.516  0.143-  34 1.42  51 1.42  32 1.43
  34  0.158  0.485  0.112-  33 1.42  21 1.42  35 1.43
  35  0.155  0.414  0.111-  36 1.42  53 1.42  34 1.43
  36  0.160  0.382  0.079-  35 1.42  23 1.42  37 1.43
  37  0.181  0.319  0.078-  38 1.42  55 1.42  36 1.43
  38  0.195  0.295  0.046-  37 1.42  25 1.42  39 1.43
  39  0.233  0.260  0.045-  40 1.42  57 1.42  38 1.43
  40  0.253  0.252  0.013-  39 1.42 345 1.42  41 1.43
  41  0.297  0.254  0.012- 355 1.42  59 1.42  40 1.43
  42  0.371  0.538  0.336-  43 1.42 199 1.42  64 1.43
  43  0.359  0.565  0.305-  42 1.42 177 1.42  44 1.43
  44  0.324  0.609  0.303-  45 1.42  66 1.42  43 1.43
  45  0.305  0.621  0.272-  44 1.42  27 1.42  46 1.43
  46  0.262  0.629  0.270-  47 1.42  68 1.42  45 1.43
  47  0.242  0.623  0.239-  46 1.42  29 1.42  48 1.43
  48  0.202  0.592  0.237-  49 1.42  70 1.42  47 1.43
  49  0.187  0.570  0.206-  48 1.42  31 1.42  50 1.43
  50  0.163  0.510  0.204-  51 1.42  72 1.42  49 1.43
  51  0.157  0.479  0.173-  50 1.42  33 1.42  52 1.43
  52  0.156  0.407  0.171-  53 1.42  74 1.42  51 1.43
  53  0.161  0.375  0.140-  52 1.42  35 1.42  54 1.43
  54  0.183  0.314  0.138-  55 1.42  76 1.42  53 1.43
  55  0.198  0.291  0.107-  54 1.42  37 1.42  56 1.43
  56  0.237  0.258  0.105-  57 1.42  78 1.42  55 1.43
  57  0.257  0.251  0.074-  56 1.42  39 1.42  58 1.43
  58  0.301  0.255  0.072-  59 1.42  80 1.42  57 1.43
  59  0.320  0.266  0.041-  58 1.42  41 1.42  60 1.43
  60  0.356  0.308  0.039-  61 1.42  82 1.42  59 1.43
  61  0.368  0.334  0.008-  60 1.42 356 1.42  62 1.43
  62  0.386  0.399  0.006- 362 1.42  84 1.42  61 1.43
  63  0.370  0.544  0.396-  64 1.41  87 1.43 221 1.43
  64  0.357  0.570  0.365-  63 1.41  42 1.43  65 1.43
  65  0.321  0.611  0.363-  89 1.42  66 1.42  64 1.43
  66  0.302  0.622  0.332-  65 1.42  44 1.42  67 1.43
  67  0.258  0.628  0.330-  91 1.42  68 1.42  66 1.43
  68  0.238  0.621  0.299-  46 1.42  67 1.42  69 1.43
  69  0.199  0.588  0.297-  70 1.42  93 1.42  68 1.43
  70  0.184  0.566  0.266-  69 1.42  48 1.42  71 1.43
  71  0.161  0.504  0.264-  72 1.42  95 1.42  70 1.43
  72  0.156  0.472  0.233-  71 1.42  50 1.42  73 1.43
  73  0.157  0.401  0.231-  74 1.42  97 1.42  72 1.43
  74  0.163  0.369  0.200-  73 1.42  52 1.42  75 1.43
  75  0.186  0.309  0.198-  76 1.42  99 1.42  74 1.43
  76  0.201  0.287  0.167-  75 1.42  54 1.42  77 1.43
  77  0.241  0.256  0.165-  78 1.42 101 1.42  76 1.43
  78  0.261  0.250  0.134-  77 1.42  56 1.42  79 1.43
  79  0.305  0.257  0.132-  80 1.42 103 1.42  78 1.43
  80  0.323  0.269  0.101-  79 1.42  58 1.42  81 1.43
  81  0.358  0.313  0.099-  82 1.42 105 1.42  80 1.43
  82  0.371  0.339  0.068-  81 1.42  60 1.42  83 1.43
  83  0.386  0.406  0.067-  84 1.42 107 1.42  82 1.43
  84  0.388  0.439  0.035-  83 1.42  62 1.42  85 1.43
  85  0.380  0.509  0.034-   1 1.42   2 1.42  84 1.43
  86  0.368  0.550  0.457- 110 1.40  87 1.41 243 1.48
  87  0.354  0.573  0.426-  86 1.41  88 1.43  63 1.43
  88  0.317  0.612  0.424- 112 1.42  89 1.42  87 1.43
  89  0.298  0.623  0.393-  65 1.42  88 1.42  90 1.43
  90  0.254  0.626  0.391-  91 1.42 114 1.42  89 1.43
  91  0.234  0.619  0.360-  90 1.42  67 1.42  92 1.43
  92  0.196  0.584  0.358-  93 1.42 116 1.42  91 1.43
  93  0.181  0.561  0.327-  92 1.42  69 1.42  94 1.43
  94  0.160  0.498  0.325-  95 1.42 118 1.42  93 1.43
  95  0.156  0.466  0.294-  94 1.42  71 1.42  96 1.43
  96  0.158  0.394  0.292-  97 1.42 120 1.42  95 1.43
  97  0.164  0.363  0.261-  96 1.42  73 1.42  98 1.43
  98  0.189  0.304  0.259-  99 1.42 122 1.42  97 1.43
  99  0.205  0.283  0.228-  98 1.42  75 1.42 100 1.43
 100  0.245  0.254  0.226- 101 1.42 124 1.42  99 1.43
 101  0.265  0.249  0.195- 100 1.42  77 1.42 102 1.43
 102  0.308  0.259  0.193- 103 1.42 126 1.42 101 1.43
 103  0.327  0.272  0.162- 102 1.42  79 1.42 104 1.43
 104  0.361  0.318  0.160- 105 1.42 128 1.42 103 1.43
 105  0.373  0.345  0.129- 104 1.42  81 1.42 106 1.43
 106  0.387  0.412  0.127- 107 1.42 130 1.42 105 1.43
 107  0.388  0.445  0.096- 106 1.42  83 1.42 108 1.43
 108  0.378  0.515  0.094-   2 1.42   6 1.42 107 1.43
 109  0.364  0.552  0.517- 265 1.40 133 1.43 110 1.44
 110  0.351  0.576  0.486-  86 1.40 111 1.43 109 1.44
 111  0.313  0.614  0.484- 112 1.42 135 1.42 110 1.43
 112  0.294  0.624  0.453- 111 1.42  88 1.42 113 1.43
 113  0.250  0.625  0.451- 137 1.42 114 1.42 112 1.43
 114  0.230  0.617  0.420- 113 1.42  90 1.42 115 1.43
 115  0.192  0.580  0.418- 116 1.42 139 1.42 114 1.43
 116  0.179  0.555  0.387- 115 1.42  92 1.42 117 1.43
 117  0.159  0.492  0.385- 118 1.42 141 1.42 116 1.43
 118  0.155  0.459  0.354- 117 1.42  94 1.42 119 1.43
 119  0.159  0.388  0.352- 120 1.42 143 1.42 118 1.43
 120  0.166  0.357  0.321- 119 1.42  96 1.42 121 1.43
 121  0.192  0.300  0.319- 122 1.42 145 1.42 120 1.43
 122  0.208  0.279  0.288- 121 1.42  98 1.42 123 1.43
 123  0.249  0.252  0.286- 124 1.42 147 1.42 122 1.43
 124  0.269  0.249  0.255- 123 1.42 100 1.42 125 1.43
 125  0.312  0.261  0.253- 126 1.42 149 1.42 124 1.43
 126  0.330  0.275  0.222- 125 1.42 102 1.42 127 1.43
 127  0.364  0.322  0.220- 128 1.42 151 1.42 126 1.43
 128  0.374  0.350  0.189- 127 1.42 104 1.42 129 1.43
 129  0.387  0.419  0.187- 130 1.42 153 1.42 128 1.43
 130  0.388  0.452  0.156- 129 1.42 106 1.42 131 1.43
 131  0.377  0.521  0.154-   6 1.42  14 1.42 130 1.43
 132  0.362  0.559  0.578- 133 1.42 287 1.42 156 1.42
 133  0.347  0.582  0.546- 132 1.42 134 1.42 109 1.43
 134  0.309  0.617  0.545- 158 1.42 135 1.42 133 1.42
 135  0.290  0.625  0.513- 111 1.42 134 1.42 136 1.42
 136  0.246  0.623  0.512- 137 1.42 160 1.42 135 1.42
 137  0.226  0.614  0.480- 113 1.42 136 1.42 138 1.43
 138  0.189  0.575  0.479- 139 1.42 162 1.42 137 1.43
 139  0.176  0.550  0.447- 138 1.42 115 1.42 140 1.43
 140  0.158  0.485  0.446- 164 1.42 141 1.42 139 1.43
 141  0.155  0.453  0.415- 140 1.42 117 1.42 142 1.43
 142  0.160  0.382  0.413- 143 1.42 166 1.42 141 1.43
 143  0.168  0.351  0.382- 142 1.42 119 1.42 144 1.43
 144  0.195  0.295  0.380- 168 1.42 145 1.42 143 1.43
 145  0.211  0.276  0.349- 144 1.42 121 1.42 146 1.43
 146  0.253  0.251  0.347- 170 1.42 147 1.42 145 1.43
 147  0.273  0.249  0.316- 123 1.42 146 1.42 148 1.43
 148  0.316  0.263  0.314- 149 1.42 172 1.42 147 1.43
 149  0.334  0.278  0.283- 148 1.42 125 1.42 150 1.43
 150  0.366  0.328  0.281- 174 1.42 151 1.42 149 1.43
 151  0.376  0.356  0.250- 127 1.42 150 1.42 152 1.43
 152  0.388  0.425  0.248- 153 1.42 176 1.42 151 1.43
 153  0.387  0.458  0.217- 152 1.42 129 1.42 154 1.43
 154  0.375  0.527  0.215-  14 1.42  26 1.42 153 1.43
 155  0.359  0.565  0.638- 156 1.42 179 1.42 309 1.43
 156  0.344  0.587  0.607- 155 1.42 132 1.42 157 1.42
 157  0.306  0.621  0.605- 158 1.42 181 1.42 156 1.42
 158  0.286  0.627  0.574- 134 1.42 157 1.42 159 1.43
 159  0.242  0.623  0.572- 160 1.42 183 1.42 158 1.43
 160  0.223  0.612  0.541- 159 1.42 136 1.42 161 1.43
 161  0.187  0.570  0.539- 185 1.42 162 1.42 160 1.43
 162  0.174  0.545  0.508- 138 1.42 161 1.42 163 1.43
 163  0.157  0.479  0.506- 164 1.42 187 1.42 162 1.43
 164  0.154  0.446  0.475- 140 1.42 163 1.42 165 1.43
 165  0.161  0.376  0.473- 189 1.42 166 1.42 164 1.43
 166  0.169  0.346  0.442- 165 1.42 142 1.42 167 1.43
 167  0.198  0.291  0.440- 191 1.42 168 1.42 166 1.43
 168  0.215  0.273  0.409- 144 1.42 167 1.42 169 1.43
 169  0.257  0.251  0.407- 170 1.42 193 1.42 168 1.43
 170  0.277  0.249  0.376- 169 1.42 146 1.42 171 1.43
 171  0.320  0.266  0.374- 195 1.42 172 1.42 170 1.43
 172  0.337  0.282  0.343- 171 1.42 148 1.42 173 1.42
 173  0.368  0.333  0.341- 174 1.42 197 1.42 172 1.42
 174  0.378  0.362  0.310- 173 1.42 150 1.42 175 1.43
 175  0.388  0.432  0.308- 176 1.42 199 1.42 174 1.43
 176  0.387  0.465  0.277- 175 1.42 152 1.42 177 1.43
 177  0.373  0.532  0.275-  26 1.42  43 1.42 176 1.43
 178  0.356  0.569  0.699- 179 1.42 201 1.42 328 1.43
 179  0.341  0.591  0.667- 155 1.42 178 1.42 180 1.43
 180  0.302  0.623  0.665- 181 1.42 203 1.42 179 1.43
 181  0.282  0.628  0.634- 180 1.42 157 1.42 182 1.43
 182  0.238  0.621  0.633- 205 1.42 183 1.42 181 1.43
 183  0.219  0.609  0.601- 159 1.42 182 1.42 184 1.43
 184  0.184  0.566  0.600- 185 1.42 207 1.42 183 1.43
 185  0.172  0.539  0.568- 161 1.42 184 1.42 186 1.43
 186  0.156  0.473  0.567- 209 1.42 187 1.42 185 1.43
 187  0.154  0.440  0.535- 186 1.42 163 1.42 188 1.43
 188  0.162  0.369  0.534- 189 1.42 211 1.42 187 1.43
 189  0.171  0.340  0.502- 165 1.42 188 1.42 190 1.43
 190  0.201  0.287  0.501- 191 1.42 213 1.42 189 1.43
 191  0.218  0.270  0.470- 190 1.42 167 1.42 192 1.43
 192  0.261  0.250  0.468- 215 1.42 193 1.42 191 1.43
 193  0.281  0.251  0.437- 192 1.42 169 1.42 194 1.42
 194  0.323  0.271  0.435- 217 1.42 195 1.42 193 1.42
 195  0.340  0.287  0.404- 171 1.42 194 1.42 196 1.42
 196  0.370  0.340  0.402- 197 1.42 195 1.42 219 1.43
 197  0.379  0.368  0.370- 196 1.42 198 1.42 173 1.42
 198  0.388  0.438  0.368- 221 1.42 199 1.42 197 1.42
 199  0.386  0.471  0.337- 198 1.42 175 1.42  42 1.42
 200  0.353  0.574  0.759- 201 1.42 223 1.42 343 1.43
 201  0.338  0.595  0.728- 200 1.42 178 1.42 202 1.43
 202  0.298  0.624  0.726- 203 1.42 225 1.42 201 1.43
 203  0.278  0.629  0.695- 202 1.42 180 1.42 204 1.43
 204  0.234  0.619  0.693- 205 1.42 227 1.42 203 1.43
 205  0.216  0.606  0.662- 204 1.42 182 1.42 206 1.43
 206  0.182  0.561  0.660- 207 1.42 229 1.42 205 1.43
 207  0.170  0.534  0.629- 206 1.42 184 1.42 208 1.43
 208  0.156  0.466  0.627- 209 1.42 231 1.42 207 1.43
 209  0.154  0.433  0.596- 186 1.42 208 1.42 210 1.43
 210  0.164  0.363  0.594- 211 1.42 233 1.42 209 1.43
 211  0.174  0.334  0.563- 210 1.42 188 1.42 212 1.43
 212  0.204  0.283  0.561- 213 1.42 235 1.42 211 1.43
 213  0.222  0.267  0.530- 212 1.42 190 1.42 214 1.43
 214  0.265  0.250  0.528- 215 1.42 237 1.42 213 1.43
 215  0.285  0.251  0.497- 192 1.42 214 1.42 216 1.43
 216  0.327  0.274  0.495- 217 1.42 239 1.42 215 1.43
 217  0.343  0.292  0.464- 216 1.42 194 1.42 218 1.43
 218  0.372  0.347  0.463- 241 1.40 217 1.43 219 1.44
 219  0.381  0.376  0.431- 220 1.40 196 1.43 218 1.44
 220  0.389  0.445  0.428- 219 1.40 221 1.41 243 1.47
 221  0.386  0.478  0.398- 220 1.41 198 1.42  63 1.43
 222  0.351  0.579  0.819- 223 1.42 245 1.42 354 1.43
 223  0.335  0.599  0.788- 222 1.42 200 1.42 224 1.43
 224  0.294  0.626  0.786- 225 1.42 247 1.42 223 1.43
 225  0.274  0.629  0.755- 224 1.42 202 1.42 226 1.43
 226  0.230  0.617  0.753- 227 1.42 249 1.42 225 1.43
 227  0.212  0.603  0.722- 226 1.42 204 1.42 228 1.43
 228  0.179  0.556  0.720- 229 1.42 251 1.42 227 1.43
 229  0.168  0.528  0.689- 228 1.42 206 1.42 230 1.43
 230  0.155  0.460  0.687- 231 1.42 253 1.42 229 1.43
 231  0.155  0.427  0.656- 230 1.42 208 1.42 232 1.43
 232  0.166  0.358  0.654- 233 1.42 255 1.42 231 1.43
 233  0.176  0.329  0.623- 232 1.42 210 1.42 234 1.43
 234  0.208  0.280  0.622- 235 1.42 257 1.42 233 1.43
 235  0.226  0.264  0.590- 234 1.42 212 1.42 236 1.43
 236  0.269  0.249  0.589- 237 1.42 259 1.42 235 1.43
 237  0.289  0.252  0.557- 236 1.42 214 1.42 238 1.43
 238  0.330  0.276  0.556- 261 1.42 239 1.42 237 1.43
 239  0.347  0.296  0.524- 216 1.42 238 1.42 240 1.43
 240  0.375  0.351  0.522- 241 1.41 239 1.43 263 1.43
 241  0.384  0.380  0.491- 218 1.40 240 1.41 242 1.48
 242  0.397  0.452  0.490- 265 1.47 241 1.48 243 1.50 365 1.88
 243  0.393  0.488  0.458- 220 1.47  86 1.48 242 1.50 365 1.88
 244  0.348  0.583  0.880- 245 1.42 267 1.42 361 1.43
 245  0.331  0.602  0.849- 244 1.42 222 1.42 246 1.43
 246  0.290  0.627  0.847- 247 1.42 269 1.42 245 1.43
 247  0.270  0.629  0.816- 246 1.42 224 1.42 248 1.43
 248  0.227  0.615  0.814- 249 1.42 271 1.42 247 1.43
 249  0.209  0.599  0.783- 248 1.42 226 1.42 250 1.43
 250  0.177  0.550  0.781- 251 1.42 273 1.42 249 1.43
 251  0.166  0.522  0.750- 250 1.42 228 1.42 252 1.43
 252  0.155  0.453  0.748- 253 1.42 275 1.42 251 1.43
 253  0.155  0.420  0.717- 252 1.42 230 1.42 254 1.43
 254  0.168  0.352  0.715- 255 1.42 277 1.42 253 1.43
 255  0.178  0.324  0.684- 254 1.42 232 1.42 256 1.43
 256  0.211  0.276  0.682- 257 1.42 279 1.42 255 1.43
 257  0.229  0.262  0.651- 256 1.42 234 1.42 258 1.43
 258  0.273  0.249  0.649- 281 1.42 259 1.42 257 1.43
 259  0.293  0.253  0.618- 236 1.42 258 1.42 260 1.43
 260  0.334  0.279  0.616- 261 1.42 283 1.42 259 1.43
 261  0.350  0.299  0.585- 238 1.42 260 1.42 262 1.43
 262  0.377  0.356  0.583- 263 1.41 285 1.43 261 1.43
 263  0.385  0.386  0.552- 262 1.41 240 1.43 264 1.43
 264  0.388  0.458  0.551- 265 1.41 287 1.42 263 1.43
 265  0.385  0.490  0.520- 109 1.40 264 1.41 242 1.47
 266  0.345  0.587  0.940- 267 1.42 289 1.42 364 1.43
 267  0.328  0.606  0.909- 266 1.42 244 1.42 268 1.43
 268  0.286  0.628  0.907- 269 1.42 291 1.42 267 1.43
 269  0.266  0.629  0.876- 268 1.42 246 1.42 270 1.43
 270  0.223  0.612  0.874- 271 1.42 293 1.42 269 1.43
 271  0.205  0.596  0.843- 270 1.42 248 1.42 272 1.43
 272  0.174  0.545  0.841- 273 1.42 295 1.42 271 1.43
 273  0.164  0.516  0.810- 272 1.42 250 1.42 274 1.43
 274  0.154  0.447  0.808- 275 1.42 297 1.42 273 1.43
 275  0.155  0.414  0.777- 274 1.42 252 1.42 276 1.43
 276  0.169  0.346  0.775- 277 1.42 299 1.42 275 1.43
 277  0.181  0.319  0.744- 276 1.42 254 1.42 278 1.43
 278  0.215  0.273  0.742- 279 1.42 301 1.42 277 1.43
 279  0.233  0.260  0.711- 278 1.42 256 1.42 280 1.43
 280  0.277  0.249  0.709- 281 1.42 303 1.42 279 1.43
 281  0.297  0.254  0.678- 280 1.42 258 1.42 282 1.43
 282  0.337  0.282  0.676- 283 1.42 305 1.42 281 1.43
 283  0.353  0.303  0.645- 282 1.42 260 1.42 284 1.43
 284  0.378  0.362  0.644- 285 1.42 307 1.42 283 1.43
 285  0.385  0.393  0.613- 284 1.42 286 1.42 262 1.43
 286  0.387  0.464  0.611- 287 1.42 309 1.42 285 1.42
 287  0.383  0.496  0.580- 264 1.42 286 1.42 132 1.42
 288  0.341  0.591  0.001- 289 1.42   4 1.42   1 1.43
 289  0.324  0.609  0.970- 288 1.42 266 1.42 290 1.43
 290  0.282  0.628  0.968- 291 1.42 310 1.42 289 1.43
 291  0.262  0.628  0.937- 290 1.42 268 1.42 292 1.43
 292  0.219  0.609  0.935- 293 1.42 312 1.42 291 1.43
 293  0.202  0.592  0.904- 292 1.42 270 1.42 294 1.43
 294  0.172  0.539  0.902- 295 1.42 314 1.42 293 1.43
 295  0.163  0.510  0.871- 294 1.42 272 1.42 296 1.43
 296  0.154  0.440  0.869- 297 1.42 316 1.42 295 1.43
 297  0.156  0.407  0.838- 296 1.42 274 1.42 298 1.43
 298  0.172  0.340  0.836- 299 1.42 318 1.42 297 1.43
 299  0.184  0.314  0.805- 298 1.42 276 1.42 300 1.43
 300  0.218  0.270  0.803- 301 1.42 320 1.42 299 1.43
 301  0.237  0.258  0.772- 300 1.42 278 1.42 302 1.43
 302  0.281  0.250  0.770- 303 1.42 322 1.42 301 1.43
 303  0.301  0.255  0.739- 302 1.42 280 1.42 304 1.43
 304  0.341  0.286  0.737- 305 1.42 324 1.42 303 1.43
 305  0.356  0.308  0.706- 304 1.42 282 1.42 306 1.43
 306  0.380  0.368  0.704- 307 1.42 326 1.42 305 1.43
 307  0.385  0.399  0.673- 306 1.42 284 1.42 308 1.43
 308  0.386  0.471  0.671- 309 1.42 328 1.42 307 1.43
 309  0.381  0.503  0.640- 308 1.42 286 1.42 155 1.43
 310  0.258  0.628  0.997-   5 1.42 290 1.42 311 1.43
 311  0.216  0.606  0.995- 312 1.42  12 1.42 310 1.43
 312  0.199  0.588  0.964- 311 1.42 292 1.42 313 1.43
 313  0.170  0.534  0.962- 314 1.42 329 1.42 312 1.43
 314  0.161  0.504  0.931- 313 1.42 294 1.42 315 1.43
 315  0.154  0.433  0.929- 316 1.42 331 1.42 314 1.43
 316  0.157  0.401  0.898- 315 1.42 296 1.42 317 1.43
 317  0.174  0.335  0.896- 318 1.42 333 1.42 316 1.43
 318  0.186  0.309  0.865- 317 1.42 298 1.42 319 1.43
 319  0.222  0.267  0.863- 320 1.42 335 1.42 318 1.43
 320  0.241  0.256  0.832- 319 1.42 300 1.42 321 1.43
 321  0.285  0.251  0.830- 322 1.42 337 1.42 320 1.43
 322  0.305  0.257  0.799- 321 1.42 302 1.42 323 1.43
 323  0.344  0.290  0.797- 324 1.42 339 1.42 322 1.43
 324  0.358  0.313  0.766- 323 1.42 304 1.42 325 1.43
 325  0.381  0.374  0.764- 326 1.42 341 1.42 324 1.43
 326  0.386  0.406  0.733- 325 1.42 306 1.42 327 1.43
 327  0.386  0.477  0.732- 328 1.42 343 1.42 326 1.43
 328  0.380  0.509  0.700- 327 1.42 308 1.42 178 1.43
 329  0.160  0.498  0.991-  13 1.42 313 1.42 330 1.43
 330  0.155  0.427  0.990- 331 1.42  24 1.42 329 1.43
 331  0.158  0.394  0.958- 330 1.42 315 1.42 332 1.43
 332  0.176  0.329  0.957- 333 1.42 344 1.42 331 1.43
 333  0.189  0.304  0.926- 332 1.42 317 1.42 334 1.43
 334  0.226  0.264  0.924- 335 1.42 346 1.42 333 1.43
 335  0.245  0.254  0.893- 334 1.42 319 1.42 336 1.43
 336  0.289  0.251  0.891- 337 1.42 348 1.42 335 1.43
 337  0.309  0.259  0.860- 336 1.42 321 1.42 338 1.43
 338  0.347  0.294  0.858- 339 1.42 350 1.42 337 1.43
 339  0.361  0.318  0.827- 338 1.42 323 1.42 340 1.43
 340  0.382  0.380  0.825- 341 1.42 352 1.42 339 1.43
 341  0.387  0.412  0.794- 340 1.42 325 1.42 342 1.43
 342  0.385  0.484  0.792- 343 1.42 354 1.42 341 1.43
 343  0.378  0.515  0.761- 342 1.42 327 1.42 200 1.43
 344  0.192  0.300  0.986-  25 1.42 332 1.42 345 1.43
 345  0.229  0.262  0.984- 346 1.42  40 1.42 344 1.43
 346  0.249  0.253  0.953- 345 1.42 334 1.42 347 1.43
 347  0.293  0.253  0.951- 348 1.42 355 1.42 346 1.43
 348  0.312  0.261  0.920- 347 1.42 336 1.42 349 1.43
 349  0.350  0.299  0.918- 350 1.42 357 1.42 348 1.43
 350  0.364  0.323  0.887- 349 1.42 338 1.42 351 1.43
 351  0.384  0.387  0.885- 352 1.42 359 1.42 350 1.43
 352  0.387  0.419  0.854- 351 1.42 340 1.42 353 1.43
 353  0.384  0.490  0.852- 354 1.42 361 1.42 352 1.43
 354  0.377  0.521  0.821- 353 1.42 342 1.42 222 1.43
 355  0.316  0.264  0.980-  41 1.42 347 1.42 356 1.43
 356  0.353  0.303  0.979- 357 1.42  61 1.42 355 1.43
 357  0.366  0.328  0.947- 356 1.42 349 1.42 358 1.43
 358  0.385  0.393  0.946- 359 1.42 362 1.42 357 1.43
 359  0.388  0.426  0.915- 358 1.42 351 1.42 360 1.43
 360  0.383  0.497  0.913- 361 1.42 364 1.42 359 1.43
 361  0.375  0.527  0.882- 360 1.42 353 1.42 244 1.43
 362  0.388  0.432  0.975-  62 1.42 358 1.42 363 1.43
 363  0.381  0.503  0.973- 364 1.42   1 1.42 362 1.43
 364  0.373  0.533  0.942- 363 1.42 360 1.42 266 1.43
 365  0.448  0.483  0.474- 242 1.88 243 1.88
 
  LATTYP: Found a simple orthorhombic cell.
 ALAT       =    19.9214134216
 B/A-ratio  =     1.6250001197
 C/A-ratio  =     2.0303804144
  
  Lattice vectors:
  
 A1 = (   0.0000000000, -19.9214134216,   0.0000000000)
 A2 = (  32.3722991943,   0.0000000000,   0.0000000000)
 A3 = (   0.0000000000,   0.0000000000,  40.4480476379)


Analysis of symmetry for initial positions (statically):
=====================================================================
 Subroutine PRICEL returns:
 Original cell was already a primitive cell.
 

 Routine SETGRP: Setting up the symmetry group for a 
 simple orthorhombic supercell.


 Subroutine GETGRP returns: Found  1 space group operations
 (whereof  1 operations were pure point group operations)
 out of a pool of  8 trial point group operations.


The static configuration has the point symmetry C_1 .


Analysis of symmetry for dynamics (positions and initial velocities):
=====================================================================
 Subroutine PRICEL returns:
 Original cell was already a primitive cell.
 

 Routine SETGRP: Setting up the symmetry group for a 
 simple orthorhombic supercell.


 Subroutine GETGRP returns: Found  1 space group operations
 (whereof  1 operations were pure point group operations)
 out of a pool of  8 trial point group operations.


The dynamic configuration has the point symmetry C_1 .


 Subroutine INISYM returns: Found  1 space group operations
 (whereof  1 operations are pure point group operations),
 and found     1 'primitive' translations


----------------------------------------------------------------------------------------

                                     Primitive cell                                     

  volume of cell :   26085.0250

  direct lattice vectors                    reciprocal lattice vectors
    32.372299194  0.000000000  0.000000000     0.030890608  0.000000000  0.000000000
     0.000000000 19.921413422  0.000000000     0.000000000  0.050197241  0.000000000
     0.000000000  0.000000000 40.448047638     0.000000000  0.000000000  0.024723072

  length of vectors
    32.372299194 19.921413422 40.448047638     0.030890608  0.050197241  0.024723072

  position of ions in fractional coordinates (direct lattice)
     0.370951586  0.538334071  0.002458008
     0.368783948  0.543843062  0.062888578
     0.338056134  0.595024317  0.061092092
     0.320489203  0.611442968  0.029940017
     0.277806232  0.628813727  0.028128787
     0.366490615  0.549220363  0.123316609
     0.334697858  0.598666633  0.121524768
     0.316796094  0.614086099  0.090376497
     0.273766562  0.629045993  0.088561601
     0.253549655  0.626893655  0.057409381
     0.212097777  0.602922125  0.055599482
     0.195585252  0.583851659  0.024441488
     0.168028615  0.528105466  0.022627024
     0.364045437  0.554446348  0.183745545
     0.331244660  0.602123395  0.181961498
     0.313038591  0.616526407  0.150808194
     0.269724823  0.629076819  0.148994932
     0.249568445  0.625782794  0.117842529
     0.208649766  0.599487356  0.116037270
     0.192553405  0.579502269  0.084881008
     0.166197745  0.522244868  0.083062751
     0.158940228  0.491514471  0.051905804
     0.154980907  0.420305275  0.050083945
     0.158735367  0.387948337  0.018927723
     0.178361925  0.323955386  0.017114642
     0.361477958  0.559538636  0.244155154
     0.327736252  0.605398909  0.242390660
     0.309236093  0.618803851  0.211243489
     0.265671153  0.628931346  0.209434112
     0.245605487  0.624484108  0.178283683
     0.205269427  0.595880392  0.176478098
     0.189612802  0.574989511  0.145320186
     0.164492208  0.516287213  0.143497983
     0.157892887  0.485164307  0.112341566
     0.155442950  0.413772278  0.110524802
     0.159881683  0.381653488  0.079363019
     0.180846941  0.318797838  0.077543749
     0.195001260  0.295230279  0.046391427
     0.233148976  0.259602777  0.044564690
     0.252816581  0.251613309  0.013416791
     0.296796161  0.253833831  0.011610620
     0.371037813  0.538062486  0.335649242
     0.358962441  0.564617622  0.304566841
     0.324214010  0.608580113  0.302822214
     0.305419763  0.620888767  0.271711745
     0.261631965  0.628515451  0.269896621
     0.241675052  0.622941830  0.238732171
     0.201980424  0.592092710  0.236918537
     0.186775948  0.570326603  0.205758158
     0.162929586  0.510231796  0.203933900
     0.156996274  0.478753129  0.172779775
     0.156067868  0.407264879  0.170968988
     0.161162465  0.375416334  0.139802447
     0.183444108  0.313765448  0.137976613
     0.198087827  0.291017928  0.106822774
     0.236969208  0.257552958  0.104995554
     0.256795165  0.250683299  0.073843200
     0.300697770  0.255375796  0.072033557
     0.319799112  0.266423312  0.040888788
     0.355662017  0.307852970  0.039070728
     0.368361166  0.333533606  0.007927162
     0.385532500  0.399368136  0.006129120
     0.369668228  0.544127793  0.395989176
     0.356640539  0.569611096  0.365110280
     0.320616469  0.611118367  0.363322193
     0.301562884  0.622447916  0.332194426
     0.257666134  0.627604387  0.330365408
     0.237808737  0.621100256  0.299179513
     0.198763071  0.588110368  0.297355813
     0.184029962  0.565529485  0.266199583
     0.161482580  0.504107227  0.264373133
     0.156241929  0.472303198  0.233215548
     0.156852609  0.400811827  0.231408530
     0.162609910  0.369261574  0.200248173
     0.186181185  0.308881029  0.198421444
     0.201276785  0.286968792  0.167256126
     0.240830783  0.255685366  0.165429764
     0.260784636  0.249935026  0.134271893
     0.304561907  0.257079886  0.132454312
     0.323421305  0.269214658  0.101314855
     0.358384899  0.312624981  0.099495691
     0.370533072  0.339019629  0.068353033
     0.386302331  0.405768187  0.066557925
     0.388137016  0.438582825  0.035412549
     0.379991008  0.508851371  0.033603208
     0.368008931  0.549894737  0.456658027
     0.353760808  0.573134754  0.425669834
     0.316798611  0.611941762  0.423787690
     0.297616237  0.623027423  0.392607449
     0.253660207  0.626315306  0.390790276
     0.233950045  0.618985355  0.359628620
     0.195546819  0.583957582  0.357794705
     0.181357946  0.560540655  0.326628630
     0.160149838  0.497899460  0.324803098
     0.155606682  0.465820755  0.293645458
     0.157764515  0.394398022  0.291843355
     0.164211260  0.363193406  0.260689017
     0.189047677  0.304173530  0.258866104
     0.204578763  0.283086878  0.227692346
     0.244756944  0.253972808  0.225870057
     0.264802747  0.249349738  0.194709870
     0.308403295  0.258927144  0.192883233
     0.326978165  0.272167341  0.161735853
     0.360988347  0.317516498  0.159914981
     0.372580808  0.344592817  0.128776764
     0.386916560  0.412196446  0.126979234
     0.388066569  0.445105463  0.095843400
     0.378441754  0.514881372  0.094034584
     0.364136558  0.551783913  0.517345989
     0.350723223  0.576223062  0.485647045
     0.313084503  0.613743279  0.484030441
     0.293675050  0.623570713  0.453004199
     0.249573732  0.625084407  0.451200847
     0.230072320  0.616554322  0.420050408
     0.192425652  0.579587909  0.418220059
     0.178722705  0.555436466  0.387045300
     0.158861648  0.491616611  0.385234938
     0.155058458  0.459302806  0.354080529
     0.158756866  0.388043222  0.352279096
     0.165912955  0.357226824  0.321120114
     0.191983820  0.299638516  0.319302439
     0.207959143  0.279403718  0.288143770
     0.248733570  0.252491350  0.286339341
     0.268860352  0.248982165  0.255157289
     0.312215384  0.260966158  0.253318605
     0.330494825  0.275221384  0.222162038
     0.363509440  0.322497367  0.220333665
     0.374493816  0.350247722  0.189203025
     0.387362223  0.418629303  0.187394011
     0.387815446  0.451601536  0.156262933
     0.376720012  0.520788745  0.154460828
     0.361569692  0.559004171  0.577704757
     0.347358724  0.581518539  0.546488607
     0.309356818  0.617258879  0.544568784
     0.289734222  0.624566369  0.513307147
     0.245826331  0.623469405  0.511562922
     0.226339696  0.614062212  0.480420817
     0.189393064  0.575094308  0.478634089
     0.176179342  0.550215705  0.447493557
     0.157705836  0.485268746  0.445692912
     0.154616942  0.452752115  0.414517506
     0.159826729  0.381772101  0.412710929
     0.167627122  0.351352148  0.381558216
     0.194916424  0.295229056  0.379751039
     0.211399342  0.275966304  0.348600329
     0.252721562  0.251420419  0.346815257
     0.272919228  0.248896484  0.315617629
     0.316007338  0.263278753  0.313775804
     0.333965708  0.278486370  0.282619074
     0.365928700  0.327632479  0.280766908
     0.376279371  0.356005422  0.249616067
     0.387638772  0.425061268  0.247778844
     0.387411397  0.458049022  0.216665080
     0.374859137  0.526597644  0.214877152
     0.358978801  0.564511437  0.638116555
     0.344324024  0.587131468  0.606959002
     0.305542203  0.620592336  0.605040309
     0.285791134  0.627152400  0.573792903
     0.241843787  0.622743072  0.572014270
     0.222728607  0.611581015  0.540891541
     0.186761571  0.570436908  0.539093515
     0.173973483  0.544770583  0.507930826
     0.156853989  0.478915925  0.506138000
     0.154321396  0.446262453  0.474973483
     0.161003143  0.375504287  0.473172053
     0.169448956  0.345584817  0.442012424
     0.197886028  0.291033967  0.440212959
     0.214789005  0.272708079  0.409044377
     0.256651571  0.250777211  0.407258197
     0.276935189  0.249357431  0.376126211
     0.319694039  0.266436608  0.374326906
     0.337325931  0.282320631  0.343076612
     0.368171857  0.333104161  0.341170893
     0.377982910  0.361873559  0.310018977
     0.387818177  0.431588214  0.308123471
     0.386855810  0.464504660  0.277043770
     0.372900358  0.532324858  0.275289610
     0.356258298  0.569401649  0.698517028
     0.341168536  0.591383535  0.667358190
     0.301628637  0.622758503  0.665499724
     0.281699433  0.628477764  0.634336856
     0.237932400  0.621302622  0.632512738
     0.219110931  0.609094577  0.601324418
     0.184138168  0.565707212  0.599530363
     0.171923618  0.539330958  0.568386254
     0.156178115  0.472540545  0.566594682
     0.154332451  0.439713785  0.535440810
     0.162459029  0.369463758  0.533626551
     0.171406799  0.339939253  0.502456323
     0.200983632  0.286931368  0.500659463
     0.218163127  0.269566683  0.469515903
     0.260567233  0.250205947  0.467740219
     0.280885809  0.250601865  0.436591656
     0.323005162  0.270798144  0.434830967
     0.340374620  0.287284715  0.403556149
     0.370066620  0.339846733  0.401651184
     0.379461983  0.368276984  0.370433108
     0.387927069  0.438254749  0.368415599
     0.386216499  0.471074980  0.337316923
     0.353480077  0.574141765  0.758928695
     0.337902664  0.595234428  0.727790724
     0.297705866  0.624324345  0.725963052
     0.277644566  0.628982912  0.694798459
     0.234067038  0.619358264  0.692968363
     0.215504185  0.606204177  0.661793786
     0.181509659  0.560785506  0.659986600
     0.169953136  0.533725571  0.628832325
     0.155631323  0.466131401  0.627034406
     0.154470368  0.433232137  0.595876754
     0.164075454  0.363447282  0.594062353
     0.173664615  0.334459770  0.562912357
     0.204360376  0.283206291  0.561115873
     0.221879638  0.266788067  0.529939262
     0.264590865  0.249703818  0.528115970
     0.284770832  0.250947159  0.496964040
     0.326596447  0.273711051  0.495150082
     0.343318355  0.292448848  0.464109085
     0.372359764  0.346506126  0.462505703
     0.380629930  0.376347461  0.430799179
     0.389256363  0.445074842  0.428388117
     0.386339651  0.477652322  0.397553852
     0.350588660  0.578671419  0.819356039
     0.334560139  0.598859082  0.788211087
     0.293768181  0.625628143  0.786398973
     0.273615808  0.629187396  0.755242230
     0.230246738  0.617125386  0.753415344
     0.211974522  0.602944619  0.722260229
     0.178971766  0.555671371  0.720443028
     0.168008307  0.528002291  0.689270912
     0.155124996  0.459638392  0.687465604
     0.154696891  0.426715123  0.656314157
     0.165791514  0.357519081  0.654497316
     0.176034053  0.329105549  0.623342821
     0.207800994  0.279635674  0.621536860
     0.225654914  0.264167590  0.590371836
     0.268736671  0.249339208  0.588538508
     0.288896787  0.251834778  0.557380673
     0.330258450  0.276234658  0.555562851
     0.346538634  0.296035786  0.524368239
     0.374712631  0.350969914  0.522491500
     0.384032650  0.380027998  0.491495146
     0.396877114  0.451532546  0.490300008
     0.393426587  0.487912345  0.457838622
     0.347603395  0.583037026  0.879785582
     0.331162257  0.602313085  0.848636049
     0.289812577  0.626755974  0.846830810
     0.269593080  0.629149847  0.815683376
     0.226506684  0.614658279  0.813857095
     0.208532267  0.599457418  0.782701280
     0.176536122  0.550391300  0.780886546
     0.166154856  0.522144295  0.749720094
     0.154729565  0.453090930  0.747904787
     0.155018662  0.420177727  0.716749035
     0.167581468  0.351657023  0.714931567
     0.178441859  0.323854990  0.683773375
     0.211259169  0.276198990  0.681966813
     0.229473879  0.261787421  0.650813993
     0.272796226  0.249231936  0.648984809
     0.292948746  0.252624301  0.617804934
     0.333905580  0.278799654  0.615985781
     0.350034447  0.298771733  0.584849998
     0.376829701  0.355816339  0.583057932
     0.384588385  0.386398820  0.552171225
     0.388275167  0.457939169  0.550594344
     0.385032721  0.490405949  0.519751882
     0.344515241  0.587220941  0.940219180
     0.327675315  0.605563027  0.909069024
     0.285830691  0.627670809  0.907264008
     0.265573445  0.628913017  0.876114007
     0.222825472  0.612009288  0.874289775
     0.205179193  0.595811725  0.843135926
     0.174229035  0.544987170  0.841325607
     0.164437437  0.516167036  0.810169260
     0.154486051  0.446521895  0.808345087
     0.155465351  0.413645453  0.777184283
     0.169480803  0.345865152  0.775371622
     0.180930795  0.318703087  0.744214161
     0.214736488  0.272926428  0.742406755
     0.233261435  0.259551124  0.711250839
     0.276812943  0.249382448  0.709426703
     0.296894723  0.253728553  0.678268666
     0.337286431  0.282237659  0.676471383
     0.352983813  0.303042252  0.645357017
     0.378105571  0.361816279  0.643603286
     0.384783116  0.392958968  0.612515654
     0.386950053  0.464261031  0.610838684
     0.382542902  0.496354949  0.579726531
     0.341330986  0.591212497  0.000656921
     0.324118575  0.608609422  0.969503842
     0.281831268  0.628361395  0.967695687
     0.261561390  0.628478343  0.936545196
     0.219193448  0.609184689  0.934724609
     0.201904925  0.591997000  0.903571854
     0.172055202  0.539465958  0.901762942
     0.162879548  0.510109233  0.870607842
     0.154406212  0.439953918  0.868781042
     0.156066729  0.407142569  0.837624774
     0.171514874  0.340192949  0.835815206
     0.183530322  0.313687672  0.804656138
     0.218296345  0.269860166  0.802844386
     0.237077392  0.257521587  0.771690108
     0.280831648  0.249833174  0.769875503
     0.300803069  0.255330577  0.738728159
     0.340515446  0.286147000  0.736937190
     0.355729830  0.307874574  0.705791883
     0.379523163  0.367991686  0.704012254
     0.385457966  0.399450291  0.672873883
     0.386317013  0.470948455  0.671118835
     0.381198355  0.502769849  0.640022748
     0.257554705  0.627801359  0.996978020
     0.215620390  0.606148434  0.995162552
     0.198710292  0.588007569  0.964005861
     0.169990977  0.533839764  0.962195253
     0.161444413  0.503983578  0.931042579
     0.154467795  0.433390924  0.929215938
     0.156830040  0.400692998  0.898061946
     0.173690215  0.334654943  0.896253955
     0.186255163  0.308838295  0.865095445
     0.221934036  0.266991401  0.863278738
     0.240968708  0.255733470  0.832127622
     0.284853673  0.250529364  0.830319412
     0.304690905  0.257174355  0.799164875
     0.343713294  0.290193059  0.797367349
     0.358447014  0.312762665  0.766217833
     0.380993393  0.374174537  0.764416413
     0.386223198  0.405961533  0.733283886
     0.385618499  0.477471472  0.731500404
     0.379793038  0.509014501  0.700373167
     0.160132751  0.497783062  0.991474096
     0.154660748  0.426840320  0.989648634
     0.157721556  0.394288760  0.958494273
     0.175973343  0.329233517  0.956685318
     0.189083018  0.304132053  0.925531427
     0.225630453  0.264313298  0.923709740
     0.244897134  0.254140987  0.892558429
     0.288863659  0.251418990  0.890752614
     0.308547660  0.259178686  0.859598144
     0.346855383  0.294366948  0.857792762
     0.361095060  0.317772342  0.826647095
     0.382339760  0.380394654  0.824840054
     0.386894939  0.412473541  0.793694690
     0.384784887  0.483889408  0.791900491
     0.378320020  0.515114779  0.760762057
     0.192005392  0.299603841  0.985963377
     0.229373496  0.261857952  0.984138131
     0.248847545  0.252759829  0.952987418
     0.292850020  0.252510826  0.951183832
     0.312358941  0.261393207  0.920032895
     0.349892668  0.298712100  0.918221232
     0.363633236  0.322905173  0.887072563
     0.383537186  0.386670334  0.885266437
     0.387426087  0.418986253  0.854116157
     0.383796375  0.490249928  0.852317238
     0.376675556  0.521085229  0.821176819
     0.316119665  0.263794814  0.980462780
     0.352837157  0.303199187  0.978646671
     0.366058824  0.328155088  0.947498961
     0.384609574  0.392993646  0.945696950
     0.387809116  0.425515644  0.914547354
     0.382673279  0.496533453  0.912744222
     0.374898469  0.526957661  0.881599010
     0.388048332  0.432051157  0.974979244
     0.381402072  0.502732357  0.973172194
     0.372994662  0.532708079  0.942026304
     0.447771390  0.482825710  0.474053179

  ion indices of the primitive-cell ions
   primitive index   ion index
                 1           1
                 2           2
                 3           3
                 4           4
                 5           5
                 6           6
                 7           7
                 8           8
                 9           9
                10          10
                11          11
                12          12
                13          13
                14          14
                15          15
                16          16
                17          17
                18          18
                19          19
                20          20
                21          21
                22          22
                23          23
                24          24
                25          25
                26          26
                27          27
                28          28
                29          29
                30          30
                31          31
                32          32
                33          33
                34          34
                35          35
                36          36
                37          37
                38          38
                39          39
                40          40
                41          41
                42          42
                43          43
                44          44
                45          45
                46          46
                47          47
                48          48
                49          49
                50          50
                51          51
                52          52
                53          53
                54          54
                55          55
                56          56
                57          57
                58          58
                59          59
                60          60
                61          61
                62          62
                63          63
                64          64
                65          65
                66          66
                67          67
                68          68
                69          69
                70          70
                71          71
                72          72
                73          73
                74          74
                75          75
                76          76
                77          77
                78          78
                79          79
                80          80
                81          81
                82          82
                83          83
                84          84
                85          85
                86          86
                87          87
                88          88
                89          89
                90          90
                91          91
                92          92
                93          93
                94          94
                95          95
                96          96
                97          97
                98          98
                99          99
               100         100
               101         101
               102         102
               103         103
               104         104
               105         105
               106         106
               107         107
               108         108
               109         109
               110         110
               111         111
               112         112
               113         113
               114         114
               115         115
               116         116
               117         117
               118         118
               119         119
               120         120
               121         121
               122         122
               123         123
               124         124
               125         125
               126         126
               127         127
               128         128
               129         129
               130         130
               131         131
               132         132
               133         133
               134         134
               135         135
               136         136
               137         137
               138         138
               139         139
               140         140
               141         141
               142         142
               143         143
               144         144
               145         145
               146         146
               147         147
               148         148
               149         149
               150         150
               151         151
               152         152
               153         153
               154         154
               155         155
               156         156
               157         157
               158         158
               159         159
               160         160
               161         161
               162         162
               163         163
               164         164
               165         165
               166         166
               167         167
               168         168
               169         169
               170         170
               171         171
               172         172
               173         173
               174         174
               175         175
               176         176
               177         177
               178         178
               179         179
               180         180
               181         181
               182         182
               183         183
               184         184
               185         185
               186         186
               187         187
               188         188
               189         189
               190         190
               191         191
               192         192
               193         193
               194         194
               195         195
               196         196
               197         197
               198         198
               199         199
               200         200
               201         201
               202         202
               203         203
               204         204
               205         205
               206         206
               207         207
               208         208
               209         209
               210         210
               211         211
               212         212
               213         213
               214         214
               215         215
               216         216
               217         217
               218         218
               219         219
               220         220
               221         221
               222         222
               223         223
               224         224
               225         225
               226         226
               227         227
               228         228
               229         229
               230         230
               231         231
               232         232
               233         233
               234         234
               235         235
               236         236
               237         237
               238         238
               239         239
               240         240
               241         241
               242         242
               243         243
               244         244
               245         245
               246         246
               247         247
               248         248
               249         249
               250         250
               251         251
               252         252
               253         253
               254         254
               255         255
               256         256
               257         257
               258         258
               259         259
               260         260
               261         261
               262         262
               263         263
               264         264
               265         265
               266         266
               267         267
               268         268
               269         269
               270         270
               271         271
               272         272
               273         273
               274         274
               275         275
               276         276
               277         277
               278         278
               279         279
               280         280
               281         281
               282         282
               283         283
               284         284
               285         285
               286         286
               287         287
               288         288
               289         289
               290         290
               291         291
               292         292
               293         293
               294         294
               295         295
               296         296
               297         297
               298         298
               299         299
               300         300
               301         301
               302         302
               303         303
               304         304
               305         305
               306         306
               307         307
               308         308
               309         309
               310         310
               311         311
               312         312
               313         313
               314         314
               315         315
               316         316
               317         317
               318         318
               319         319
               320         320
               321         321
               322         322
               323         323
               324         324
               325         325
               326         326
               327         327
               328         328
               329         329
               330         330
               331         331
               332         332
               333         333
               334         334
               335         335
               336         336
               337         337
               338         338
               339         339
               340         340
               341         341
               342         342
               343         343
               344         344
               345         345
               346         346
               347         347
               348         348
               349         349
               350         350
               351         351
               352         352
               353         353
               354         354
               355         355
               356         356
               357         357
               358         358
               359         359
               360         360
               361         361
               362         362
               363         363
               364         364
               365         365

----------------------------------------------------------------------------------------

 
 
 KPOINTS: KPOINTS created by Atomic Simulation Env

Automatic generation of k-mesh.
 Grid dimensions read from file:
 generate k-points for:    1    1    2

 Generating k-lattice:

  Cartesian coordinates                     Fractional coordinates (reciprocal lattice)
     0.030890608  0.000000000  0.000000000     1.000000000  0.000000000  0.000000000
     0.000000000  0.050197241  0.000000000     0.000000000  1.000000000  0.000000000
     0.000000000  0.000000000  0.012361536     0.000000000  0.000000000  0.500000000

  Length of vectors
     0.030890608  0.050197241  0.012361536

  Shift w.r.t. Gamma in fractional coordinates (k-lattice)
     0.000000000  0.000000000  0.000000000

 
 Subroutine IBZKPT returns following result:
 ===========================================
 
 Found      2 irreducible k-points:
 
 Following reciprocal coordinates:
            Coordinates               Weight
  0.000000  0.000000  0.000000      1.000000
  0.000000  0.000000  0.500000      1.000000
 
 Following cartesian coordinates:
            Coordinates               Weight
  0.000000  0.000000  0.000000      1.000000
  0.000000  0.000000  0.012362      1.000000
 


--------------------------------------------------------------------------------------------------------




 Dimension of arrays:
   k-points           NKPTS =      2   k-points in BZ     NKDIM =      2   number of bands    NBANDS=    896
   number of dos      NEDOS =    301   number of ions     NIONS =    365
   non local maximal  LDIM  =      4   non local SUM 2l+1 LMDIM =      8
   total plane-waves  NPLWV = ******
   max r-space proj   IRMAX =      1   max aug-charges    IRDMAX=  10060
   dimension x,y,z NGX =   216 NGY =  140 NGZ =  270
   dimension x,y,z NGXF=   432 NGYF=  280 NGZF=  540
   support grid    NGXF=   432 NGYF=  280 NGZF=  540
   ions per type =             364   1
   NGX,Y,Z   is equivalent  to a cutoff of  11.09, 11.68, 11.10 a.u.
   NGXF,Y,Z  is equivalent  to a cutoff of  22.19, 23.37, 22.19 a.u.

 SYSTEM =  02_SCF                                  
 POSCAR =   C  S                                   

 Startparameter for this run:
   NWRITE =      2    write-flag & timer
   PREC   = accura    normal or accurate (medium, high low for compatibility)
   ISTART =      0    job   : 0-new  1-cont  2-samecut
   ICHARG =      2    charge: 1-file 2-atom 10-const
   ISPIN  =      1    spin polarized calculation?
   LNONCOLLINEAR =      F non collinear calculations
   LSORBIT =      F    spin-orbit coupling
   INIWAV =      1    electr: 0-lowe 1-rand  2-diag
   LASPH  =      F    aspherical Exc in radial PAW
 Electronic Relaxation 1
   ENCUT  =  400.0 eV  29.40 Ry    5.42 a.u.  52.79 32.49 65.96*2*pi/ulx,y,z
   ENINI  =  400.0     initial cutoff
   ENAUG  =  644.9 eV  augmentation charge cutoff
   NELM   =     60;   NELMIN=  5; NELMDL=  0     # of ELM steps 
   EDIFF  = 0.1E-05   stopping-criterion for ELM
   LREAL  =      F    real-space projection
   NLSPLINE    = F    spline interpolate recip. space projectors
   LCOMPAT=      F    compatible to vasp.4.4
   GGA_COMPAT  = T    GGA compatible to vasp.4.4-vasp.4.6
   LMAXPAW     = -100 max onsite density
   LMAXMIX     =    2 max onsite mixed and CHGCAR
   VOSKOWN=      0    Vosko Wilk Nusair interpolation
   ROPT   =    0.00000   0.00000
 Ionic relaxation
   EDIFFG = 0.1E-04   stopping-criterion for IOM
   NSW    =      0    number of steps for IOM
   NBLOCK =      1;   KBLOCK =      1    inner block; outer block 
   IBRION =     -1    ionic relax: 0-MD 1-quasi-New 2-CG
   NFREE  =      0    steps in history (QN), initial steepest desc. (CG)
   ISIF   =      2    stress and relaxation
   IWAVPR =     10    prediction:  0-non 1-charg 2-wave 3-comb
   ISYM   =      2    0-nonsym 1-usesym 2-fastsym
   LCORR  =      T    Harris-Foulkes like correction to forces

   POTIM  = 0.5000    time-step for ionic-motion
   TEIN   =    0.0    initial temperature
   TEBEG  =    0.0;   TEEND  =   0.0 temperature during run
   SMASS  =  -3.00    Nose mass-parameter (am)
   estimated Nose-frequenzy (Omega)   =  0.10E-29 period in steps = 0.13E+47 mass=  -0.239E-25a.u.
   SCALEE = 1.0000    scale energy and forces
   NPACO  =    256;   APACO  = 10.0  distance and # of slots for P.C.
   PSTRESS=    0.0 pullay stress

  Mass of Ions in am
   POMASS =  12.01 32.07
  Ionic Valenz
   ZVAL   =   4.00  6.00
  Atomic Wigner-Seitz radii
   RWIGS  =  -1.00 -1.00
  virtual crystal weights 
   VCA    =   1.00  1.00
   NELECT =    1462.0000    total number of electrons
   NUPDOWN=      -1.0000    fix difference up-down

 DOS related values:
   EMIN   =  10.00;   EMAX   =-10.00  energy-range for DOS
   EFERMI =   0.00;   METHOD = LEGACY      
   ISMEAR =     0;   SIGMA  =   0.01  broadening in eV -4-tet -1-fermi 0-gaus

 Electronic relaxation 2 (details)
   IALGO  =     38    algorithm
   LDIAG  =      T    sub-space diagonalisation (order eigenvalues)
   LSUBROT=      F    optimize rotation matrix (better conditioning)
   TURBO    =      0    0=normal 1=particle mesh
   IRESTART =      0    0=no restart 2=restart with 2 vectors
   NREBOOT  =      0    no. of reboots
   NMIN     =      0    reboot dimension
   EREF     =   0.00    reference energy to select bands
   IMIX   =      4    mixing-type and parameters
     AMIX     =   0.40;   BMIX     =  1.00
     AMIX_MAG =   1.60;   BMIX_MAG =  1.00
     AMIN     =   0.10
     WC   =   100.;   INIMIX=   1;  MIXPRE=   1;  MAXMIX= -45

 Intra band minimization:
   WEIMIN = 0.0000     energy-eigenvalue tresh-hold
   EBREAK =  0.28E-09  absolut break condition
   DEPER  =   0.30     relativ break condition  

   TIME   =   0.40     timestep for ELM

  volume/ion in A,a.u.               =      71.47       482.28
  Fermi-wavevector in a.u.,A,eV,Ry     =   0.626508  1.183929  5.340460  0.392513
  Thomas-Fermi vector in A             =   1.687786
 
 Write flags
   LWAVE        =      T    write WAVECAR
   LDOWNSAMPLE  =      F    k-point downsampling of WAVECAR
   LCHARG       =      T    write CHGCAR
   LVTOT        =      F    write LOCPOT, total local potential
   LVHAR        =      F    write LOCPOT, Hartree potential only
   LELF         =      F    write electronic localiz. function (ELF)
   LORBIT       =     11    0 simple, 1 ext, 2 COOP (PROOUT), +10 PAW based schemes


 Dipole corrections
   LMONO  =      F    monopole corrections only (constant potential shift)
   LDIPOL =      F    correct potential (dipole corrections)
   IDIPOL =      0    1-x, 2-y, 3-z, 4-all directions 
   EPSILON=  1.0000000 bulk dielectric constant

 Exchange correlation treatment:
   GGA     =    PE    GGA type
   LEXCH   =     8    internal setting for exchange type
   LIBXC   =     F    Libxc                    
   VOSKOWN =     0    Vosko Wilk Nusair interpolation
   LHFCALC =     F    Hartree Fock is set to
   LHFONE  =     F    Hartree Fock one center treatment
   AEXX    =    0.0000 exact exchange contribution

 Linear response parameters
   LEPSILON=     F    determine dielectric tensor
   LRPA    =     F    only Hartree local field effects (RPA)
   LNABLA  =     F    use nabla operator in PAW spheres
   LVEL    =     F    velocity operator in full k-point grid
   CSHIFT  =0.1000    complex shift for real part using Kramers Kronig
   OMEGAMAX=  -1.0    maximum frequency
   DEG_THRESHOLD= 0.2000000E-02 threshold for treating states as degnerate
   RTIME   =   -0.100 relaxation time in fs
  (WPLASMAI=    0.000 imaginary part of plasma frequency in eV, 0.658/RTIME)
   DFIELD  = 0.0000000 0.0000000 0.0000000 field for delta impulse in time
 
  Optional k-point grid parameters
   LKPOINTS_OPT  =     F    use optional k-point grid
   KPOINTS_OPT_MODE=     1    mode for optional k-point grid
 
 Orbital magnetization related:
   ORBITALMAG=     F  switch on orbital magnetization
   LCHIMAG   =     F  perturbation theory with respect to B field
   DQ        =  0.001000  dq finite difference perturbation B field
   LLRAUG    =     F  two centre corrections for induced B field
   LBONE     =     F  B-component reconstruction in AE one-centre
   LVGVCALC  =     T  calculate vGv susceptibility
   LVGVAPPL  =     F  apply vGv susceptibility instead of pGv for G=0

 Random number generation:
   RANDOM_GENERATOR = DEFAULT
   PCG_SEED         = not used


--------------------------------------------------------------------------------------------------------


 Static calculation
 charge density and potential will be updated during run
 non-spin polarized calculation
 Variant of blocked Davidson
 Davidson routine will perform the subspace rotation
 perform sub-space diagonalisation
    after iterative eigenvector-optimisation
 modified Broyden-mixing scheme, WC =      100.0
 initial mixing is a Kerker type mixing with AMIX =  0.4000 and BMIX =      1.0000
 Hartree-type preconditioning will be used
 using additional bands           165
 reciprocal scheme for non local part
 use partial core corrections
 calculate Harris-corrections to forces 
   (improved forces if not selfconsistent)
 use gradient corrections 
 use of overlap-Matrix (Vanderbilt PP)
 Gauss-broadening in eV      SIGMA  =   0.01


--------------------------------------------------------------------------------------------------------


  energy-cutoff  :      400.00
  volume of cell :    26085.03
      direct lattice vectors                 reciprocal lattice vectors
    32.372299194  0.000000000  0.000000000     0.030890608  0.000000000  0.000000000
     0.000000000 19.921413422  0.000000000     0.000000000  0.050197241  0.000000000
     0.000000000  0.000000000 40.448047638     0.000000000  0.000000000  0.024723072

  length of vectors
    32.372299194 19.921413422 40.448047638     0.030890608  0.050197241  0.024723072


 
 k-points in units of 2pi/SCALE and weight: KPOINTS created by Atomic Simulation Env
   0.00000000  0.00000000  0.00000000       0.500
   0.00000000  0.00000000  0.01236154       0.500
 
 k-points in reciprocal lattice and weights: KPOINTS created by Atomic Simulation Env
   0.00000000  0.00000000  0.00000000       0.500
   0.00000000  0.00000000  0.50000000       0.500
 
 position of ions in fractional coordinates (direct lattice) 
   0.37095159  0.53833407  0.00245801
   0.36878395  0.54384306  0.06288858
   0.33805613  0.59502432  0.06109209
   0.32048920  0.61144297  0.02994002
   0.27780623  0.62881373  0.02812879
   0.36649062  0.54922036  0.12331661
   0.33469786  0.59866663  0.12152477
   0.31679609  0.61408610  0.09037650
   0.27376656  0.62904599  0.08856160
   0.25354966  0.62689365  0.05740938
   0.21209778  0.60292212  0.05559948
   0.19558525  0.58385166  0.02444149
   0.16802862  0.52810547  0.02262702
   0.36404544  0.55444635  0.18374554
   0.33124466  0.60212339  0.18196150
   0.31303859  0.61652641  0.15080819
   0.26972482  0.62907682  0.14899493
   0.24956844  0.62578279  0.11784253
   0.20864977  0.59948736  0.11603727
   0.19255340  0.57950227  0.08488101
   0.16619774  0.52224487  0.08306275
   0.15894023  0.49151447  0.05190580
   0.15498091  0.42030527  0.05008395
   0.15873537  0.38794834  0.01892772
   0.17836193  0.32395539  0.01711464
   0.36147796  0.55953864  0.24415515
   0.32773625  0.60539891  0.24239066
   0.30923609  0.61880385  0.21124349
   0.26567115  0.62893135  0.20943411
   0.24560549  0.62448411  0.17828368
   0.20526943  0.59588039  0.17647810
   0.18961280  0.57498951  0.14532019
   0.16449221  0.51628721  0.14349798
   0.15789289  0.48516431  0.11234157
   0.15544295  0.41377228  0.11052480
   0.15988168  0.38165349  0.07936302
   0.18084694  0.31879784  0.07754375
   0.19500126  0.29523028  0.04639143
   0.23314898  0.25960278  0.04456469
   0.25281658  0.25161331  0.01341679
   0.29679616  0.25383383  0.01161062
   0.37103781  0.53806249  0.33564924
   0.35896244  0.56461762  0.30456684
   0.32421401  0.60858011  0.30282221
   0.30541976  0.62088877  0.27171175
   0.26163196  0.62851545  0.26989662
   0.24167505  0.62294183  0.23873217
   0.20198042  0.59209271  0.23691854
   0.18677595  0.57032660  0.20575816
   0.16292959  0.51023180  0.20393390
   0.15699627  0.47875313  0.17277977
   0.15606787  0.40726488  0.17096899
   0.16116247  0.37541633  0.13980245
   0.18344411  0.31376545  0.13797661
   0.19808783  0.29101793  0.10682277
   0.23696921  0.25755296  0.10499555
   0.25679516  0.25068330  0.07384320
   0.30069777  0.25537580  0.07203356
   0.31979911  0.26642331  0.04088879
   0.35566202  0.30785297  0.03907073
   0.36836117  0.33353361  0.00792716
   0.38553250  0.39936814  0.00612912
   0.36966823  0.54412779  0.39598918
   0.35664054  0.56961110  0.36511028
   0.32061647  0.61111837  0.36332219
   0.30156288  0.62244792  0.33219443
   0.25766613  0.62760439  0.33036541
   0.23780874  0.62110026  0.29917951
   0.19876307  0.58811037  0.29735581
   0.18402996  0.56552948  0.26619958
   0.16148258  0.50410723  0.26437313
   0.15624193  0.47230320  0.23321555
   0.15685261  0.40081183  0.23140853
   0.16260991  0.36926157  0.20024817
   0.18618119  0.30888103  0.19842144
   0.20127678  0.28696879  0.16725613
   0.24083078  0.25568537  0.16542976
   0.26078464  0.24993503  0.13427189
   0.30456191  0.25707989  0.13245431
   0.32342131  0.26921466  0.10131486
   0.35838490  0.31262498  0.09949569
   0.37053307  0.33901963  0.06835303
   0.38630233  0.40576819  0.06655792
   0.38813702  0.43858282  0.03541255
   0.37999101  0.50885137  0.03360321
   0.36800893  0.54989474  0.45665803
   0.35376081  0.57313475  0.42566983
   0.31679861  0.61194176  0.42378769
   0.29761624  0.62302742  0.39260745
   0.25366021  0.62631531  0.39079028
   0.23395005  0.61898535  0.35962862
   0.19554682  0.58395758  0.35779470
   0.18135795  0.56054066  0.32662863
   0.16014984  0.49789946  0.32480310
   0.15560668  0.46582075  0.29364546
   0.15776451  0.39439802  0.29184336
   0.16421126  0.36319341  0.26068902
   0.18904768  0.30417353  0.25886610
   0.20457876  0.28308688  0.22769235
   0.24475694  0.25397281  0.22587006
   0.26480275  0.24934974  0.19470987
   0.30840329  0.25892714  0.19288323
   0.32697817  0.27216734  0.16173585
   0.36098835  0.31751650  0.15991498
   0.37258081  0.34459282  0.12877676
   0.38691656  0.41219645  0.12697923
   0.38806657  0.44510546  0.09584340
   0.37844175  0.51488137  0.09403458
   0.36413656  0.55178391  0.51734599
   0.35072322  0.57622306  0.48564704
   0.31308450  0.61374328  0.48403044
   0.29367505  0.62357071  0.45300420
   0.24957373  0.62508441  0.45120085
   0.23007232  0.61655432  0.42005041
   0.19242565  0.57958791  0.41822006
   0.17872271  0.55543647  0.38704530
   0.15886165  0.49161661  0.38523494
   0.15505846  0.45930281  0.35408053
   0.15875687  0.38804322  0.35227910
   0.16591295  0.35722682  0.32112011
   0.19198382  0.29963852  0.31930244
   0.20795914  0.27940372  0.28814377
   0.24873357  0.25249135  0.28633934
   0.26886035  0.24898217  0.25515729
   0.31221538  0.26096616  0.25331860
   0.33049482  0.27522138  0.22216204
   0.36350944  0.32249737  0.22033367
   0.37449382  0.35024772  0.18920303
   0.38736222  0.41862930  0.18739401
   0.38781545  0.45160154  0.15626293
   0.37672001  0.52078875  0.15446083
   0.36156969  0.55900417  0.57770476
   0.34735872  0.58151854  0.54648861
   0.30935682  0.61725888  0.54456878
   0.28973422  0.62456637  0.51330715
   0.24582633  0.62346941  0.51156292
   0.22633970  0.61406221  0.48042082
   0.18939306  0.57509431  0.47863409
   0.17617934  0.55021571  0.44749356
   0.15770584  0.48526875  0.44569291
   0.15461694  0.45275212  0.41451751
   0.15982673  0.38177210  0.41271093
   0.16762712  0.35135215  0.38155822
   0.19491642  0.29522906  0.37975104
   0.21139934  0.27596630  0.34860033
   0.25272156  0.25142042  0.34681526
   0.27291923  0.24889648  0.31561763
   0.31600734  0.26327875  0.31377580
   0.33396571  0.27848637  0.28261907
   0.36592870  0.32763248  0.28076691
   0.37627937  0.35600542  0.24961607
   0.38763877  0.42506127  0.24777884
   0.38741140  0.45804902  0.21666508
   0.37485914  0.52659764  0.21487715
   0.35897880  0.56451144  0.63811656
   0.34432402  0.58713147  0.60695900
   0.30554220  0.62059234  0.60504031
   0.28579113  0.62715240  0.57379290
   0.24184379  0.62274307  0.57201427
   0.22272861  0.61158101  0.54089154
   0.18676157  0.57043691  0.53909352
   0.17397348  0.54477058  0.50793083
   0.15685399  0.47891592  0.50613800
   0.15432140  0.44626245  0.47497348
   0.16100314  0.37550429  0.47317205
   0.16944896  0.34558482  0.44201242
   0.19788603  0.29103397  0.44021296
   0.21478901  0.27270808  0.40904438
   0.25665157  0.25077721  0.40725820
   0.27693519  0.24935743  0.37612621
   0.31969404  0.26643661  0.37432691
   0.33732593  0.28232063  0.34307661
   0.36817186  0.33310416  0.34117089
   0.37798291  0.36187356  0.31001898
   0.38781818  0.43158821  0.30812347
   0.38685581  0.46450466  0.27704377
   0.37290036  0.53232486  0.27528961
   0.35625830  0.56940165  0.69851703
   0.34116854  0.59138353  0.66735819
   0.30162864  0.62275850  0.66549972
   0.28169943  0.62847776  0.63433686
   0.23793240  0.62130262  0.63251274
   0.21911093  0.60909458  0.60132442
   0.18413817  0.56570721  0.59953036
   0.17192362  0.53933096  0.56838625
   0.15617811  0.47254054  0.56659468
   0.15433245  0.43971379  0.53544081
   0.16245903  0.36946376  0.53362655
   0.17140680  0.33993925  0.50245632
   0.20098363  0.28693137  0.50065946
   0.21816313  0.26956668  0.46951590
   0.26056723  0.25020595  0.46774022
   0.28088581  0.25060187  0.43659166
   0.32300516  0.27079814  0.43483097
   0.34037462  0.28728472  0.40355615
   0.37006662  0.33984673  0.40165118
   0.37946198  0.36827698  0.37043311
   0.38792707  0.43825475  0.36841560
   0.38621650  0.47107498  0.33731692
   0.35348008  0.57414177  0.75892870
   0.33790266  0.59523443  0.72779072
   0.29770587  0.62432435  0.72596305
   0.27764457  0.62898291  0.69479846
   0.23406704  0.61935826  0.69296836
   0.21550419  0.60620418  0.66179379
   0.18150966  0.56078551  0.65998660
   0.16995314  0.53372557  0.62883233
   0.15563132  0.46613140  0.62703441
   0.15447037  0.43323214  0.59587675
   0.16407545  0.36344728  0.59406235
   0.17366461  0.33445977  0.56291236
   0.20436038  0.28320629  0.56111587
   0.22187964  0.26678807  0.52993926
   0.26459087  0.24970382  0.52811597
   0.28477083  0.25094716  0.49696404
   0.32659645  0.27371105  0.49515008
   0.34331835  0.29244885  0.46410908
   0.37235976  0.34650613  0.46250570
   0.38062993  0.37634746  0.43079918
   0.38925636  0.44507484  0.42838812
   0.38633965  0.47765232  0.39755385
   0.35058866  0.57867142  0.81935604
   0.33456014  0.59885908  0.78821109
   0.29376818  0.62562814  0.78639897
   0.27361581  0.62918740  0.75524223
   0.23024674  0.61712539  0.75341534
   0.21197452  0.60294462  0.72226023
   0.17897177  0.55567137  0.72044303
   0.16800831  0.52800229  0.68927091
   0.15512500  0.45963839  0.68746560
   0.15469689  0.42671512  0.65631416
   0.16579151  0.35751908  0.65449732
   0.17603405  0.32910555  0.62334282
   0.20780099  0.27963567  0.62153686
   0.22565491  0.26416759  0.59037184
   0.26873667  0.24933921  0.58853851
   0.28889679  0.25183478  0.55738067
   0.33025845  0.27623466  0.55556285
   0.34653863  0.29603579  0.52436824
   0.37471263  0.35096991  0.52249150
   0.38403265  0.38002800  0.49149515
   0.39687711  0.45153255  0.49030001
   0.39342659  0.48791234  0.45783862
   0.34760340  0.58303703  0.87978558
   0.33116226  0.60231308  0.84863605
   0.28981258  0.62675597  0.84683081
   0.26959308  0.62914985  0.81568338
   0.22650668  0.61465828  0.81385710
   0.20853227  0.59945742  0.78270128
   0.17653612  0.55039130  0.78088655
   0.16615486  0.52214429  0.74972009
   0.15472956  0.45309093  0.74790479
   0.15501866  0.42017773  0.71674903
   0.16758147  0.35165702  0.71493157
   0.17844186  0.32385499  0.68377337
   0.21125917  0.27619899  0.68196681
   0.22947388  0.26178742  0.65081399
   0.27279623  0.24923194  0.64898481
   0.29294875  0.25262430  0.61780493
   0.33390558  0.27879965  0.61598578
   0.35003445  0.29877173  0.58485000
   0.37682970  0.35581634  0.58305793
   0.38458839  0.38639882  0.55217123
   0.38827517  0.45793917  0.55059434
   0.38503272  0.49040595  0.51975188
   0.34451524  0.58722094  0.94021918
   0.32767532  0.60556303  0.90906902
   0.28583069  0.62767081  0.90726401
   0.26557345  0.62891302  0.87611401
   0.22282547  0.61200929  0.87428977
   0.20517919  0.59581173  0.84313593
   0.17422903  0.54498717  0.84132561
   0.16443744  0.51616704  0.81016926
   0.15448605  0.44652189  0.80834509
   0.15546535  0.41364545  0.77718428
   0.16948080  0.34586515  0.77537162
   0.18093080  0.31870309  0.74421416
   0.21473649  0.27292643  0.74240676
   0.23326144  0.25955112  0.71125084
   0.27681294  0.24938245  0.70942670
   0.29689472  0.25372855  0.67826867
   0.33728643  0.28223766  0.67647138
   0.35298381  0.30304225  0.64535702
   0.37810557  0.36181628  0.64360329
   0.38478312  0.39295897  0.61251565
   0.38695005  0.46426103  0.61083868
   0.38254290  0.49635495  0.57972653
[...]
  253        strkin                                0.018722                            1   3
  254          m_sumb_d                              0.001176                          1   4
  255        strelo                                0.016024                            1   3
  256          m_sumb_d                              0.000791                          2   4
  257        strenl                               90.793879                            1   3
  258          spher                                 0.817421                         19   4
  259          phase                                 0.000004                          9   4
  260          proj1                                88.071960                        252   4
  261            crexp_mul_wave                       17.728537                    91980   5
  262            m_sumb_d                             32.877980                      252   5
  263          m_sumb_d                              1.901572                          1   4
  264        m_sumb_d                              0.000510                            6   3
  265        fft3d_mpi                             0.141786                           11   3
  266          fftbrc_mpi                            0.136807                         11   4
  267            fftbas_plan_mpi                       0.136796                       11   5
  268              dfftw_execute                         0.037284                     33   6
  269              map_forward                           0.049247                     10   6
  270                map_gather                            0.005442                    5   7
  271                m_alltoallv_z                         0.036556                    5   7
  272                map_scatter                           0.007186                    5   7
  273              map_backward                          0.050035                     12   6
  274                map_gather                            0.008944                    6   7
  275                m_alltoallv_z                         0.036007                    6   7
  276                map_scatter                           0.004984                    6   7
  277        ggaall_grid                           0.096770                            1   3
  278        forhar                                0.285288                            2   3
  279          m_sumb_d                              0.005368                          2   4
  280        strehar                               0.010575                            1   3
  281          m_sumb_d                              0.001077                          1   4
  282        chggra                                0.053780                            1   3
  283          fft3d_mpi                             0.036702                          3   4
  284            fftbrc_mpi                            0.036154                        3   5
  285              fftbas_plan_mpi                       0.036152                      3   6
  286                dfftw_execute                         0.009989                    9   7
  287                map_backward                          0.007672                    2   7
  288                  map_gather                            0.001072                  1   8
  289                  m_alltoallv_z                         0.005776                  1   8
  290                  map_scatter                           0.000805                  1   8
  291                map_forward                           0.018429                    4   7
  292                  map_gather                            0.001600                  2   8
  293                  m_alltoallv_z                         0.014210                  2   8
  294                  map_scatter                           0.002598                  2   8
  295          m_sumb_d                              0.000027                          2   4
  296          pothar                                0.003996                          1   4
  297            m_sumb_d                              0.001467                        1   5
  298        brmix                                 0.016769                            1   3
  299          m_sumb_d                              0.007941                          6   4
  300          brpre                                 0.000054                          1   4
  301          setg0                                 0.002013                          1   4
  302          broyd                                 0.003671                          1   4
  303            m_sumb_d                              0.000507                       31   5
  304            brget                                 0.000769                      129   5
  305            brsav                                 0.000163                       29   5
  306          m_bcast_z                             0.000776                          1   4
  307          m_bcast_d                             0.000081                          1   4
  308        m_bcast_d                             0.005819                            2   3
  309      potlok                                0.319805                              1   2
  310        fft3d_mpi                             0.158202                           13   3
  311          fftbrc_mpi                            0.153997                         13   4
  312            fftbas_plan_mpi                       0.153984                       13   5
  313              dfftw_execute                         0.049005                     39   6
  314              map_forward                           0.047426                     14   6
  315                map_gather                            0.004755                    8   7
  316                m_alltoallv_z                         0.032813                    8   7
  317                map_scatter                           0.009761                    8   7
  318              map_backward                          0.057280                     12   6
  319                map_gather                            0.010240                    6   7
  320                m_alltoallv_z                         0.041209                    6   7
  321                map_scatter                           0.005747                    6   7
  322        ggaall_grid                           0.097655                            1   3
  323        m_sumb_d                              0.005253                            5   3
  324        pothar                                0.003735                            1   3
  325          m_sumb_d                              0.000200                          1   4
  326        m_bcast_d                             0.013718                            1   3
  327      potlok_metagga                        0.000000                              1   2
  328      set_dd_magatom                        0.000000                              1   2
  329      set_dd_paw                            0.001110                              1   2
  330        set_rsgf_all                          0.000000                            1   3
  331        m_sumb_d                              0.000524                            8   3
  332      m_alltoall_d                         48.220648                          19858   2
  333      densta                                0.026856                              1   2
  334        m_sumb_d                              0.002115                           11   3
  335        m_alltoall_d                          0.019032                          132   3
 
 Flat profile
 ============
 
             routine name                   CPU           calls
 ---------------------------------------------------------------
 gemm                                  469.433266      905200
 proj1                                 395.407161        1948
 work_mul_crexp                        352.701849      905200
 m_alltoallv_z                         261.422799        5991
 crexp_mul_wave                        222.443681      711020
 dfftw_execute                         136.139273       17820
 m_alltoall_d                          123.635094       58758
 m_sumb_d                               92.889941       14371
 total_time                             74.723008           1
 orth1                                  55.605546        7468
 ggemm                                  46.471842        3292
 fornl                                  42.815402           1
 vhamil                                 30.405424        2480
 eddav                                  24.002893          29
 lincom                                 18.012602          30
 fftwav_mpi                             15.300575        3055
 map_scatter                            11.966490        5991
 map_gather                             11.492278        5991
 wfinit                                 11.095324           1
 m_bcast_z                              10.655411        4385
 fftext_mpi                              9.084773        2480
 map_forward                             7.017542        6494
 lapack                                  4.632283        2480
 eccp                                    4.234202         812
 pdssyex_zheevx                          3.999839          29
 pw_charge                               3.381605         575
 vnlac0                                  2.670437        2480
 force_and_stress                        2.564579           1
 redis_pw                                2.279631        6688
 ggaall_grid                             2.028399          27
 w1_copy                                 1.538089        7440
 potlok                                  1.175056          26
 spher                                   0.868196          20
 hamiltmu                                0.854687        2480
 apply_precond                           0.791455        1668
 sphpro_fast                             0.788833           2
 phase                                   0.679552          41
 kinhamil                                0.544444        2480
 setup_precond                           0.500106         812
 soft_charge                             0.467288          25
 m_bcast_d                               0.452917        5016
 elmin                                   0.306344           1
 stufak                                  0.283954           1
 forhar                                  0.279920           2
 forloc                                  0.273117           1
 fftbas_plan_mpi                         0.214735        5940
 fft3d_mpi                               0.183861        5940
 augmentation_charge                     0.114554          25
 setdij_                                 0.098773          53
 pothar                                  0.087144          27
 brmix                                   0.085402          25
 choleski                                0.061664           1
 overl1                                  0.061256        2480
 setg0                                   0.051690          26
 overl                                   0.039218        4149
 redis_proj                              0.038307        8357
 broyd                                   0.028603          25
 fft_gq                                  0.027100          25
 map_backward                            0.023206        5386
 strkin                                  0.017546           1
 set_charge                              0.016272          25
 set_dd_paw                              0.015846          27
 strelo                                  0.015233           1
 newband                                 0.014610        2509
 chggra                                  0.013055           1
 brget                                   0.011745        1719
 densta                                  0.011571          30
 orthch                                  0.009895           1
 strehar                                 0.009498           1
 w1_projall                              0.008113        1668
 inisym                                  0.006169           1
 fftbas_mpi                              0.005587        5535
 depsum                                  0.005203          25
 rsp                                     0.004441           1
 strenl                                  0.002922           1
 brsav                                   0.002619         429
 fewald                                  0.001752           1
 brpre                                   0.001514          25
 truncate_high_frequency_w1              0.000849        3292
 brgrid                                  0.000371           1
 fftbrc_mpi                              0.000337         405
 rcp                                     0.000298           1
 posmap                                  0.000143           2
 proj                                    0.000096           1
 fordep                                  0.000062           1
 crpa_reader                             0.000029           1
 FERMAT_RAZOR                            0.000028           1
 set_rsgf_all                            0.000015          27
 potlok_metagga                          0.000009          26
 proall                                  0.000005           1
 vectorpot                               0.000004          26
 set_dd_magatom                          0.000003          27
 redis_pw_over_bands                     0.000001           1
 rotate_active_occupied_orbital          0.000000           1
 ---------------------------------------------------------------
  summed up times     2459.608462095261     
 
 Accumulative profile
 ====================
 
             routine name                   CPU           calls
 ---------------------------------------------------------------
 total_time                           2459.608462           1
 elmin                                2161.687332           1
 eddav                                2121.795551          29
 hamiltmu                             1180.250071        2480
 vnlac0                                825.788821        2480
 proj1                                 702.405429        1948
 w1_projall                            604.560915        1668
 gemm                                  469.433266      905200
 fft3d_mpi                             428.466107        5940
 fftbas_plan_mpi                       428.276321        5940
 fftbas_mpi                            423.034232        5535
 work_mul_crexp                        352.701849      905200
 kinhamil                              323.139883        2480
 fftext_mpi                            322.595439        2480
 m_alltoallv_z                         261.422799        5991
 map_backward                          260.364232        5386
 crexp_mul_wave                        222.443681      711020
 force_and_stress                      139.194791           1
 dfftw_execute                         136.139273       17820
 fftwav_mpi                            124.833609        3055
 m_alltoall_d                          123.635094       58758
 m_sumb_d                               92.889941       14371
 strenl                                 90.793879           1
 orth1                                  55.605546        7468
 ggemm                                  46.471842        3292
 fornl                                  43.614801           1
 newband                                40.404211        2509
 redis_pw                               34.939884        6688
 map_forward                            31.558082        6494
 set_charge                             31.000307          25
 soft_charge                            30.475532          25
 vhamil                                 30.405424        2480
 redis_proj                             29.876954        8357
 wfinit                                 21.130273           1
 lincom                                 18.012602          30
 map_scatter                            11.966490        5991
 map_gather                             11.492278        5991
 m_bcast_z                              10.655411        4385
 proall                                 10.460312           1
 proj                                    9.780764           1
 potlok                                  8.068774          26
 fftbrc_mpi                              5.248014         405
 lapack                                  4.632283        2480
 eccp                                    4.405336         812
 pdssyex_zheevx                          3.999866          29
 pw_charge                               3.381605         575
 ggaall_grid                             2.028399          27
 w1_copy                                 1.538089        7440
 densta                                  1.405418          30
 orthch                                  1.363036           1
 sphpro_fast                             1.073002           2
 spher                                   0.868196          20
 apply_precond                           0.791455        1668
 phase                                   0.679552          41
 brmix                                   0.567379          25
 setup_precond                           0.519312         812
 augmentation_charge                     0.484024          25
 m_bcast_d                               0.452917        5016
 fft_gq                                  0.391518          25
 forhar                                  0.285288           2
 stufak                                  0.283954           1
 forloc                                  0.278800           1
 fewald                                  0.204539           1
 setdij_                                 0.170197          53
 pothar                                  0.111423          27
 choleski                                0.061664           1
 overl1                                  0.061256        2480
 chggra                                  0.053780           1
 broyd                                   0.052378          25
 setg0                                   0.051690          26
 set_dd_paw                              0.042247          27
 overl                                   0.039218        4149
 depsum                                  0.024479          25
 strkin                                  0.018722           1
 fordep                                  0.016471           1
 strelo                                  0.016024           1
 brget                                   0.011745        1719
 strehar                                 0.010575           1
 inisym                                  0.006312           1
 rsp                                     0.004441           1
 brsav                                   0.002619         429
 brpre                                   0.001514          25
 truncate_high_frequency_w1              0.000849        3292
 brgrid                                  0.000371           1
 rcp                                     0.000298           1
 posmap                                  0.000143           2
 crpa_reader                             0.000029           1
 FERMAT_RAZOR                            0.000028           1
 set_rsgf_all                            0.000015          27
 potlok_metagga                          0.000009          26
 vectorpot                               0.000004          26
 set_dd_magatom                          0.000003          27
 redis_pw_over_bands                     0.000001           1
 rotate_active_occupied_orbital          0.000000           1
 ---------------------------------------------------------------
 
Profiling took   1.178280  0.496059  0.004349  0.004295 seconds
Profiling took   1.120104 seconds
