 running  256 mpi-ranks, with    1 threads/rank, on    7 nodes
 distrk:  each k-point on  128 cores,    2 groups
 distr:  one band on    4 cores,   32 groups
 vasp.6.4.1 05Apr23 (build May 18 2023 13:19:41) complex                         
 POSCAR found type information on POSCAR C S 
 POSCAR found :  2 types and     365 ions
 Reading from existing POTCAR
 scaLAPACK will be used
 Reading from existing POTCAR
 -----------------------------------------------------------------------------
|                                                                             |
|               ----> ADVICE to this user running VASP <----                  |
|                                                                             |
|     You have a (more or less) 'large supercell' and for larger cells it     |
|     might be more efficient to use real-space projection operators.         |
|     Therefore, try LREAL= Auto in the INCAR file.                           |
|     Mind: If you want to do very accurate calculations, keep the            |
|     reciprocal projection scheme (i.e. LREAL=.FALSE.).                      |
|                                                                             |
 -----------------------------------------------------------------------------

 LDA part: xc-table for Pade appr. of Perdew
 POSCAR, INCAR and KPOINTS ok, starting setup
 FFT: planning ... GRIDC
 FFT: planning ... GRID_SOFT
 FFT: planning ... GRID
 WAVECAR not read
 WARNING: random wavefunctions but no delay for mixing, default for NELMDL
 entering main loop
       N       E                     dE             d eps       ncg     rms          rms(c)
DAV:   1     0.130928796033E+05    0.13093E+05   -0.45130E+05  4544   0.932E+02
DAV:   2     0.667238718796E+02   -0.13026E+05   -0.12249E+05  5312   0.239E+02
DAV:   3    -0.335678223715E+04   -0.34235E+04   -0.33784E+04  4544   0.130E+02
DAV:   4    -0.353821203638E+04   -0.18143E+03   -0.17886E+03  4416   0.387E+01
DAV:   5    -0.354308556118E+04   -0.48735E+01   -0.48189E+01  4800   0.560E+00    0.743E+01
DAV:   6    -0.337342897723E+04    0.16966E+03   -0.17812E+02  4064   0.119E+01    0.393E+01
DAV:   7    -0.331172308014E+04    0.61706E+02   -0.19103E+02  4064   0.124E+01    0.710E+00
DAV:   8    -0.331135381415E+04    0.36927E+00   -0.62135E+00  4320   0.258E+00    0.376E+00
DAV:   9    -0.331082670983E+04    0.52710E+00   -0.99632E-01  4192   0.101E+00    0.103E+00
DAV:  10    -0.331077909683E+04    0.47613E-01   -0.12422E-01  4192   0.375E-01    0.612E-01
DAV:  11    -0.331077621057E+04    0.28863E-02   -0.96093E-02  4032   0.260E-01    0.369E-01
DAV:  12    -0.331081118178E+04   -0.34971E-01   -0.36729E-02  3936   0.170E-01    0.194E-01
DAV:  13    -0.331084034799E+04   -0.29166E-01   -0.15821E-02  3808   0.965E-02    0.107E-01
DAV:  14    -0.331086535039E+04   -0.25002E-01   -0.66893E-03  4096   0.549E-02    0.645E-02
DAV:  15    -0.331090191429E+04   -0.36564E-01   -0.30009E-03  3936   0.375E-02    0.398E-02
DAV:  16    -0.331092588577E+04   -0.23971E-01   -0.25812E-03  3968   0.306E-02    0.202E-02
DAV:  17    -0.331093245024E+04   -0.65645E-02   -0.33245E-04  4192   0.151E-02    0.128E-02
DAV:  18    -0.331093637425E+04   -0.39240E-02   -0.17583E-04  3968   0.922E-03    0.695E-03
DAV:  19    -0.331093848377E+04   -0.21095E-02   -0.75184E-05  4128   0.581E-03    0.450E-03
DAV:  20    -0.331093995029E+04   -0.14665E-02   -0.60411E-05  3424   0.426E-03    0.237E-03
DAV:  21    -0.331094034722E+04   -0.39693E-03   -0.15343E-05  3360   0.214E-03    0.137E-03
DAV:  22    -0.331094048526E+04   -0.13804E-03   -0.13398E-06  3168   0.113E-03    0.704E-04
DAV:  23    -0.331094054395E+04   -0.58692E-04    0.30146E-07  2528   0.611E-04    0.382E-04
DAV:  24    -0.331094057277E+04   -0.28814E-04    0.47771E-07  2496   0.473E-04    0.227E-04
DAV:  25    -0.331094058652E+04   -0.13749E-04    0.65500E-07  2400   0.308E-04    0.158E-04
DAV:  26    -0.331094059875E+04   -0.12234E-04    0.69985E-07  2336   0.274E-04    0.802E-05
DAV:  27    -0.331094060337E+04   -0.46219E-05    0.73814E-07  2368   0.157E-04    0.596E-05
DAV:  28    -0.331094060592E+04   -0.25490E-05    0.74493E-07  2304   0.127E-04    0.338E-05
DAV:  29    -0.331094060637E+04   -0.45309E-06    0.75180E-07  2304   0.610E-05
   1 F= -.33249976E+04 E0= -.33249976E+04  d E =-.102527E-12
 writing wavefunctions
 PROFILE, used timers:     335
