 vasp.6.4.2 20Jul23 (build Oct 12 2023 10:31:02) complex                         
 executed on              LinuxNV date 2024.11.26  15:21:44
 running  128 mpi-ranks, with    1 threads/rank, on    2 nodes
 distrk:  each k-point on  128 cores,    1 groups
 distr:  one band on NCORE=   1 cores,  128 groups


--------------------------------------------------------------------------------------------------------


 INCAR:
   ENCUT = 520.000000
   SIGMA = 0.050000
   EDIFF = 1.00e-06
   ALGO = N
   GGA = PE
   PREC = Accurate
   SYSTEM = SCF
   ICHARG = 0
   ISMEAR = 0
   ISPIN = 2
   ISTART = 1
   LORBIT = 11
   NBANDS = 1728
   NELM = 100
   NELMIN = 5
   LASPH = .TRUE.
   LCHARG = .TRUE.
   LWAVE = .TRUE.
   LREAL = .FALSE.

 POTCAR:    PAW_PBE Ge 05Jan2001                  
 POTCAR:    PAW_PBE Se 06Sep2000                  
 -----------------------------------------------------------------------------
|                                                                             |
|           W    W    AA    RRRRR   N    N  II  N    N   GGGG   !!!           |
|           W    W   A  A   R    R  NN   N  II  NN   N  G    G  !!!           |
|           W    W  A    A  R    R  N N  N  II  N N  N  G       !!!           |
|           W WW W  AAAAAA  RRRRR   N  N N  II  N  N N  G  GGG   !            |
|           WW  WW  A    A  R   R   N   NN  II  N   NN  G    G                |
|           W    W  A    A  R    R  N    N  II  N    N   GGGG   !!!           |
|                                                                             |
|     You use a magnetic or noncollinear calculation, but did not specify     |
|     the initial magnetic moment with the MAGMOM tag. Note that a            |
|     default of 1 will be used for all atoms. This ferromagnetic setup       |
|     may break the symmetry of the crystal, in particular it may rule        |
|     out finding an antiferromagnetic solution. Thence, we recommend         |
|     setting the initial magnetic moment manually or verifying carefully     |
|     that this magnetic setup is desired.                                    |
|                                                                             |
 -----------------------------------------------------------------------------

 POTCAR:    PAW_PBE Ge 05Jan2001                  
   VRHFIN =Ge: s2p2                                                                                 
   LEXCH  = PE                                                                                      
   EATOM  =   104.9960 eV,    7.7170 Ry                                                             
                                                                                                    
   TITEL  = PAW_PBE Ge 05Jan2001                                                                    
   LULTRA =        F    use ultrasoft PP ?                                                          
   IUNSCR =        1    unscreen: 0-lin 1-nonlin 2-no                                               
   RPACOR =    2.170    partial core radius                                                         
   POMASS =   72.610; ZVAL   =    4.000    mass and valenz                                          
   RCORE  =    2.300    outmost cutoff radius                                                       
   RWIGS  =    2.300; RWIGS  =    1.217    wigner-seitz radius (au A)                               
   ENMAX  =  173.807; ENMIN  =  130.355 eV                                                          
   ICORE  =        3    local potential                                                             
   LCOR   =        T    correct aug charges                                                         
   LPAW   =        T    paw PP                                                                      
   EAUG   =  385.843                                                                                
   DEXC   =    0.000                                                                                
   RMAX   =    2.342    core radius for proj-oper                                                   
   RAUG   =    1.300    factor for augmentation sphere                                              
   RDEP   =    2.318    radius for radial grids                                                     
   RDEPT  =    2.103    core radius for aug-charge                                                  
                                                                                                    
   Atomic configuration                                                                             
   10 entries                                                                                       
     n  l   j            E        occ.                                                              
     1  0  0.50    -10959.8463   2.0000                                                             
     2  0  0.50     -1371.6056   2.0000                                                             
     2  1  1.50     -1198.4791   6.0000                                                             
     3  0  0.50      -168.4733   2.0000                                                             
     3  1  1.50      -115.6019   6.0000                                                             
     3  2  2.50       -29.3106  10.0000                                                             
     4  0  0.50       -11.7309   2.0000                                                             
     4  1  0.50        -3.8952   2.0000                                                             
     4  2  1.50        -4.0817   0.0000                                                             
     4  3  2.50        -4.0817   0.0000                                                             
   Description                                                                                      
     l       E           TYP  RCUT    TYP  RCUT                                                     
     0    -11.7309493     23  2.300                                                                 
     0     -7.4578696     23  2.300                                                                 
     1     -3.8952261     23  2.300                                                                 
     1      6.1178114     23  2.300                                                                 
     2     -4.0817478     23  2.300                                                                 
     3     -1.3605826      7  2.300                                                                 
  local pseudopotential read in
  partial core-charges read in
  partial kinetic energy density read in
  atomic valenz-charges read in
  non local Contribution for L=            0  read in
    real space projection operators read in
  non local Contribution for L=            0  read in
    real space projection operators read in
  non local Contribution for L=            1  read in
    real space projection operators read in
  non local Contribution for L=            1  read in
    real space projection operators read in
  non local Contribution for L=            2  read in
    real space projection operators read in
    PAW grid and wavefunctions read in
 
   number of l-projection  operators is LMAX  =            5
   number of lm-projection operators is LMMAX =           13
 
 POTCAR:    PAW_PBE Se 06Sep2000                  
   VRHFIN =Se: s2p4                                                                                 
   LEXCH  = PE                                                                                      
   EATOM  =   257.1286 eV,   18.8984 Ry                                                             
                                                                                                    
   TITEL  = PAW_PBE Se 06Sep2000                                                                    
   LULTRA =        F    use ultrasoft PP ?                                                          
   IUNSCR =        1    unscreen: 0-lin 1-nonlin 2-no                                               
   RPACOR =    1.900    partial core radius                                                         
   POMASS =   78.960; ZVAL   =    6.000    mass and valenz                                          
   RCORE  =    2.100    outmost cutoff radius                                                       
   RWIGS  =    2.200; RWIGS  =    1.164    wigner-seitz radius (au A)                               
   ENMAX  =  211.555; ENMIN  =  158.666 eV                                                          
   ICORE  =        3    local potential                                                             
   LCOR   =        T    correct aug charges                                                         
   LPAW   =        T    paw PP                                                                      
   EAUG   =  446.842                                                                                
   DEXC   =    0.000                                                                                
   RMAX   =    2.147    core radius for proj-oper                                                   
   RAUG   =    1.300    factor for augmentation sphere                                              
   RDEP   =    2.177    radius for radial grids                                                     
   RDEPT  =    1.928    core radius for aug-charge                                                  
                                                                                                    
   Atomic configuration                                                                             
   10 entries                                                                                       
     n  l   j            E        occ.                                                              
     1  0  0.50    -12503.4787   2.0000                                                             
     2  0  0.50     -1606.9547   2.0000                                                             
     2  1  1.50     -1413.3140   6.0000                                                             
     3  0  0.50      -213.4885   2.0000                                                             
     3  1  1.50      -152.9538   6.0000                                                             
     3  2  2.50       -53.1221  10.0000                                                             
     4  0  0.50       -17.2865   2.0000                                                             
     4  1  0.50        -6.5110   4.0000                                                             
     4  2  2.50        -6.8029   0.0000                                                             
     4  3  2.50        -6.8029   0.0000                                                             
   Description                                                                                      
     l       E           TYP  RCUT    TYP  RCUT                                                     
     0    -17.2865377     23  2.100                                                                 
     0    -15.3094411     23  2.100                                                                 
     1     -6.5110275     23  2.100                                                                 
     1     -0.0695192     23  2.100                                                                 
     2     -6.8029130     23  2.100                                                                 
     3     -1.3605826      7  2.100                                                                 
  local pseudopotential read in
  partial core-charges read in
  partial kinetic energy density read in
  atomic valenz-charges read in
  non local Contribution for L=            0  read in
    real space projection operators read in
  non local Contribution for L=            0  read in
    real space projection operators read in
  non local Contribution for L=            1  read in
    real space projection operators read in
  non local Contribution for L=            1  read in
    real space projection operators read in
  non local Contribution for L=            2  read in
    real space projection operators read in
    PAW grid and wavefunctions read in
 
   number of l-projection  operators is LMAX  =            5
   number of lm-projection operators is LMMAX =           13
 
 -----------------------------------------------------------------------------
|                                                                             |
|               ----> ADVICE to this user running VASP <----                  |
|                                                                             |
|     You have a (more or less) 'large supercell' and for larger cells it     |
|     might be more efficient to use real-space projection operators.         |
|     Therefore, try LREAL= Auto in the INCAR file.                           |
|     Mind: For very accurate calculation, you might also keep the            |
|     reciprocal projection scheme (i.e. LREAL=.FALSE.).                      |
|                                                                             |
 -----------------------------------------------------------------------------

  PAW_PBE Ge 05Jan2001                  :
 energy of atom  1       EATOM= -104.9960
 kinetic energy error for atom=    0.0002 (will be added to EATOM!!)
  PAW_PBE Se 06Sep2000                  :
 energy of atom  2       EATOM= -257.1286
 kinetic energy error for atom=    0.0007 (will be added to EATOM!!)
 
 
 POSCAR: Ge Se
  positions in cartesian coordinates
  No initial velocities read in
 exchange correlation table for  LEXCH =        8
   RHO(1)=    0.500       N(1)  =     2000
   RHO(2)=  100.500       N(2)  =     4000
 


--------------------------------------------------------------------------------------------------------


 ion  position               nearest neighbor table
   1  0.042  0.020  0.062- 535 2.60 361 2.61 366 2.61
   2  0.208  0.020  0.063- 536 2.59 362 2.61 361 2.61
   3  0.375  0.020  0.063- 537 2.59 363 2.61 362 2.61
   4  0.542  0.020  0.063- 538 2.59 364 2.61 363 2.61
   5  0.708  0.020  0.063- 539 2.59 365 2.61 364 2.61
   6  0.875  0.020  0.063- 540 2.59 366 2.61 365 2.61
   7  0.042  0.186  0.063- 505 2.59 367 2.61 372 2.61
   8  0.208  0.186  0.063- 506 2.59 368 2.61 367 2.61
   9  0.375  0.186  0.063- 507 2.59 369 2.61 368 2.61
  10  0.542  0.186  0.063- 508 2.59 370 2.61 369 2.61
  11  0.708  0.186  0.063- 509 2.59 371 2.61 370 2.61
  12  0.875  0.186  0.063- 510 2.59 372 2.61 371 2.61
  13  0.042  0.353  0.063- 511 2.59 373 2.61 378 2.61
  14  0.208  0.353  0.063- 512 2.59 374 2.61 373 2.61
  15  0.375  0.353  0.063- 513 2.59 375 2.61 374 2.61
  16  0.542  0.353  0.063- 514 2.59 376 2.61 375 2.61
  17  0.708  0.353  0.063- 515 2.59 377 2.61 376 2.61
  18  0.875  0.353  0.063- 516 2.59 378 2.61 377 2.61
  19  0.042  0.520  0.063- 517 2.59 379 2.61 384 2.61
  20  0.208  0.520  0.063- 518 2.59 380 2.61 379 2.61
  21  0.375  0.520  0.063- 519 2.59 381 2.61 380 2.61
  22  0.542  0.520  0.063- 520 2.59 382 2.61 381 2.61
  23  0.708  0.520  0.063- 521 2.59 383 2.61 382 2.61
  24  0.875  0.520  0.063- 522 2.59 384 2.61 383 2.61
  25  0.042  0.686  0.063- 523 2.59 385 2.61 390 2.61
  26  0.208  0.686  0.063- 524 2.59 386 2.61 385 2.61
  27  0.375  0.686  0.063- 525 2.59 387 2.61 386 2.61
  28  0.542  0.686  0.063- 526 2.59 388 2.61 387 2.61
  29  0.708  0.686  0.063- 527 2.59 389 2.61 388 2.61
  30  0.875  0.686  0.063- 528 2.59 390 2.61 389 2.61
  31  0.042  0.853  0.063- 529 2.59 391 2.61 396 2.61
  32  0.208  0.853  0.063- 530 2.59 392 2.61 391 2.61
  33  0.375  0.853  0.063- 531 2.59 393 2.61 392 2.61
  34  0.542  0.853  0.063- 532 2.59 394 2.61 393 2.61
  35  0.708  0.853  0.063- 533 2.59 395 2.61 394 2.61
  36  0.875  0.853  0.063- 534 2.59 396 2.61 395 2.61
  37  0.042  0.020  0.563- 571 2.59 397 2.61 402 2.61
  38  0.208  0.020  0.563- 572 2.59 398 2.61 397 2.61
  39  0.375  0.020  0.563- 573 2.59 399 2.61 398 2.61
  40  0.542  0.020  0.563- 574 2.59 400 2.61 399 2.61
  41  0.708  0.020  0.563- 575 2.59 401 2.61 400 2.61
  42  0.875  0.020  0.563- 576 2.59 402 2.61 401 2.61
  43  0.042  0.186  0.563- 541 2.59 403 2.61 408 2.61
  44  0.208  0.186  0.563- 542 2.59 404 2.61 403 2.61
  45  0.375  0.186  0.563- 543 2.59 405 2.61 404 2.61
  46  0.542  0.186  0.563- 544 2.59 406 2.61 405 2.61
  47  0.708  0.186  0.563- 545 2.59 407 2.61 406 2.61
  48  0.875  0.186  0.563- 546 2.59 408 2.61 407 2.61
  49  0.042  0.353  0.563- 547 2.59 409 2.61 414 2.61
  50  0.208  0.353  0.563- 548 2.59 410 2.61 409 2.61
  51  0.375  0.353  0.563- 549 2.59 411 2.61 410 2.61
  52  0.542  0.353  0.563- 550 2.59 412 2.61 411 2.61
  53  0.708  0.353  0.563- 551 2.59 413 2.61 412 2.61
  54  0.875  0.353  0.563- 552 2.59 414 2.61 413 2.61
  55  0.042  0.520  0.563- 553 2.59 415 2.61 420 2.61
  56  0.208  0.520  0.563- 554 2.59 416 2.61 415 2.61
  57  0.375  0.520  0.563- 555 2.59 417 2.61 416 2.61
  58  0.542  0.520  0.563- 556 2.59 418 2.61 417 2.61
  59  0.708  0.520  0.563- 557 2.59 419 2.61 418 2.61
  60  0.875  0.520  0.563- 558 2.59 420 2.61 419 2.61
  61  0.042  0.686  0.563- 559 2.59 421 2.61 426 2.61
  62  0.208  0.686  0.563- 560 2.59 422 2.61 421 2.61
  63  0.375  0.686  0.563- 561 2.59 423 2.61 422 2.61
  64  0.542  0.686  0.563- 562 2.59 424 2.61 423 2.61
  65  0.708  0.686  0.563- 563 2.59 425 2.61 424 2.61
  66  0.875  0.686  0.563- 564 2.59 426 2.61 425 2.61
  67  0.042  0.853  0.563- 565 2.59 427 2.61 432 2.61
  68  0.208  0.853  0.563- 566 2.59 428 2.61 427 2.61
  69  0.375  0.853  0.563- 567 2.59 429 2.61 428 2.61
  70  0.542  0.853  0.563- 568 2.59 430 2.61 429 2.61
  71  0.708  0.853  0.563- 569 2.59 431 2.61 430 2.61
  72  0.875  0.853  0.563- 570 2.59 432 2.61 431 2.61
  73  0.125  0.147  0.437- 439 2.59 289 2.61 290 2.61
  74  0.292  0.147  0.437- 440 2.59 290 2.61 291 2.61
  75  0.458  0.147  0.437- 441 2.59 291 2.61 292 2.61
  76  0.625  0.147  0.437- 442 2.59 292 2.61 293 2.61
  77  0.792  0.147  0.437- 443 2.59 293 2.61 294 2.61
  78  0.958  0.147  0.437- 444 2.59 294 2.61 289 2.61
  79  0.125  0.314  0.437- 445 2.59 295 2.61 296 2.61
  80  0.292  0.314  0.437- 446 2.59 296 2.61 297 2.61
  81  0.458  0.314  0.437- 447 2.59 297 2.61 298 2.61
  82  0.625  0.314  0.437- 448 2.59 298 2.61 299 2.61
  83  0.792  0.314  0.437- 449 2.59 299 2.61 300 2.61
  84  0.958  0.314  0.437- 450 2.59 300 2.61 295 2.61
  85  0.125  0.480  0.437- 451 2.59 301 2.61 302 2.61
  86  0.292  0.480  0.437- 452 2.59 302 2.61 303 2.61
  87  0.458  0.480  0.437- 453 2.59 303 2.61 304 2.61
  88  0.625  0.480  0.437- 454 2.59 304 2.61 305 2.61
  89  0.792  0.480  0.437- 455 2.59 305 2.61 306 2.61
  90  0.958  0.480  0.437- 456 2.59 306 2.61 301 2.61
  91  0.125  0.647  0.437- 457 2.59 307 2.61 308 2.61
  92  0.292  0.647  0.437- 458 2.59 308 2.61 309 2.61
  93  0.458  0.647  0.437- 459 2.59 309 2.61 310 2.61
  94  0.625  0.647  0.437- 460 2.59 310 2.61 311 2.61
  95  0.792  0.647  0.437- 461 2.59 311 2.61 312 2.61
  96  0.958  0.647  0.437- 462 2.59 312 2.61 307 2.61
  97  0.125  0.814  0.437- 463 2.59 313 2.61 314 2.61
  98  0.292  0.814  0.437- 464 2.59 314 2.61 315 2.61
  99  0.458  0.814  0.437- 465 2.59 315 2.61 316 2.61
 100  0.625  0.814  0.437- 466 2.59 316 2.61 317 2.61
 101  0.792  0.814  0.437- 467 2.59 317 2.61 318 2.61
 102  0.958  0.814  0.437- 468 2.59 318 2.61 313 2.61
 103  0.125  0.980  0.437- 433 2.59 319 2.61 320 2.61
 104  0.292  0.980  0.437- 434 2.59 320 2.61 321 2.61
 105  0.458  0.980  0.437- 435 2.59 321 2.61 322 2.61
 106  0.625  0.980  0.437- 436 2.59 322 2.61 323 2.61
 107  0.792  0.980  0.437- 437 2.59 323 2.61 324 2.61
 108  0.958  0.980  0.437- 438 2.59 324 2.61 319 2.61
 109  0.125  0.147  0.937- 475 2.59 325 2.61 326 2.61
 110  0.292  0.147  0.937- 476 2.59 326 2.61 327 2.61
 111  0.458  0.147  0.937- 477 2.59 327 2.61 328 2.61
 112  0.625  0.147  0.937- 478 2.59 328 2.61 329 2.61
 113  0.792  0.147  0.937- 479 2.59 329 2.61 330 2.61
 114  0.958  0.147  0.937- 480 2.59 330 2.61 325 2.61
 115  0.125  0.314  0.937- 481 2.59 331 2.61 332 2.61
 116  0.292  0.314  0.937- 482 2.59 332 2.61 333 2.61
 117  0.458  0.314  0.937- 483 2.59 333 2.61 334 2.61
 118  0.625  0.314  0.937- 484 2.59 334 2.61 335 2.61
 119  0.792  0.314  0.937- 485 2.59 335 2.61 336 2.61
 120  0.958  0.314  0.937- 486 2.59 336 2.61 331 2.61
 121  0.125  0.480  0.937- 487 2.59 337 2.61 338 2.61
 122  0.292  0.480  0.937- 488 2.59 338 2.61 339 2.61
 123  0.458  0.480  0.937- 489 2.59 339 2.61 340 2.61
 124  0.625  0.480  0.937- 490 2.59 340 2.61 341 2.61
 125  0.792  0.480  0.937- 491 2.59 341 2.61 342 2.61
 126  0.958  0.480  0.937- 492 2.59 342 2.61 337 2.61
 127  0.125  0.647  0.937- 493 2.59 343 2.61 344 2.61
 128  0.292  0.647  0.937- 494 2.59 344 2.61 345 2.61
 129  0.458  0.647  0.937- 495 2.59 345 2.61 346 2.61
 130  0.625  0.647  0.937- 496 2.59 346 2.61 347 2.61
 131  0.792  0.647  0.937- 497 2.59 347 2.61 348 2.61
 132  0.958  0.647  0.937- 498 2.59 348 2.61 343 2.61
 133  0.125  0.814  0.937- 499 2.59 349 2.61 350 2.61
 134  0.292  0.814  0.937- 500 2.59 350 2.61 351 2.61
 135  0.458  0.814  0.937- 501 2.59 351 2.61 352 2.61
 136  0.625  0.814  0.937- 502 2.59 352 2.61 353 2.61
 137  0.792  0.814  0.937- 503 2.59 353 2.61 354 2.61
 138  0.958  0.814  0.937- 504 2.59 354 2.61 349 2.61
 139  0.125  0.980  0.937- 469 2.59 355 2.61 356 2.61
 140  0.292  0.980  0.937- 470 2.59 356 2.61 357 2.61
 141  0.458  0.980  0.937- 471 2.59 357 2.61 358 2.61
 142  0.625  0.980  0.937- 472 2.59 358 2.61 359 2.61
 143  0.792  0.980  0.937- 473 2.59 359 2.61 360 2.61
 144  0.958  0.980  0.937- 474 2.59 360 2.61 355 2.61
 145  0.125  0.103  0.187- 361 2.59 505 2.61 506 2.61
 146  0.292  0.103  0.187- 362 2.59 506 2.61 507 2.61
 147  0.458  0.103  0.187- 363 2.59 507 2.61 508 2.61
 148  0.625  0.103  0.187- 364 2.59 508 2.61 509 2.61
 149  0.792  0.103  0.187- 365 2.59 509 2.61 510 2.61
 150  0.958  0.103  0.187- 366 2.59 510 2.61 505 2.61
 151  0.125  0.270  0.187- 367 2.59 511 2.61 512 2.61
 152  0.292  0.270  0.187- 368 2.59 512 2.61 513 2.61
 153  0.458  0.270  0.187- 369 2.59 513 2.61 514 2.61
 154  0.625  0.270  0.187- 370 2.59 514 2.61 515 2.61
 155  0.792  0.270  0.187- 371 2.59 515 2.61 516 2.61
 156  0.958  0.270  0.187- 372 2.59 516 2.61 511 2.61
 157  0.125  0.436  0.187- 373 2.59 517 2.61 518 2.61
 158  0.292  0.436  0.187- 374 2.59 518 2.61 519 2.61
 159  0.458  0.436  0.187- 375 2.59 519 2.61 520 2.61
 160  0.625  0.436  0.187- 376 2.59 520 2.61 521 2.61
 161  0.792  0.436  0.187- 377 2.59 521 2.61 522 2.61
 162  0.958  0.436  0.187- 378 2.59 522 2.61 517 2.61
 163  0.125  0.603  0.187- 379 2.59 523 2.61 524 2.61
 164  0.292  0.603  0.187- 380 2.59 524 2.61 525 2.61
 165  0.458  0.603  0.187- 381 2.59 525 2.61 526 2.61
 166  0.625  0.603  0.187- 382 2.59 526 2.61 527 2.61
 167  0.792  0.603  0.187- 383 2.59 527 2.61 528 2.61
 168  0.958  0.603  0.187- 384 2.59 528 2.61 523 2.61
 169  0.125  0.770  0.187- 385 2.59 529 2.61 530 2.61
 170  0.292  0.770  0.187- 386 2.59 530 2.61 531 2.61
 171  0.458  0.770  0.187- 387 2.59 531 2.61 532 2.61
 172  0.625  0.770  0.187- 388 2.59 532 2.61 533 2.61
 173  0.792  0.770  0.187- 389 2.59 533 2.61 534 2.61
 174  0.958  0.770  0.187- 390 2.59 534 2.61 529 2.61
 175  0.125  0.936  0.187- 391 2.59 535 2.61 536 2.61
 176  0.292  0.936  0.187- 392 2.59 536 2.61 537 2.61
 177  0.458  0.936  0.187- 393 2.59 537 2.61 538 2.61
 178  0.625  0.936  0.187- 394 2.59 538 2.61 539 2.61
 179  0.792  0.936  0.187- 395 2.59 539 2.61 540 2.61
 180  0.958  0.936  0.187- 396 2.59 540 2.61 535 2.61
 181  0.125  0.103  0.687- 397 2.59 541 2.61 542 2.61
 182  0.292  0.103  0.687- 398 2.59 542 2.61 543 2.61
 183  0.458  0.103  0.687- 399 2.59 543 2.61 544 2.61
 184  0.625  0.103  0.687- 400 2.59 544 2.61 545 2.61
 185  0.792  0.103  0.687- 401 2.59 545 2.61 546 2.61
 186  0.958  0.103  0.687- 402 2.59 546 2.61 541 2.61
 187  0.125  0.270  0.687- 403 2.59 547 2.61 548 2.61
 188  0.292  0.270  0.687- 404 2.59 548 2.61 549 2.61
 189  0.458  0.270  0.687- 405 2.59 549 2.61 550 2.61
 190  0.625  0.270  0.687- 406 2.59 550 2.61 551 2.61
 191  0.792  0.270  0.687- 407 2.59 551 2.61 552 2.61
 192  0.958  0.270  0.687- 408 2.59 552 2.61 547 2.61
 193  0.125  0.436  0.687- 409 2.59 553 2.61 554 2.61
 194  0.292  0.436  0.687- 410 2.59 554 2.61 555 2.61
 195  0.458  0.436  0.687- 411 2.59 555 2.61 556 2.61
 196  0.625  0.436  0.687- 412 2.59 556 2.61 557 2.61
 197  0.792  0.436  0.687- 413 2.59 557 2.61 558 2.61
 198  0.958  0.436  0.687- 414 2.59 558 2.61 553 2.61
 199  0.125  0.603  0.687- 415 2.59 559 2.61 560 2.61
 200  0.292  0.603  0.687- 416 2.59 560 2.61 561 2.61
 201  0.458  0.603  0.687- 417 2.59 561 2.61 562 2.61
 202  0.625  0.603  0.687- 418 2.59 562 2.61 563 2.61
 203  0.792  0.603  0.687- 419 2.59 563 2.61 564 2.61
 204  0.958  0.603  0.687- 420 2.59 564 2.61 559 2.61
 205  0.125  0.770  0.687- 421 2.59 565 2.61 566 2.61
 206  0.292  0.770  0.687- 422 2.59 566 2.61 567 2.61
 207  0.458  0.770  0.687- 423 2.59 567 2.61 568 2.61
 208  0.625  0.770  0.687- 424 2.59 568 2.61 569 2.61
 209  0.792  0.770  0.687- 425 2.59 569 2.61 570 2.61
 210  0.958  0.770  0.687- 426 2.59 570 2.61 565 2.61
 211  0.125  0.936  0.687- 427 2.59 571 2.61 572 2.61
 212  0.292  0.936  0.687- 428 2.59 572 2.61 573 2.61
 213  0.458  0.936  0.687- 429 2.59 573 2.61 574 2.61
 214  0.625  0.936  0.687- 430 2.59 574 2.61 575 2.61
 215  0.792  0.936  0.687- 431 2.59 575 2.61 576 2.61
 216  0.958  0.936  0.687- 432 2.59 576 2.61 571 2.61
 217  0.042  0.064  0.313- 289 2.59 433 2.61 438 2.61
 218  0.208  0.064  0.313- 290 2.59 434 2.61 433 2.61
 219  0.375  0.064  0.313- 291 2.59 435 2.61 434 2.61
 220  0.542  0.064  0.313- 292 2.59 436 2.61 435 2.61
 221  0.708  0.064  0.313- 293 2.59 437 2.61 436 2.61
 222  0.875  0.064  0.313- 294 2.59 438 2.61 437 2.61
 223  0.042  0.230  0.313- 295 2.59 439 2.61 444 2.61
 224  0.208  0.230  0.313- 296 2.59 440 2.61 439 2.61
 225  0.375  0.230  0.313- 297 2.59 441 2.61 440 2.61
 226  0.542  0.230  0.313- 298 2.59 442 2.61 441 2.61
 227  0.708  0.230  0.313- 299 2.59 443 2.61 442 2.61
 228  0.875  0.230  0.313- 300 2.59 444 2.61 443 2.61
 229  0.042  0.397  0.313- 301 2.59 445 2.61 450 2.61
 230  0.208  0.397  0.313- 302 2.59 446 2.61 445 2.61
 231  0.375  0.397  0.313- 303 2.59 447 2.61 446 2.61
 232  0.542  0.397  0.313- 304 2.59 448 2.61 447 2.61
 233  0.708  0.397  0.313- 305 2.59 449 2.61 448 2.61
 234  0.875  0.397  0.313- 306 2.59 450 2.61 449 2.61
 235  0.042  0.564  0.313- 307 2.59 451 2.61 456 2.61
 236  0.208  0.564  0.313- 308 2.59 452 2.61 451 2.61
 237  0.375  0.564  0.313- 309 2.59 453 2.61 452 2.61
 238  0.542  0.564  0.313- 310 2.59 454 2.61 453 2.61
 239  0.708  0.564  0.313- 311 2.59 455 2.61 454 2.61
 240  0.875  0.564  0.313- 312 2.59 456 2.61 455 2.61
 241  0.042  0.730  0.313- 313 2.59 457 2.61 462 2.61
 242  0.208  0.730  0.313- 314 2.59 458 2.61 457 2.61
 243  0.375  0.730  0.313- 315 2.59 459 2.61 458 2.61
 244  0.542  0.730  0.313- 316 2.59 460 2.61 459 2.61
 245  0.708  0.730  0.313- 317 2.59 461 2.61 460 2.61
 246  0.875  0.730  0.313- 318 2.59 462 2.61 461 2.61
 247  0.042  0.897  0.313- 319 2.59 463 2.61 468 2.61
 248  0.208  0.897  0.313- 320 2.59 464 2.61 463 2.61
 249  0.375  0.897  0.313- 321 2.59 465 2.61 464 2.61
 250  0.542  0.897  0.313- 322 2.59 466 2.61 465 2.61
 251  0.708  0.897  0.313- 323 2.59 467 2.61 466 2.61
 252  0.875  0.897  0.313- 324 2.59 468 2.61 467 2.61
 253  0.042  0.064  0.813- 325 2.59 469 2.61 474 2.61
 254  0.208  0.064  0.813- 326 2.59 470 2.61 469 2.61
 255  0.375  0.064  0.813- 327 2.59 471 2.61 470 2.61
 256  0.542  0.064  0.813- 328 2.59 472 2.61 471 2.61
 257  0.708  0.064  0.813- 329 2.59 473 2.61 472 2.61
 258  0.875  0.064  0.813- 330 2.59 474 2.61 473 2.61
 259  0.042  0.230  0.813- 331 2.59 475 2.61 480 2.61
 260  0.208  0.230  0.813- 332 2.59 476 2.61 475 2.61
 261  0.375  0.230  0.813- 333 2.59 477 2.61 476 2.61
 262  0.542  0.230  0.813- 334 2.59 478 2.61 477 2.61
 263  0.708  0.230  0.813- 335 2.59 479 2.61 478 2.61
 264  0.875  0.230  0.813- 336 2.59 480 2.61 479 2.61
 265  0.042  0.397  0.813- 337 2.59 481 2.61 486 2.61
 266  0.208  0.397  0.813- 338 2.59 482 2.61 481 2.61
 267  0.375  0.397  0.813- 339 2.59 483 2.61 482 2.61
 268  0.542  0.397  0.813- 340 2.59 484 2.61 483 2.61
 269  0.708  0.397  0.813- 341 2.59 485 2.61 484 2.61
 270  0.875  0.397  0.813- 342 2.59 486 2.61 485 2.61
 271  0.042  0.564  0.813- 343 2.59 487 2.61 492 2.61
 272  0.208  0.564  0.813- 344 2.59 488 2.61 487 2.61
 273  0.375  0.564  0.813- 345 2.59 489 2.61 488 2.61
 274  0.542  0.564  0.813- 346 2.59 490 2.61 489 2.61
 275  0.708  0.564  0.813- 347 2.59 491 2.61 490 2.61
 276  0.875  0.564  0.813- 348 2.59 492 2.61 491 2.61
 277  0.042  0.730  0.813- 349 2.59 493 2.61 498 2.61
 278  0.208  0.730  0.813- 350 2.59 494 2.61 493 2.61
 279  0.375  0.730  0.813- 351 2.59 495 2.61 494 2.61
 280  0.542  0.730  0.813- 352 2.59 496 2.61 495 2.61
 281  0.708  0.730  0.813- 353 2.59 497 2.61 496 2.61
 282  0.875  0.730  0.813- 354 2.59 498 2.61 497 2.61
 283  0.042  0.897  0.813- 355 2.59 499 2.61 504 2.61
 284  0.208  0.897  0.813- 356 2.59 500 2.61 499 2.61
 285  0.375  0.897  0.813- 357 2.59 501 2.61 500 2.61
 286  0.542  0.897  0.813- 358 2.59 502 2.61 501 2.61
 287  0.708  0.897  0.813- 359 2.59 503 2.61 502 2.61
 288  0.875  0.897  0.813- 360 2.59 504 2.61 503 2.61
 289  0.042  0.084  0.426- 217 2.59  73 2.61  78 2.61
 290  0.208  0.084  0.426- 218 2.59  74 2.61  73 2.61
 291  0.375  0.084  0.426- 219 2.59  75 2.61  74 2.61
 292  0.542  0.084  0.426- 220 2.59  76 2.61  75 2.61
 293  0.708  0.084  0.426- 221 2.59  77 2.61  76 2.61
 294  0.875  0.084  0.426- 222 2.59  78 2.61  77 2.61
 295  0.042  0.251  0.426- 223 2.59  79 2.61  84 2.61
 296  0.208  0.251  0.426- 224 2.59  80 2.61  79 2.61
 297  0.375  0.251  0.426- 225 2.59  81 2.61  80 2.61
 298  0.542  0.251  0.426- 226 2.59  82 2.61  81 2.61
 299  0.708  0.251  0.426- 227 2.59  83 2.61  82 2.61
 300  0.875  0.251  0.426- 228 2.59  84 2.61  83 2.61
 301  0.042  0.417  0.426- 229 2.59  85 2.61  90 2.61
 302  0.208  0.417  0.426- 230 2.59  86 2.61  85 2.61
 303  0.375  0.417  0.426- 231 2.59  87 2.61  86 2.61
 304  0.542  0.417  0.426- 232 2.59  88 2.61  87 2.61
 305  0.708  0.417  0.426- 233 2.59  89 2.61  88 2.61
 306  0.875  0.417  0.426- 234 2.59  90 2.61  89 2.61
 307  0.042  0.584  0.426- 235 2.59  91 2.61  96 2.61
 308  0.208  0.584  0.426- 236 2.59  92 2.61  91 2.61
 309  0.375  0.584  0.426- 237 2.59  93 2.61  92 2.61
 310  0.542  0.584  0.426- 238 2.59  94 2.61  93 2.61
 311  0.708  0.584  0.426- 239 2.59  95 2.61  94 2.61
 312  0.875  0.584  0.426- 240 2.59  96 2.61  95 2.61
 313  0.042  0.751  0.426- 241 2.59  97 2.61 102 2.61
 314  0.208  0.751  0.426- 242 2.59  98 2.61  97 2.61
 315  0.375  0.751  0.426- 243 2.59  99 2.61  98 2.61
 316  0.542  0.751  0.426- 244 2.59 100 2.61  99 2.61
 317  0.708  0.751  0.426- 245 2.59 101 2.61 100 2.61
 318  0.875  0.751  0.426- 246 2.59 102 2.61 101 2.61
 319  0.042  0.917  0.426- 247 2.59 103 2.61 108 2.61
 320  0.208  0.917  0.426- 248 2.59 104 2.61 103 2.61
 321  0.375  0.917  0.426- 249 2.59 105 2.61 104 2.61
 322  0.542  0.917  0.426- 250 2.59 106 2.61 105 2.61
 323  0.708  0.917  0.426- 251 2.59 107 2.61 106 2.61
 324  0.875  0.917  0.426- 252 2.59 108 2.61 107 2.61
 325  0.042  0.084  0.926- 253 2.59 109 2.61 114 2.61
 326  0.208  0.084  0.926- 254 2.59 110 2.61 109 2.61
 327  0.375  0.084  0.926- 255 2.59 111 2.61 110 2.61
 328  0.542  0.084  0.926- 256 2.59 112 2.61 111 2.61
 329  0.708  0.084  0.926- 257 2.59 113 2.61 112 2.61
 330  0.875  0.084  0.926- 258 2.59 114 2.61 113 2.61
 331  0.042  0.251  0.926- 259 2.59 115 2.61 120 2.61
 332  0.208  0.251  0.926- 260 2.59 116 2.61 115 2.61
 333  0.375  0.251  0.926- 261 2.59 117 2.61 116 2.61
 334  0.542  0.251  0.926- 262 2.59 118 2.61 117 2.61
 335  0.708  0.251  0.926- 263 2.59 119 2.61 118 2.61
 336  0.875  0.251  0.926- 264 2.59 120 2.61 119 2.61
 337  0.042  0.417  0.926- 265 2.59 121 2.61 126 2.61
 338  0.208  0.417  0.926- 266 2.59 122 2.61 121 2.61
 339  0.375  0.417  0.926- 267 2.59 123 2.61 122 2.61
 340  0.542  0.417  0.926- 268 2.59 124 2.61 123 2.61
 341  0.708  0.417  0.926- 269 2.59 125 2.61 124 2.61
 342  0.875  0.417  0.926- 270 2.59 126 2.61 125 2.61
 343  0.042  0.584  0.926- 271 2.59 127 2.61 132 2.61
 344  0.208  0.584  0.926- 272 2.59 128 2.61 127 2.61
 345  0.375  0.584  0.926- 273 2.59 129 2.61 128 2.61
 346  0.542  0.584  0.926- 274 2.59 130 2.61 129 2.61
 347  0.708  0.584  0.926- 275 2.59 131 2.61 130 2.61
 348  0.875  0.584  0.926- 276 2.59 132 2.61 131 2.61
 349  0.042  0.751  0.926- 277 2.59 133 2.61 138 2.61
 350  0.208  0.751  0.926- 278 2.59 134 2.61 133 2.61
 351  0.375  0.751  0.926- 279 2.59 135 2.61 134 2.61
 352  0.542  0.751  0.926- 280 2.59 136 2.61 135 2.61
 353  0.708  0.751  0.926- 281 2.59 137 2.61 136 2.61
 354  0.875  0.751  0.926- 282 2.59 138 2.61 137 2.61
 355  0.042  0.917  0.926- 283 2.59 139 2.61 144 2.61
 356  0.208  0.917  0.926- 284 2.59 140 2.61 139 2.61
 357  0.375  0.917  0.926- 285 2.59 141 2.61 140 2.61
 358  0.542  0.917  0.926- 286 2.59 142 2.61 141 2.61
 359  0.708  0.917  0.926- 287 2.59 143 2.61 142 2.61
 360  0.875  0.917  0.926- 288 2.59 144 2.61 143 2.61
 361  0.125  0.083  0.074- 145 2.59   2 2.61   1 2.61
 362  0.292  0.083  0.074- 146 2.59   2 2.61   3 2.61
 363  0.458  0.083  0.074- 147 2.59   3 2.61   4 2.61
 364  0.625  0.083  0.074- 148 2.59   4 2.61   5 2.61
 365  0.792  0.083  0.074- 149 2.59   5 2.61   6 2.61
 366  0.958  0.083  0.074- 150 2.59   6 2.61   1 2.61
 367  0.125  0.249  0.074- 151 2.59   7 2.61   8 2.61
 368  0.292  0.249  0.074- 152 2.59   8 2.61   9 2.61
 369  0.458  0.249  0.074- 153 2.59   9 2.61  10 2.61
 370  0.625  0.249  0.074- 154 2.59  10 2.61  11 2.61
 371  0.792  0.249  0.074- 155 2.59  11 2.61  12 2.61
 372  0.958  0.249  0.074- 156 2.59  12 2.61   7 2.61
 373  0.125  0.416  0.074- 157 2.59  13 2.61  14 2.61
 374  0.292  0.416  0.074- 158 2.59  14 2.61  15 2.61
 375  0.458  0.416  0.074- 159 2.59  15 2.61  16 2.61
 376  0.625  0.416  0.074- 160 2.59  16 2.61  17 2.61
 377  0.792  0.416  0.074- 161 2.59  17 2.61  18 2.61
 378  0.958  0.416  0.074- 162 2.59  18 2.61  13 2.61
 379  0.125  0.583  0.074- 163 2.59  19 2.61  20 2.61
 380  0.292  0.583  0.074- 164 2.59  20 2.61  21 2.61
 381  0.458  0.583  0.074- 165 2.59  21 2.61  22 2.61
 382  0.625  0.583  0.074- 166 2.59  22 2.61  23 2.61
 383  0.792  0.583  0.074- 167 2.59  23 2.61  24 2.61
 384  0.958  0.583  0.074- 168 2.59  24 2.61  19 2.61
 385  0.125  0.749  0.074- 169 2.59  25 2.61  26 2.61
 386  0.292  0.749  0.074- 170 2.59  26 2.61  27 2.61
 387  0.458  0.749  0.074- 171 2.59  27 2.61  28 2.61
 388  0.625  0.749  0.074- 172 2.59  28 2.61  29 2.61
 389  0.792  0.749  0.074- 173 2.59  29 2.61  30 2.61
 390  0.958  0.749  0.074- 174 2.59  30 2.61  25 2.61
 391  0.125  0.916  0.074- 175 2.59  31 2.61  32 2.61
 392  0.292  0.916  0.074- 176 2.59  32 2.61  33 2.61
 393  0.458  0.916  0.074- 177 2.59  33 2.61  34 2.61
 394  0.625  0.916  0.074- 178 2.59  34 2.61  35 2.61
 395  0.792  0.916  0.074- 179 2.59  35 2.61  36 2.61
 396  0.958  0.916  0.074- 180 2.59  36 2.61  31 2.61
 397  0.125  0.083  0.574- 181 2.59  37 2.61  38 2.61
 398  0.292  0.083  0.574- 182 2.59  38 2.61  39 2.61
 399  0.458  0.083  0.574- 183 2.59  39 2.61  40 2.61
 400  0.625  0.083  0.574- 184 2.59  40 2.61  41 2.61
 401  0.792  0.083  0.574- 185 2.59  41 2.61  42 2.61
 402  0.958  0.083  0.574- 186 2.59  42 2.61  37 2.61
 403  0.125  0.249  0.574- 187 2.59  43 2.61  44 2.61
 404  0.292  0.249  0.574- 188 2.59  44 2.61  45 2.61
 405  0.458  0.249  0.574- 189 2.59  45 2.61  46 2.61
 406  0.625  0.249  0.574- 190 2.59  46 2.61  47 2.61
 407  0.792  0.249  0.574- 191 2.59  47 2.61  48 2.61
 408  0.958  0.249  0.574- 192 2.59  48 2.61  43 2.61
 409  0.125  0.416  0.574- 193 2.59  49 2.61  50 2.61
 410  0.292  0.416  0.574- 194 2.59  50 2.61  51 2.61
 411  0.458  0.416  0.574- 195 2.59  51 2.61  52 2.61
 412  0.625  0.416  0.574- 196 2.59  52 2.61  53 2.61
 413  0.792  0.416  0.574- 197 2.59  53 2.61  54 2.61
 414  0.958  0.416  0.574- 198 2.59  54 2.61  49 2.61
 415  0.125  0.583  0.574- 199 2.59  55 2.61  56 2.61
 416  0.292  0.583  0.574- 200 2.59  56 2.61  57 2.61
 417  0.458  0.583  0.574- 201 2.59  57 2.61  58 2.61
 418  0.625  0.583  0.574- 202 2.59  58 2.61  59 2.61
 419  0.792  0.583  0.574- 203 2.59  59 2.61  60 2.61
 420  0.958  0.583  0.574- 204 2.59  60 2.61  55 2.61
 421  0.125  0.749  0.574- 205 2.59  61 2.61  62 2.61
 422  0.292  0.749  0.574- 206 2.59  62 2.61  63 2.61
 423  0.458  0.749  0.574- 207 2.59  63 2.61  64 2.61
 424  0.625  0.749  0.574- 208 2.59  64 2.61  65 2.61
 425  0.792  0.749  0.574- 209 2.59  65 2.61  66 2.61
 426  0.958  0.749  0.574- 210 2.59  66 2.61  61 2.61
 427  0.125  0.916  0.574- 211 2.59  67 2.61  68 2.61
 428  0.292  0.916  0.574- 212 2.59  68 2.61  69 2.61
 429  0.458  0.916  0.574- 213 2.59  69 2.61  70 2.61
 430  0.625  0.916  0.574- 214 2.59  70 2.61  71 2.61
 431  0.792  0.916  0.574- 215 2.59  71 2.61  72 2.61
 432  0.958  0.916  0.574- 216 2.59  72 2.61  67 2.61
 433  0.125  0.001  0.324- 103 2.59 217 2.61 218 2.61
 434  0.292  0.001  0.324- 104 2.59 218 2.61 219 2.61
 435  0.458  0.001  0.324- 105 2.59 219 2.61 220 2.61
 436  0.625  0.001  0.324- 106 2.59 220 2.61 221 2.61
 437  0.792  0.001  0.324- 107 2.59 221 2.61 222 2.61
 438  0.958  0.001  0.324- 108 2.59 222 2.61 217 2.61
 439  0.125  0.167  0.324-  73 2.59 223 2.61 224 2.61
 440  0.292  0.167  0.324-  74 2.59 224 2.61 225 2.61
 441  0.458  0.167  0.324-  75 2.59 225 2.61 226 2.61
 442  0.625  0.167  0.324-  76 2.59 226 2.61 227 2.61
 443  0.792  0.167  0.324-  77 2.59 227 2.61 228 2.61
 444  0.958  0.167  0.324-  78 2.59 228 2.61 223 2.61
 445  0.125  0.334  0.324-  79 2.59 229 2.61 230 2.61
 446  0.292  0.334  0.324-  80 2.59 230 2.61 231 2.61
 447  0.458  0.334  0.324-  81 2.59 231 2.61 232 2.61
 448  0.625  0.334  0.324-  82 2.59 232 2.61 233 2.61
 449  0.792  0.334  0.324-  83 2.59 233 2.61 234 2.61
 450  0.958  0.334  0.324-  84 2.59 234 2.61 229 2.61
 451  0.125  0.501  0.324-  85 2.59 235 2.61 236 2.61
 452  0.292  0.501  0.324-  86 2.59 236 2.61 237 2.61
 453  0.458  0.501  0.324-  87 2.59 237 2.61 238 2.61
 454  0.625  0.501  0.324-  88 2.59 238 2.61 239 2.61
 455  0.792  0.501  0.324-  89 2.59 239 2.61 240 2.61
 456  0.958  0.501  0.324-  90 2.59 240 2.61 235 2.61
 457  0.125  0.667  0.324-  91 2.59 241 2.61 242 2.61
 458  0.292  0.667  0.324-  92 2.59 242 2.61 243 2.61
 459  0.458  0.667  0.324-  93 2.59 243 2.61 244 2.61
 460  0.625  0.667  0.324-  94 2.59 244 2.61 245 2.61
 461  0.792  0.667  0.324-  95 2.59 245 2.61 246 2.61
 462  0.958  0.667  0.324-  96 2.59 246 2.61 241 2.61
 463  0.125  0.834  0.324-  97 2.59 247 2.61 248 2.61
 464  0.292  0.834  0.324-  98 2.59 248 2.61 249 2.61
 465  0.458  0.834  0.324-  99 2.59 249 2.61 250 2.61
 466  0.625  0.834  0.324- 100 2.59 250 2.61 251 2.61
 467  0.792  0.834  0.324- 101 2.59 251 2.61 252 2.61
 468  0.958  0.834  0.324- 102 2.59 252 2.61 247 2.61
 469  0.125  0.001  0.824- 139 2.59 253 2.61 254 2.61
 470  0.292  0.001  0.824- 140 2.59 254 2.61 255 2.61
 471  0.458  0.001  0.824- 141 2.59 255 2.61 256 2.61
 472  0.625  0.001  0.824- 142 2.59 256 2.61 257 2.61
 473  0.792  0.001  0.824- 143 2.59 257 2.61 258 2.61
 474  0.958  0.001  0.824- 144 2.59 258 2.61 253 2.61
 475  0.125  0.167  0.824- 109 2.59 259 2.61 260 2.61
 476  0.292  0.167  0.824- 110 2.59 260 2.61 261 2.61
 477  0.458  0.167  0.824- 111 2.59 261 2.61 262 2.61
 478  0.625  0.167  0.824- 112 2.59 262 2.61 263 2.61
 479  0.792  0.167  0.824- 113 2.59 263 2.61 264 2.61
 480  0.958  0.167  0.824- 114 2.59 264 2.61 259 2.61
 481  0.125  0.334  0.824- 115 2.59 265 2.61 266 2.61
 482  0.292  0.334  0.824- 116 2.59 266 2.61 267 2.61
 483  0.458  0.334  0.824- 117 2.59 267 2.61 268 2.61
 484  0.625  0.334  0.824- 118 2.59 268 2.61 269 2.61
 485  0.792  0.334  0.824- 119 2.59 269 2.61 270 2.61
 486  0.958  0.334  0.824- 120 2.59 270 2.61 265 2.61
 487  0.125  0.501  0.824- 121 2.59 271 2.61 272 2.61
 488  0.292  0.501  0.824- 122 2.59 272 2.61 273 2.61
 489  0.458  0.501  0.824- 123 2.59 273 2.61 274 2.61
 490  0.625  0.501  0.824- 124 2.59 274 2.61 275 2.61
 491  0.792  0.501  0.824- 125 2.59 275 2.61 276 2.61
 492  0.958  0.501  0.824- 126 2.59 276 2.61 271 2.61
 493  0.125  0.667  0.824- 127 2.59 277 2.61 278 2.61
 494  0.292  0.667  0.824- 128 2.59 278 2.61 279 2.61
 495  0.458  0.667  0.824- 129 2.59 279 2.61 280 2.61
 496  0.625  0.667  0.824- 130 2.59 280 2.61 281 2.61
 497  0.792  0.667  0.824- 131 2.59 281 2.61 282 2.61
 498  0.958  0.667  0.824- 132 2.59 282 2.61 277 2.61
 499  0.125  0.834  0.824- 133 2.59 283 2.61 284 2.61
 500  0.292  0.834  0.824- 134 2.59 284 2.61 285 2.61
 501  0.458  0.834  0.824- 135 2.59 285 2.61 286 2.61
 502  0.625  0.834  0.824- 136 2.59 286 2.61 287 2.61
 503  0.792  0.834  0.824- 137 2.59 287 2.61 288 2.61
 504  0.958  0.834  0.824- 138 2.59 288 2.61 283 2.61
 505  0.042  0.166  0.176-   7 2.59 145 2.61 150 2.61
 506  0.208  0.166  0.176-   8 2.59 146 2.61 145 2.61
 507  0.375  0.166  0.176-   9 2.59 147 2.61 146 2.61
 508  0.542  0.166  0.176-  10 2.59 148 2.61 147 2.61
 509  0.708  0.166  0.176-  11 2.59 149 2.61 148 2.61
 510  0.875  0.166  0.176-  12 2.59 150 2.61 149 2.61
 511  0.042  0.333  0.176-  13 2.59 151 2.61 156 2.61
 512  0.208  0.333  0.176-  14 2.59 152 2.61 151 2.61
 513  0.375  0.333  0.176-  15 2.59 153 2.61 152 2.61
 514  0.542  0.333  0.176-  16 2.59 154 2.61 153 2.61
 515  0.708  0.333  0.176-  17 2.59 155 2.61 154 2.61
 516  0.875  0.333  0.176-  18 2.59 156 2.61 155 2.61
 517  0.042  0.499  0.176-  19 2.59 157 2.61 162 2.61
 518  0.208  0.499  0.176-  20 2.59 158 2.61 157 2.61
 519  0.375  0.499  0.176-  21 2.59 159 2.61 158 2.61
 520  0.542  0.499  0.176-  22 2.59 160 2.61 159 2.61
 521  0.708  0.499  0.176-  23 2.59 161 2.61 160 2.61
 522  0.875  0.499  0.176-  24 2.59 162 2.61 161 2.61
 523  0.042  0.666  0.176-  25 2.59 163 2.61 168 2.61
 524  0.208  0.666  0.176-  26 2.59 164 2.61 163 2.61
 525  0.375  0.666  0.176-  27 2.59 165 2.61 164 2.61
 526  0.542  0.666  0.176-  28 2.59 166 2.61 165 2.61
 527  0.708  0.666  0.176-  29 2.59 167 2.61 166 2.61
 528  0.875  0.666  0.176-  30 2.59 168 2.61 167 2.61
 529  0.042  0.833  0.176-  31 2.59 169 2.61 174 2.61
 530  0.208  0.833  0.176-  32 2.59 170 2.61 169 2.61
 531  0.375  0.833  0.176-  33 2.59 171 2.61 170 2.61
 532  0.542  0.833  0.176-  34 2.59 172 2.61 171 2.61
 533  0.708  0.833  0.176-  35 2.59 173 2.61 172 2.61
 534  0.875  0.833  0.176-  36 2.59 174 2.61 173 2.61
 535  0.042  0.999  0.176-   1 2.60 175 2.61 180 2.61
 536  0.208  0.999  0.176-   2 2.59 176 2.61 175 2.61
 537  0.375  0.999  0.176-   3 2.59 177 2.61 176 2.61
 538  0.542  0.999  0.176-   4 2.59 178 2.61 177 2.61
 539  0.708  0.999  0.176-   5 2.59 179 2.61 178 2.61
 540  0.875  0.999  0.176-   6 2.59 180 2.61 179 2.61
 541  0.042  0.166  0.676-  43 2.59 181 2.61 186 2.61
 542  0.208  0.166  0.676-  44 2.59 182 2.61 181 2.61
 543  0.375  0.166  0.676-  45 2.59 183 2.61 182 2.61
 544  0.542  0.166  0.676-  46 2.59 184 2.61 183 2.61
 545  0.708  0.166  0.676-  47 2.59 185 2.61 184 2.61
 546  0.875  0.166  0.676-  48 2.59 186 2.61 185 2.61
 547  0.042  0.333  0.676-  49 2.59 187 2.61 192 2.61
 548  0.208  0.333  0.676-  50 2.59 188 2.61 187 2.61
 549  0.375  0.333  0.676-  51 2.59 189 2.61 188 2.61
 550  0.542  0.333  0.676-  52 2.59 190 2.61 189 2.61
 551  0.708  0.333  0.676-  53 2.59 191 2.61 190 2.61
 552  0.875  0.333  0.676-  54 2.59 192 2.61 191 2.61
 553  0.042  0.499  0.676-  55 2.59 193 2.61 198 2.61
 554  0.208  0.499  0.676-  56 2.59 194 2.61 193 2.61
 555  0.375  0.499  0.676-  57 2.59 195 2.61 194 2.61
 556  0.542  0.499  0.676-  58 2.59 196 2.61 195 2.61
 557  0.708  0.499  0.676-  59 2.59 197 2.61 196 2.61
 558  0.875  0.499  0.676-  60 2.59 198 2.61 197 2.61
 559  0.042  0.666  0.676-  61 2.59 199 2.61 204 2.61
 560  0.208  0.666  0.676-  62 2.59 200 2.61 199 2.61
 561  0.375  0.666  0.676-  63 2.59 201 2.61 200 2.61
 562  0.542  0.666  0.676-  64 2.59 202 2.61 201 2.61
 563  0.708  0.666  0.676-  65 2.59 203 2.61 202 2.61
 564  0.875  0.666  0.676-  66 2.59 204 2.61 203 2.61
 565  0.042  0.833  0.676-  67 2.59 205 2.61 210 2.61
 566  0.208  0.833  0.676-  68 2.59 206 2.61 205 2.61
 567  0.375  0.833  0.676-  69 2.59 207 2.61 206 2.61
 568  0.542  0.833  0.676-  70 2.59 208 2.61 207 2.61
 569  0.708  0.833  0.676-  71 2.59 209 2.61 208 2.61
 570  0.875  0.833  0.676-  72 2.59 210 2.61 209 2.61
 571  0.042  0.999  0.676-  37 2.59 211 2.61 216 2.61
 572  0.208  0.999  0.676-  38 2.59 212 2.61 211 2.61
 573  0.375  0.999  0.676-  39 2.59 213 2.61 212 2.61
 574  0.542  0.999  0.676-  40 2.59 214 2.61 213 2.61
 575  0.708  0.999  0.676-  41 2.59 215 2.61 214 2.61
 576  0.875  0.999  0.676-  42 2.59 216 2.61 215 2.61
 
  LATTYP: Found a simple orthorhombic cell.
 ALAT       =    22.3190494963
 B/A-ratio  =     1.0441241067
 C/A-ratio  =     1.2250346344
  
  Lattice vectors:
  
 A1 = (   0.0000000000,   0.0000000000,  22.3190494963)
 A2 = (  23.3038576169,   0.0000000000,   0.0000000000)
 A3 = (   0.0000000000,  27.3416086400,   0.0000000000)


Analysis of symmetry for initial positions (statically):
=====================================================================
 Subroutine PRICEL returns:
 Original cell was already a primitive cell.
 

 Routine SETGRP: Setting up the symmetry group for a 
 simple orthorhombic supercell.


 Subroutine GETGRP returns: Found  2 space group operations
 (whereof  1 operations were pure point group operations)
 out of a pool of  8 trial point group operations.


The static configuration has the point symmetry C_1 .
 The point group associated with its full space group is C_1h.


Analysis of symmetry for dynamics (positions and initial velocities):
=====================================================================
 Subroutine PRICEL returns:
 Original cell was already a primitive cell.
 

 Routine SETGRP: Setting up the symmetry group for a 
 simple orthorhombic supercell.


 Subroutine GETGRP returns: Found  2 space group operations
 (whereof  1 operations were pure point group operations)
 out of a pool of  8 trial point group operations.


The dynamic configuration has the point symmetry C_1 .
 The point group associated with its full space group is C_1h.


Analysis of structural, dynamic, and magnetic symmetry:
=====================================================================
 Subroutine PRICEL returns:
 Original cell was already a primitive cell.
 

 Routine SETGRP: Setting up the symmetry group for a 
 simple orthorhombic supercell.


 Subroutine GETGRP returns: Found  2 space group operations
 (whereof  1 operations were pure point group operations)
 out of a pool of  8 trial point group operations.


The overall configuration has the point symmetry C_1 .
 The point group associated with its full space group is C_1h.


 Subroutine INISYM returns: Found  2 space group operations
 (whereof  1 operations are pure point group operations),
 and found     1 'primitive' translations


----------------------------------------------------------------------------------------

                                     Primitive cell                                     

  volume of cell :   14220.9162

  direct lattice vectors                    reciprocal lattice vectors
    23.303857617  0.000000000  0.000000000     0.042911350  0.000000000  0.000000000
     0.000000000 27.341608640  0.000000000     0.000000000  0.036574293  0.000000000
     0.000000000  0.000000000 22.319049496     0.000000000  0.000000000  0.044804775

  length of vectors
    23.303857617 27.341608640 22.319049496     0.042911350  0.036574293  0.044804775

  position of ions in fractional coordinates (direct lattice)
     0.041666667  0.019596146  0.062240372
     0.208333333  0.019596146  0.062688420
     0.375000000  0.019596146  0.062688420
     0.541666667  0.019596146  0.062688420
     0.708333333  0.019596146  0.062688420
     0.875000000  0.019596146  0.062688420
     0.041666667  0.186262813  0.062688420
     0.208333333  0.186262813  0.062688420
     0.375000000  0.186262813  0.062688420
     0.541666667  0.186262813  0.062688420
     0.708333333  0.186262813  0.062688420
     0.875000000  0.186262813  0.062688420
     0.041666667  0.352929480  0.062688420
     0.208333333  0.352929480  0.062688420
     0.375000000  0.352929480  0.062688420
     0.541666667  0.352929480  0.062688420
     0.708333333  0.352929480  0.062688420
     0.875000000  0.352929480  0.062688420
     0.041666667  0.519596146  0.062688420
     0.208333333  0.519596146  0.062688420
     0.375000000  0.519596146  0.062688420
     0.541666667  0.519596146  0.062688420
     0.708333333  0.519596146  0.062688420
     0.875000000  0.519596146  0.062688420
     0.041666667  0.686262813  0.062688420
     0.208333333  0.686262813  0.062688420
     0.375000000  0.686262813  0.062688420
     0.541666667  0.686262813  0.062688420
     0.708333333  0.686262813  0.062688420
     0.875000000  0.686262813  0.062688420
     0.041666667  0.852929480  0.062688420
     0.208333333  0.852929480  0.062688420
     0.375000000  0.852929480  0.062688420
     0.541666667  0.852929480  0.062688420
     0.708333333  0.852929480  0.062688420
     0.875000000  0.852929480  0.062688420
     0.041666667  0.019596146  0.562688420
     0.208333333  0.019596146  0.562688420
     0.375000000  0.019596146  0.562688420
     0.541666667  0.019596146  0.562688420
     0.708333333  0.019596146  0.562688420
     0.875000000  0.019596146  0.562688420
     0.041666667  0.186262813  0.562688420
     0.208333333  0.186262813  0.562688420
     0.375000000  0.186262813  0.562688420
     0.541666667  0.186262813  0.562688420
     0.708333333  0.186262813  0.562688420
     0.875000000  0.186262813  0.562688420
     0.041666667  0.352929480  0.562688420
     0.208333333  0.352929480  0.562688420
     0.375000000  0.352929480  0.562688420
     0.541666667  0.352929480  0.562688420
     0.708333333  0.352929480  0.562688420
     0.875000000  0.352929480  0.562688420
     0.041666667  0.519596146  0.562688420
     0.208333333  0.519596146  0.562688420
     0.375000000  0.519596146  0.562688420
     0.541666667  0.519596146  0.562688420
     0.708333333  0.519596146  0.562688420
     0.875000000  0.519596146  0.562688420
     0.041666667  0.686262813  0.562688420
     0.208333333  0.686262813  0.562688420
     0.375000000  0.686262813  0.562688420
     0.541666667  0.686262813  0.562688420
     0.708333333  0.686262813  0.562688420
     0.875000000  0.686262813  0.562688420
     0.041666667  0.852929480  0.562688420
     0.208333333  0.852929480  0.562688420
     0.375000000  0.852929480  0.562688420
     0.541666667  0.852929480  0.562688420
     0.708333333  0.852929480  0.562688420
     0.875000000  0.852929480  0.562688420
     0.125000000  0.147070524  0.437311573
     0.291666667  0.147070524  0.437311573
     0.458333333  0.147070524  0.437311573
     0.625000000  0.147070524  0.437311573
     0.791666667  0.147070524  0.437311573
     0.958333333  0.147070524  0.437311573
     0.125000000  0.313737191  0.437311573
     0.291666667  0.313737191  0.437311573
     0.458333333  0.313737191  0.437311573
     0.625000000  0.313737191  0.437311573
     0.791666667  0.313737191  0.437311573
     0.958333333  0.313737191  0.437311573
     0.125000000  0.480403857  0.437311573
     0.291666667  0.480403857  0.437311573
     0.458333333  0.480403857  0.437311573
     0.625000000  0.480403857  0.437311573
     0.791666667  0.480403857  0.437311573
     0.958333333  0.480403857  0.437311573
     0.125000000  0.647070524  0.437311573
     0.291666667  0.647070524  0.437311573
     0.458333333  0.647070524  0.437311573
     0.625000000  0.647070524  0.437311573
     0.791666667  0.647070524  0.437311573
     0.958333333  0.647070524  0.437311573
     0.125000000  0.813737191  0.437311573
     0.291666667  0.813737191  0.437311573
     0.458333333  0.813737191  0.437311573
     0.625000000  0.813737191  0.437311573
     0.791666667  0.813737191  0.437311573
     0.958333333  0.813737191  0.437311573
     0.125000000  0.980403857  0.437311573
     0.291666667  0.980403857  0.437311573
     0.458333333  0.980403857  0.437311573
     0.625000000  0.980403857  0.437311573
     0.791666667  0.980403857  0.437311573
     0.958333333  0.980403857  0.437311573
     0.125000000  0.147070524  0.937311573
     0.291666667  0.147070524  0.937311573
     0.458333333  0.147070524  0.937311573
     0.625000000  0.147070524  0.937311573
     0.791666667  0.147070524  0.937311573
     0.958333333  0.147070524  0.937311573
     0.125000000  0.313737191  0.937311573
     0.291666667  0.313737191  0.937311573
     0.458333333  0.313737191  0.937311573
     0.625000000  0.313737191  0.937311573
     0.791666667  0.313737191  0.937311573
     0.958333333  0.313737191  0.937311573
     0.125000000  0.480403857  0.937311573
     0.291666667  0.480403857  0.937311573
     0.458333333  0.480403857  0.937311573
     0.625000000  0.480403857  0.937311573
     0.791666667  0.480403857  0.937311573
     0.958333333  0.480403857  0.937311573
     0.125000000  0.647070524  0.937311573
     0.291666667  0.647070524  0.937311573
     0.458333333  0.647070524  0.937311573
     0.625000000  0.647070524  0.937311573
     0.791666667  0.647070524  0.937311573
     0.958333333  0.647070524  0.937311573
     0.125000000  0.813737191  0.937311573
     0.291666667  0.813737191  0.937311573
     0.458333333  0.813737191  0.937311573
     0.625000000  0.813737191  0.937311573
     0.791666667  0.813737191  0.937311573
     0.958333333  0.813737191  0.937311573
     0.125000000  0.980403857  0.937311573
     0.291666667  0.980403857  0.937311573
     0.458333333  0.980403857  0.937311573
     0.625000000  0.980403857  0.937311573
     0.791666667  0.980403857  0.937311573
     0.958333333  0.980403857  0.937311573
     0.125000000  0.102929476  0.187311573
     0.291666667  0.102929476  0.187311573
     0.458333333  0.102929476  0.187311573
     0.625000000  0.102929476  0.187311573
     0.791666667  0.102929476  0.187311573
     0.958333333  0.102929476  0.187311573
     0.125000000  0.269596143  0.187311573
     0.291666667  0.269596143  0.187311573
     0.458333333  0.269596143  0.187311573
     0.625000000  0.269596143  0.187311573
     0.791666667  0.269596143  0.187311573
     0.958333333  0.269596143  0.187311573
     0.125000000  0.436262809  0.187311573
     0.291666667  0.436262809  0.187311573
     0.458333333  0.436262809  0.187311573
     0.625000000  0.436262809  0.187311573
     0.791666667  0.436262809  0.187311573
     0.958333333  0.436262809  0.187311573
     0.125000000  0.602929476  0.187311573
     0.291666667  0.602929476  0.187311573
     0.458333333  0.602929476  0.187311573
     0.625000000  0.602929476  0.187311573
     0.791666667  0.602929476  0.187311573
     0.958333333  0.602929476  0.187311573
     0.125000000  0.769596143  0.187311573
     0.291666667  0.769596143  0.187311573
     0.458333333  0.769596143  0.187311573
     0.625000000  0.769596143  0.187311573
     0.791666667  0.769596143  0.187311573
     0.958333333  0.769596143  0.187311573
     0.125000000  0.936262809  0.187311573
     0.291666667  0.936262809  0.187311573
     0.458333333  0.936262809  0.187311573
     0.625000000  0.936262809  0.187311573
     0.791666667  0.936262809  0.187311573
     0.958333333  0.936262809  0.187311573
     0.125000000  0.102929476  0.687311573
     0.291666667  0.102929476  0.687311573
     0.458333333  0.102929476  0.687311573
     0.625000000  0.102929476  0.687311573
     0.791666667  0.102929476  0.687311573
     0.958333333  0.102929476  0.687311573
     0.125000000  0.269596143  0.687311573
     0.291666667  0.269596143  0.687311573
     0.458333333  0.269596143  0.687311573
     0.625000000  0.269596143  0.687311573
     0.791666667  0.269596143  0.687311573
     0.958333333  0.269596143  0.687311573
     0.125000000  0.436262809  0.687311573
     0.291666667  0.436262809  0.687311573
     0.458333333  0.436262809  0.687311573
     0.625000000  0.436262809  0.687311573
     0.791666667  0.436262809  0.687311573
     0.958333333  0.436262809  0.687311573
     0.125000000  0.602929476  0.687311573
     0.291666667  0.602929476  0.687311573
     0.458333333  0.602929476  0.687311573
     0.625000000  0.602929476  0.687311573
     0.791666667  0.602929476  0.687311573
     0.958333333  0.602929476  0.687311573
     0.125000000  0.769596143  0.687311573
     0.291666667  0.769596143  0.687311573
     0.458333333  0.769596143  0.687311573
     0.625000000  0.769596143  0.687311573
     0.791666667  0.769596143  0.687311573
     0.958333333  0.769596143  0.687311573
     0.125000000  0.936262809  0.687311573
     0.291666667  0.936262809  0.687311573
     0.458333333  0.936262809  0.687311573
     0.625000000  0.936262809  0.687311573
     0.791666667  0.936262809  0.687311573
     0.958333333  0.936262809  0.687311573
     0.041666667  0.063737186  0.312688427
     0.208333333  0.063737186  0.312688427
     0.375000000  0.063737186  0.312688427
     0.541666667  0.063737186  0.312688427
     0.708333333  0.063737186  0.312688427
     0.875000000  0.063737186  0.312688427
     0.041666667  0.230403852  0.312688427
     0.208333333  0.230403852  0.312688427
     0.375000000  0.230403852  0.312688427
     0.541666667  0.230403852  0.312688427
     0.708333333  0.230403852  0.312688427
     0.875000000  0.230403852  0.312688427
     0.041666667  0.397070519  0.312688427
     0.208333333  0.397070519  0.312688427
     0.375000000  0.397070519  0.312688427
     0.541666667  0.397070519  0.312688427
     0.708333333  0.397070519  0.312688427
     0.875000000  0.397070519  0.312688427
     0.041666667  0.563737186  0.312688427
     0.208333333  0.563737186  0.312688427
     0.375000000  0.563737186  0.312688427
     0.541666667  0.563737186  0.312688427
     0.708333333  0.563737186  0.312688427
     0.875000000  0.563737186  0.312688427
     0.041666667  0.730403852  0.312688427
     0.208333333  0.730403852  0.312688427
     0.375000000  0.730403852  0.312688427
     0.541666667  0.730403852  0.312688427
     0.708333333  0.730403852  0.312688427
     0.875000000  0.730403852  0.312688427
     0.041666667  0.897070519  0.312688427
     0.208333333  0.897070519  0.312688427
     0.375000000  0.897070519  0.312688427
     0.541666667  0.897070519  0.312688427
     0.708333333  0.897070519  0.312688427
     0.875000000  0.897070519  0.312688427
     0.041666667  0.063737186  0.812688427
     0.208333333  0.063737186  0.812688427
     0.375000000  0.063737186  0.812688427
     0.541666667  0.063737186  0.812688427
     0.708333333  0.063737186  0.812688427
     0.875000000  0.063737186  0.812688427
     0.041666667  0.230403852  0.812688427
     0.208333333  0.230403852  0.812688427
     0.375000000  0.230403852  0.812688427
     0.541666667  0.230403852  0.812688427
     0.708333333  0.230403852  0.812688427
     0.875000000  0.230403852  0.812688427
     0.041666667  0.397070519  0.812688427
     0.208333333  0.397070519  0.812688427
     0.375000000  0.397070519  0.812688427
     0.541666667  0.397070519  0.812688427
     0.708333333  0.397070519  0.812688427
     0.875000000  0.397070519  0.812688427
     0.041666667  0.563737186  0.812688427
     0.208333333  0.563737186  0.812688427
     0.375000000  0.563737186  0.812688427
     0.541666667  0.563737186  0.812688427
     0.708333333  0.563737186  0.812688427
     0.875000000  0.563737186  0.812688427
     0.041666667  0.730403852  0.812688427
     0.208333333  0.730403852  0.812688427
     0.375000000  0.730403852  0.812688427
     0.541666667  0.730403852  0.812688427
     0.708333333  0.730403852  0.812688427
     0.875000000  0.730403852  0.812688427
     0.041666667  0.897070519  0.812688427
     0.208333333  0.897070519  0.812688427
     0.375000000  0.897070519  0.812688427
     0.541666667  0.897070519  0.812688427
     0.708333333  0.897070519  0.812688427
     0.875000000  0.897070519  0.812688427
     0.041666667  0.084028598  0.426138669
     0.208333333  0.084028598  0.426138669
     0.375000000  0.084028598  0.426138669
     0.541666667  0.084028598  0.426138669
     0.708333333  0.084028598  0.426138669
     0.875000000  0.084028598  0.426138669
     0.041666667  0.250695264  0.426138669
     0.208333333  0.250695264  0.426138669
     0.375000000  0.250695264  0.426138669
     0.541666667  0.250695264  0.426138669
     0.708333333  0.250695264  0.426138669
     0.875000000  0.250695264  0.426138669
     0.041666667  0.417361931  0.426138669
     0.208333333  0.417361931  0.426138669
     0.375000000  0.417361931  0.426138669
     0.541666667  0.417361931  0.426138669
     0.708333333  0.417361931  0.426138669
     0.875000000  0.417361931  0.426138669
     0.041666667  0.584028598  0.426138669
     0.208333333  0.584028598  0.426138669
     0.375000000  0.584028598  0.426138669
     0.541666667  0.584028598  0.426138669
     0.708333333  0.584028598  0.426138669
     0.875000000  0.584028598  0.426138669
     0.041666667  0.750695264  0.426138669
     0.208333333  0.750695264  0.426138669
     0.375000000  0.750695264  0.426138669
     0.541666667  0.750695264  0.426138669
     0.708333333  0.750695264  0.426138669
     0.875000000  0.750695264  0.426138669
     0.041666667  0.917361931  0.426138669
     0.208333333  0.917361931  0.426138669
     0.375000000  0.917361931  0.426138669
     0.541666667  0.917361931  0.426138669
     0.708333333  0.917361931  0.426138669
     0.875000000  0.917361931  0.426138669
     0.041666667  0.084028598  0.926138669
     0.208333333  0.084028598  0.926138669
     0.375000000  0.084028598  0.926138669
     0.541666667  0.084028598  0.926138669
     0.708333333  0.084028598  0.926138669
     0.875000000  0.084028598  0.926138669
     0.041666667  0.250695264  0.926138669
     0.208333333  0.250695264  0.926138669
     0.375000000  0.250695264  0.926138669
     0.541666667  0.250695264  0.926138669
     0.708333333  0.250695264  0.926138669
     0.875000000  0.250695264  0.926138669
     0.041666667  0.417361931  0.926138669
     0.208333333  0.417361931  0.926138669
     0.375000000  0.417361931  0.926138669
     0.541666667  0.417361931  0.926138669
     0.708333333  0.417361931  0.926138669
     0.875000000  0.417361931  0.926138669
     0.041666667  0.584028598  0.926138669
     0.208333333  0.584028598  0.926138669
     0.375000000  0.584028598  0.926138669
     0.541666667  0.584028598  0.926138669
     0.708333333  0.584028598  0.926138669
     0.875000000  0.584028598  0.926138669
     0.041666667  0.750695264  0.926138669
     0.208333333  0.750695264  0.926138669
     0.375000000  0.750695264  0.926138669
     0.541666667  0.750695264  0.926138669
     0.708333333  0.750695264  0.926138669
     0.875000000  0.750695264  0.926138669
     0.041666667  0.917361931  0.926138669
     0.208333333  0.917361931  0.926138669
     0.375000000  0.917361931  0.926138669
     0.541666667  0.917361931  0.926138669
     0.708333333  0.917361931  0.926138669
     0.875000000  0.917361931  0.926138669
     0.125000000  0.082638064  0.073861316
     0.291666667  0.082638064  0.073861316
     0.458333333  0.082638064  0.073861316
     0.625000000  0.082638064  0.073861316
     0.791666667  0.082638064  0.073861316
     0.958333333  0.082638064  0.073861316
     0.125000000  0.249304731  0.073861316
     0.291666667  0.249304731  0.073861316
     0.458333333  0.249304731  0.073861316
     0.625000000  0.249304731  0.073861316
     0.791666667  0.249304731  0.073861316
     0.958333333  0.249304731  0.073861316
     0.125000000  0.415971397  0.073861316
     0.291666667  0.415971397  0.073861316
     0.458333333  0.415971397  0.073861316
     0.625000000  0.415971397  0.073861316
     0.791666667  0.415971397  0.073861316
     0.958333333  0.415971397  0.073861316
     0.125000000  0.582638064  0.073861316
     0.291666667  0.582638064  0.073861316
     0.458333333  0.582638064  0.073861316
     0.625000000  0.582638064  0.073861316
     0.791666667  0.582638064  0.073861316
     0.958333333  0.582638064  0.073861316
     0.125000000  0.749304731  0.073861316
     0.291666667  0.749304731  0.073861316
     0.458333333  0.749304731  0.073861316
     0.625000000  0.749304731  0.073861316
     0.791666667  0.749304731  0.073861316
     0.958333333  0.749304731  0.073861316
     0.125000000  0.915971397  0.073861316
     0.291666667  0.915971397  0.073861316
     0.458333333  0.915971397  0.073861316
     0.625000000  0.915971397  0.073861316
     0.791666667  0.915971397  0.073861316
     0.958333333  0.915971397  0.073861316
     0.125000000  0.082638064  0.573861316
     0.291666667  0.082638064  0.573861316
     0.458333333  0.082638064  0.573861316
     0.625000000  0.082638064  0.573861316
     0.791666667  0.082638064  0.573861316
     0.958333333  0.082638064  0.573861316
     0.125000000  0.249304731  0.573861316
     0.291666667  0.249304731  0.573861316
     0.458333333  0.249304731  0.573861316
     0.625000000  0.249304731  0.573861316
     0.791666667  0.249304731  0.573861316
     0.958333333  0.249304731  0.573861316
     0.125000000  0.415971397  0.573861316
     0.291666667  0.415971397  0.573861316
     0.458333333  0.415971397  0.573861316
     0.625000000  0.415971397  0.573861316
     0.791666667  0.415971397  0.573861316
     0.958333333  0.415971397  0.573861316
     0.125000000  0.582638064  0.573861316
     0.291666667  0.582638064  0.573861316
     0.458333333  0.582638064  0.573861316
     0.625000000  0.582638064  0.573861316
     0.791666667  0.582638064  0.573861316
     0.958333333  0.582638064  0.573861316
     0.125000000  0.749304731  0.573861316
     0.291666667  0.749304731  0.573861316
     0.458333333  0.749304731  0.573861316
     0.625000000  0.749304731  0.573861316
     0.791666667  0.749304731  0.573861316
     0.958333333  0.749304731  0.573861316
     0.125000000  0.915971397  0.573861316
     0.291666667  0.915971397  0.573861316
     0.458333333  0.915971397  0.573861316
     0.625000000  0.915971397  0.573861316
     0.791666667  0.915971397  0.573861316
     0.958333333  0.915971397  0.573861316
     0.125000000  0.000695268  0.323861331
     0.291666667  0.000695268  0.323861331
     0.458333333  0.000695268  0.323861331
     0.625000000  0.000695268  0.323861331
     0.791666667  0.000695268  0.323861331
     0.958333333  0.000695268  0.323861331
     0.125000000  0.167361934  0.323861331
     0.291666667  0.167361934  0.323861331
     0.458333333  0.167361934  0.323861331
     0.625000000  0.167361934  0.323861331
     0.791666667  0.167361934  0.323861331
     0.958333333  0.167361934  0.323861331
     0.125000000  0.334028601  0.323861331
     0.291666667  0.334028601  0.323861331
     0.458333333  0.334028601  0.323861331
     0.625000000  0.334028601  0.323861331
     0.791666667  0.334028601  0.323861331
     0.958333333  0.334028601  0.323861331
     0.125000000  0.500695268  0.323861331
     0.291666667  0.500695268  0.323861331
     0.458333333  0.500695268  0.323861331
     0.625000000  0.500695268  0.323861331
     0.791666667  0.500695268  0.323861331
     0.958333333  0.500695268  0.323861331
     0.125000000  0.667361934  0.323861331
     0.291666667  0.667361934  0.323861331
     0.458333333  0.667361934  0.323861331
     0.625000000  0.667361934  0.323861331
     0.791666667  0.667361934  0.323861331
     0.958333333  0.667361934  0.323861331
     0.125000000  0.834028601  0.323861331
     0.291666667  0.834028601  0.323861331
     0.458333333  0.834028601  0.323861331
     0.625000000  0.834028601  0.323861331
     0.791666667  0.834028601  0.323861331
     0.958333333  0.834028601  0.323861331
     0.125000000  0.000695268  0.823861331
     0.291666667  0.000695268  0.823861331
     0.458333333  0.000695268  0.823861331
     0.625000000  0.000695268  0.823861331
     0.791666667  0.000695268  0.823861331
     0.958333333  0.000695268  0.823861331
     0.125000000  0.167361934  0.823861331
     0.291666667  0.167361934  0.823861331
     0.458333333  0.167361934  0.823861331
     0.625000000  0.167361934  0.823861331
     0.791666667  0.167361934  0.823861331
     0.958333333  0.167361934  0.823861331
     0.125000000  0.334028601  0.823861331
     0.291666667  0.334028601  0.823861331
     0.458333333  0.334028601  0.823861331
     0.625000000  0.334028601  0.823861331
     0.791666667  0.334028601  0.823861331
     0.958333333  0.334028601  0.823861331
     0.125000000  0.500695268  0.823861331
     0.291666667  0.500695268  0.823861331
     0.458333333  0.500695268  0.823861331
     0.625000000  0.500695268  0.823861331
     0.791666667  0.500695268  0.823861331
     0.958333333  0.500695268  0.823861331
     0.125000000  0.667361934  0.823861331
     0.291666667  0.667361934  0.823861331
     0.458333333  0.667361934  0.823861331
     0.625000000  0.667361934  0.823861331
     0.791666667  0.667361934  0.823861331
     0.958333333  0.667361934  0.823861331
     0.125000000  0.834028601  0.823861331
     0.291666667  0.834028601  0.823861331
     0.458333333  0.834028601  0.823861331
     0.625000000  0.834028601  0.823861331
     0.791666667  0.834028601  0.823861331
     0.958333333  0.834028601  0.823861331
     0.041666667  0.165971402  0.176138684
     0.208333333  0.165971402  0.176138684
     0.375000000  0.165971402  0.176138684
     0.541666667  0.165971402  0.176138684
     0.708333333  0.165971402  0.176138684
     0.875000000  0.165971402  0.176138684
     0.041666667  0.332638069  0.176138684
     0.208333333  0.332638069  0.176138684
     0.375000000  0.332638069  0.176138684
     0.541666667  0.332638069  0.176138684
     0.708333333  0.332638069  0.176138684
     0.875000000  0.332638069  0.176138684
     0.041666667  0.499304736  0.176138684
     0.208333333  0.499304736  0.176138684
     0.375000000  0.499304736  0.176138684
     0.541666667  0.499304736  0.176138684
     0.708333333  0.499304736  0.176138684
     0.875000000  0.499304736  0.176138684
     0.041666667  0.665971402  0.176138684
     0.208333333  0.665971402  0.176138684
     0.375000000  0.665971402  0.176138684
     0.541666667  0.665971402  0.176138684
     0.708333333  0.665971402  0.176138684
     0.875000000  0.665971402  0.176138684
     0.041666667  0.832638069  0.176138684
     0.208333333  0.832638069  0.176138684
     0.375000000  0.832638069  0.176138684
     0.541666667  0.832638069  0.176138684
     0.708333333  0.832638069  0.176138684
     0.875000000  0.832638069  0.176138684
     0.041666667  0.999304736  0.176138684
     0.208333333  0.999304736  0.176138684
     0.375000000  0.999304736  0.176138684
     0.541666667  0.999304736  0.176138684
     0.708333333  0.999304736  0.176138684
     0.875000000  0.999304736  0.176138684
     0.041666667  0.165971402  0.676138684
     0.208333333  0.165971402  0.676138684
     0.375000000  0.165971402  0.676138684
     0.541666667  0.165971402  0.676138684
     0.708333333  0.165971402  0.676138684
     0.875000000  0.165971402  0.676138684
     0.041666667  0.332638069  0.676138684
     0.208333333  0.332638069  0.676138684
     0.375000000  0.332638069  0.676138684
     0.541666667  0.332638069  0.676138684
     0.708333333  0.332638069  0.676138684
     0.875000000  0.332638069  0.676138684
     0.041666667  0.499304736  0.676138684
     0.208333333  0.499304736  0.676138684
     0.375000000  0.499304736  0.676138684
     0.541666667  0.499304736  0.676138684
     0.708333333  0.499304736  0.676138684
     0.875000000  0.499304736  0.676138684
     0.041666667  0.665971402  0.676138684
     0.208333333  0.665971402  0.676138684
     0.375000000  0.665971402  0.676138684
     0.541666667  0.665971402  0.676138684
     0.708333333  0.665971402  0.676138684
     0.875000000  0.665971402  0.676138684
     0.041666667  0.832638069  0.676138684
     0.208333333  0.832638069  0.676138684
     0.375000000  0.832638069  0.676138684
     0.541666667  0.832638069  0.676138684
     0.708333333  0.832638069  0.676138684
     0.875000000  0.832638069  0.676138684
     0.041666667  0.999304736  0.676138684
     0.208333333  0.999304736  0.676138684
     0.375000000  0.999304736  0.676138684
     0.541666667  0.999304736  0.676138684
     0.708333333  0.999304736  0.676138684
     0.875000000  0.999304736  0.676138684

  ion indices of the primitive-cell ions
   primitive index   ion index
                 1           1
                 2           2
                 3           3
                 4           4
                 5           5
                 6           6
                 7           7
                 8           8
                 9           9
                10          10
                11          11
                12          12
                13          13
                14          14
                15          15
                16          16
                17          17
                18          18
                19          19
                20          20
                21          21
                22          22
                23          23
                24          24
                25          25
                26          26
                27          27
                28          28
                29          29
                30          30
                31          31
                32          32
                33          33
                34          34
                35          35
                36          36
                37          37
                38          38
                39          39
                40          40
                41          41
                42          42
                43          43
                44          44
                45          45
                46          46
                47          47
                48          48
                49          49
                50          50
                51          51
                52          52
                53          53
                54          54
                55          55
                56          56
                57          57
                58          58
                59          59
                60          60
                61          61
                62          62
                63          63
                64          64
                65          65
                66          66
                67          67
                68          68
                69          69
                70          70
                71          71
                72          72
                73          73
                74          74
                75          75
                76          76
                77          77
                78          78
                79          79
                80          80
                81          81
                82          82
                83          83
                84          84
                85          85
                86          86
                87          87
                88          88
                89          89
                90          90
                91          91
                92          92
                93          93
                94          94
                95          95
                96          96
                97          97
                98          98
                99          99
               100         100
               101         101
               102         102
               103         103
               104         104
               105         105
               106         106
               107         107
               108         108
               109         109
               110         110
               111         111
               112         112
               113         113
               114         114
               115         115
               116         116
               117         117
               118         118
               119         119
               120         120
               121         121
               122         122
               123         123
               124         124
               125         125
               126         126
               127         127
               128         128
               129         129
               130         130
               131         131
               132         132
               133         133
               134         134
               135         135
               136         136
               137         137
               138         138
               139         139
               140         140
               141         141
               142         142
               143         143
               144         144
               145         145
               146         146
               147         147
               148         148
               149         149
               150         150
               151         151
               152         152
               153         153
               154         154
               155         155
               156         156
               157         157
               158         158
               159         159
               160         160
               161         161
               162         162
               163         163
               164         164
               165         165
               166         166
               167         167
               168         168
               169         169
               170         170
               171         171
               172         172
               173         173
               174         174
               175         175
               176         176
               177         177
               178         178
               179         179
               180         180
               181         181
               182         182
               183         183
               184         184
               185         185
               186         186
               187         187
               188         188
               189         189
               190         190
               191         191
               192         192
               193         193
               194         194
               195         195
               196         196
               197         197
               198         198
               199         199
               200         200
               201         201
               202         202
               203         203
               204         204
               205         205
               206         206
               207         207
               208         208
               209         209
               210         210
               211         211
               212         212
               213         213
               214         214
               215         215
               216         216
               217         217
               218         218
               219         219
               220         220
               221         221
[...]
  138       -0.000   0.000  -0.000   0.000
  139       -0.000   0.000  -0.000   0.000
  140       -0.000   0.000  -0.000   0.000
  141       -0.000   0.000  -0.000   0.000
  142       -0.000   0.000  -0.000   0.000
  143       -0.000   0.000  -0.000   0.000
  144       -0.000   0.000  -0.000   0.000
  145       -0.000   0.000  -0.000   0.000
  146       -0.000   0.000  -0.000   0.000
  147       -0.000   0.000  -0.000   0.000
  148       -0.000   0.000  -0.000   0.000
  149       -0.000   0.000  -0.000   0.000
  150       -0.000   0.000  -0.000   0.000
  151       -0.000   0.000  -0.000   0.000
  152       -0.000   0.000  -0.000   0.000
  153       -0.000   0.000  -0.000   0.000
  154       -0.000   0.000  -0.000   0.000
  155       -0.000   0.000  -0.000   0.000
  156       -0.000   0.000  -0.000   0.000
  157       -0.000   0.000  -0.000   0.000
  158       -0.000   0.000  -0.000   0.000
  159       -0.000   0.000  -0.000   0.000
  160       -0.000   0.000  -0.000   0.000
  161       -0.000   0.000  -0.000   0.000
  162       -0.000   0.000  -0.000   0.000
  163       -0.000   0.000  -0.000   0.000
  164       -0.000   0.000  -0.000   0.000
  165       -0.000   0.000  -0.000   0.000
  166       -0.000   0.000  -0.000   0.000
  167       -0.000   0.000  -0.000   0.000
  168       -0.000   0.000  -0.000   0.000
  169       -0.000   0.000  -0.000   0.000
  170       -0.000   0.000  -0.000   0.000
  171       -0.000   0.000  -0.000   0.000
  172       -0.000   0.000  -0.000   0.000
  173       -0.000   0.000  -0.000   0.000
  174       -0.000   0.000  -0.000   0.000
  175       -0.000   0.000  -0.000   0.000
  176       -0.000   0.000  -0.000   0.000
  177       -0.000   0.000  -0.000   0.000
  178       -0.000   0.000  -0.000   0.000
  179       -0.000   0.000  -0.000   0.000
  180       -0.000   0.000  -0.000   0.000
  181       -0.000   0.000  -0.000   0.000
  182       -0.000   0.000  -0.000   0.000
  183       -0.000   0.000  -0.000   0.000
  184       -0.000   0.000  -0.000   0.000
  185       -0.000   0.000  -0.000   0.000
  186       -0.000   0.000  -0.000   0.000
  187       -0.000   0.000  -0.000   0.000
  188       -0.000   0.000  -0.000   0.000
  189       -0.000   0.000  -0.000   0.000
  190       -0.000   0.000  -0.000   0.000
  191       -0.000   0.000  -0.000   0.000
  192       -0.000   0.000  -0.000   0.000
  193       -0.000   0.000  -0.000   0.000
  194       -0.000   0.000  -0.000   0.000
  195       -0.000   0.000  -0.000   0.000
  196       -0.000   0.000  -0.000   0.000
  197       -0.000   0.000  -0.000   0.000
  198       -0.000   0.000  -0.000   0.000
  199       -0.000   0.000  -0.000   0.000
  200       -0.000   0.000  -0.000   0.000
  201       -0.000   0.000  -0.000   0.000
  202       -0.000   0.000  -0.000   0.000
  203       -0.000   0.000  -0.000   0.000
  204       -0.000   0.000  -0.000   0.000
  205       -0.000   0.000  -0.000   0.000
  206       -0.000   0.000  -0.000   0.000
  207       -0.000   0.000  -0.000   0.000
  208       -0.000   0.000  -0.000   0.000
  209       -0.000   0.000  -0.000   0.000
  210       -0.000   0.000  -0.000   0.000
  211       -0.000   0.000  -0.000   0.000
  212       -0.000   0.000  -0.000   0.000
  213       -0.000   0.000  -0.000   0.000
  214       -0.000   0.000  -0.000   0.000
  215       -0.000   0.000  -0.000   0.000
  216       -0.000   0.000  -0.000   0.000
  217       -0.000   0.000  -0.000   0.000
  218       -0.000   0.000  -0.000   0.000
  219       -0.000   0.000  -0.000   0.000
  220       -0.000   0.000  -0.000   0.000
  221       -0.000   0.000  -0.000   0.000
  222       -0.000   0.000  -0.000   0.000
  223       -0.000   0.000  -0.000   0.000
  224       -0.000   0.000  -0.000   0.000
  225       -0.000   0.000  -0.000   0.000
  226       -0.000   0.000  -0.000   0.000
  227       -0.000   0.000  -0.000   0.000
  228       -0.000   0.000  -0.000   0.000
  229       -0.000   0.000  -0.000   0.000
  230       -0.000   0.000  -0.000   0.000
  231       -0.000   0.000  -0.000   0.000
  232       -0.000   0.000  -0.000   0.000
  233       -0.000   0.000  -0.000   0.000
  234       -0.000   0.000  -0.000   0.000
  235       -0.000   0.000  -0.000   0.000
  236       -0.000   0.000  -0.000   0.000
  237       -0.000   0.000  -0.000   0.000
  238       -0.000   0.000  -0.000   0.000
  239       -0.000   0.000  -0.000   0.000
  240       -0.000   0.000  -0.000   0.000
  241       -0.000   0.000  -0.000   0.000
  242       -0.000   0.000  -0.000   0.000
  243       -0.000   0.000  -0.000   0.000
  244       -0.000   0.000  -0.000   0.000
  245       -0.000   0.000  -0.000   0.000
  246       -0.000   0.000  -0.000   0.000
  247       -0.000   0.000  -0.000   0.000
  248       -0.000   0.000  -0.000   0.000
  249       -0.000   0.000  -0.000   0.000
  250       -0.000   0.000  -0.000   0.000
  251       -0.000   0.000  -0.000   0.000
  252       -0.000   0.000  -0.000   0.000
  253       -0.000   0.000  -0.000   0.000
  254       -0.000   0.000  -0.000   0.000
  255       -0.000   0.000  -0.000   0.000
  256       -0.000   0.000  -0.000   0.000
  257       -0.000   0.000  -0.000   0.000
  258       -0.000   0.000  -0.000   0.000
  259       -0.000   0.000  -0.000   0.000
  260       -0.000   0.000  -0.000   0.000
  261       -0.000   0.000  -0.000   0.000
  262       -0.000   0.000  -0.000   0.000
  263       -0.000   0.000  -0.000   0.000
  264       -0.000   0.000  -0.000   0.000
  265       -0.000   0.000  -0.000   0.000
  266       -0.000   0.000  -0.000   0.000
  267       -0.000   0.000  -0.000   0.000
  268       -0.000   0.000  -0.000   0.000
  269       -0.000   0.000  -0.000   0.000
  270       -0.000   0.000  -0.000   0.000
  271       -0.000   0.000  -0.000   0.000
  272       -0.000   0.000  -0.000   0.000
  273       -0.000   0.000  -0.000   0.000
  274       -0.000   0.000  -0.000   0.000
  275       -0.000   0.000  -0.000   0.000
  276       -0.000   0.000  -0.000   0.000
  277       -0.000   0.000  -0.000   0.000
  278       -0.000   0.000  -0.000   0.000
  279       -0.000   0.000  -0.000   0.000
  280       -0.000   0.000  -0.000   0.000
  281       -0.000   0.000  -0.000   0.000
  282       -0.000   0.000  -0.000   0.000
  283       -0.000   0.000  -0.000   0.000
  284       -0.000   0.000  -0.000   0.000
  285       -0.000   0.000  -0.000   0.000
  286       -0.000   0.000  -0.000   0.000
  287       -0.000   0.000  -0.000   0.000
  288       -0.000   0.000  -0.000   0.000
  289       -0.000  -0.000   0.000  -0.000
  290       -0.000  -0.000   0.000  -0.000
  291       -0.000  -0.000   0.000  -0.000
  292       -0.000  -0.000   0.000  -0.000
  293       -0.000  -0.000   0.000  -0.000
  294       -0.000  -0.000   0.000  -0.000
  295       -0.000  -0.000   0.000  -0.000
  296       -0.000  -0.000   0.000  -0.000
  297       -0.000  -0.000   0.000  -0.000
  298       -0.000  -0.000   0.000  -0.000
  299       -0.000  -0.000   0.000  -0.000
  300       -0.000  -0.000   0.000  -0.000
  301       -0.000  -0.000   0.000  -0.000
  302       -0.000  -0.000   0.000  -0.000
  303       -0.000  -0.000   0.000  -0.000
  304       -0.000  -0.000   0.000  -0.000
  305       -0.000  -0.000   0.000  -0.000
  306       -0.000  -0.000   0.000  -0.000
  307       -0.000  -0.000   0.000  -0.000
  308       -0.000  -0.000   0.000  -0.000
  309       -0.000  -0.000   0.000  -0.000
  310       -0.000  -0.000   0.000  -0.000
  311       -0.000  -0.000   0.000  -0.000
  312       -0.000  -0.000   0.000  -0.000
  313       -0.000  -0.000   0.000  -0.000
  314       -0.000  -0.000   0.000  -0.000
  315       -0.000  -0.000   0.000  -0.000
  316       -0.000  -0.000   0.000  -0.000
  317       -0.000  -0.000   0.000  -0.000
  318       -0.000  -0.000   0.000  -0.000
  319       -0.000  -0.000   0.000  -0.000
  320       -0.000  -0.000   0.000  -0.000
  321       -0.000  -0.000   0.000  -0.000
  322       -0.000  -0.000   0.000  -0.000
  323       -0.000  -0.000   0.000  -0.000
  324       -0.000  -0.000   0.000  -0.000
  325       -0.000  -0.000   0.000  -0.000
  326       -0.000  -0.000   0.000  -0.000
  327       -0.000  -0.000   0.000  -0.000
  328       -0.000  -0.000   0.000  -0.000
  329       -0.000  -0.000   0.000  -0.000
  330       -0.000  -0.000   0.000  -0.000
  331       -0.000  -0.000   0.000  -0.000
  332       -0.000  -0.000   0.000  -0.000
  333       -0.000  -0.000   0.000  -0.000
  334       -0.000  -0.000   0.000  -0.000
  335       -0.000  -0.000   0.000  -0.000
  336       -0.000  -0.000   0.000  -0.000
  337       -0.000  -0.000   0.000  -0.000
  338       -0.000  -0.000   0.000  -0.000
  339       -0.000  -0.000   0.000  -0.000
  340       -0.000  -0.000   0.000  -0.000
  341       -0.000  -0.000   0.000  -0.000
  342       -0.000  -0.000   0.000  -0.000
  343       -0.000  -0.000   0.000  -0.000
  344       -0.000  -0.000   0.000  -0.000
  345       -0.000  -0.000   0.000  -0.000
  346       -0.000  -0.000   0.000  -0.000
  347       -0.000  -0.000   0.000  -0.000
  348       -0.000  -0.000   0.000  -0.000
  349       -0.000  -0.000   0.000  -0.000
  350       -0.000  -0.000   0.000  -0.000
  351       -0.000  -0.000   0.000  -0.000
  352       -0.000  -0.000   0.000  -0.000
  353       -0.000  -0.000   0.000  -0.000
  354       -0.000  -0.000   0.000  -0.000
  355       -0.000  -0.000   0.000  -0.000
  356       -0.000  -0.000   0.000  -0.000
  357       -0.000  -0.000   0.000  -0.000
  358       -0.000  -0.000   0.000  -0.000
  359       -0.000  -0.000   0.000  -0.000
  360       -0.000  -0.000   0.000  -0.000
  361       -0.000  -0.000   0.000  -0.000
  362       -0.000  -0.000   0.000  -0.000
  363       -0.000  -0.000   0.000  -0.000
  364       -0.000  -0.000   0.000  -0.000
  365       -0.000  -0.000   0.000  -0.000
  366       -0.000  -0.000   0.000  -0.000
  367       -0.000  -0.000   0.000  -0.000
  368       -0.000  -0.000   0.000  -0.000
  369       -0.000  -0.000   0.000  -0.000
  370       -0.000  -0.000   0.000  -0.000
  371       -0.000  -0.000   0.000  -0.000
  372       -0.000  -0.000   0.000  -0.000
  373       -0.000  -0.000   0.000  -0.000
  374       -0.000  -0.000   0.000  -0.000
  375       -0.000  -0.000   0.000  -0.000
  376       -0.000  -0.000   0.000  -0.000
  377       -0.000  -0.000   0.000  -0.000
  378       -0.000  -0.000   0.000  -0.000
  379       -0.000  -0.000   0.000  -0.000
  380       -0.000  -0.000   0.000  -0.000
  381       -0.000  -0.000   0.000  -0.000
  382       -0.000  -0.000   0.000  -0.000
  383       -0.000  -0.000   0.000  -0.000
  384       -0.000  -0.000   0.000  -0.000
  385       -0.000  -0.000   0.000  -0.000
  386       -0.000  -0.000   0.000  -0.000
  387       -0.000  -0.000   0.000  -0.000
  388       -0.000  -0.000   0.000  -0.000
  389       -0.000  -0.000   0.000  -0.000
  390       -0.000  -0.000   0.000  -0.000
  391       -0.000  -0.000   0.000  -0.000
  392       -0.000  -0.000   0.000  -0.000
  393       -0.000  -0.000   0.000  -0.000
  394       -0.000  -0.000   0.000  -0.000
  395       -0.000  -0.000   0.000  -0.000
  396       -0.000  -0.000   0.000  -0.000
  397       -0.000  -0.000   0.000  -0.000
  398       -0.000  -0.000   0.000  -0.000
  399       -0.000  -0.000   0.000  -0.000
  400       -0.000  -0.000   0.000  -0.000
  401       -0.000  -0.000   0.000  -0.000
  402       -0.000  -0.000   0.000  -0.000
  403       -0.000  -0.000   0.000  -0.000
  404       -0.000  -0.000   0.000  -0.000
  405       -0.000  -0.000   0.000  -0.000
  406       -0.000  -0.000   0.000  -0.000
  407       -0.000  -0.000   0.000  -0.000
  408       -0.000  -0.000   0.000  -0.000
  409       -0.000  -0.000   0.000  -0.000
  410       -0.000  -0.000   0.000  -0.000
  411       -0.000  -0.000   0.000  -0.000
  412       -0.000  -0.000   0.000  -0.000
  413       -0.000  -0.000   0.000  -0.000
  414       -0.000  -0.000   0.000  -0.000
  415       -0.000  -0.000   0.000  -0.000
  416       -0.000  -0.000   0.000  -0.000
  417       -0.000  -0.000   0.000  -0.000
  418       -0.000  -0.000   0.000  -0.000
  419       -0.000  -0.000   0.000  -0.000
  420       -0.000  -0.000   0.000  -0.000
  421       -0.000  -0.000   0.000  -0.000
  422       -0.000  -0.000   0.000  -0.000
  423       -0.000  -0.000   0.000  -0.000
  424       -0.000  -0.000   0.000  -0.000
  425       -0.000  -0.000   0.000  -0.000
  426       -0.000  -0.000   0.000  -0.000
  427       -0.000  -0.000   0.000  -0.000
  428       -0.000  -0.000   0.000  -0.000
  429       -0.000  -0.000   0.000  -0.000
  430       -0.000  -0.000   0.000  -0.000
  431       -0.000  -0.000   0.000  -0.000
  432       -0.000  -0.000   0.000  -0.000
  433       -0.000  -0.000   0.000  -0.000
  434       -0.000  -0.000   0.000  -0.000
  435       -0.000  -0.000   0.000  -0.000
  436       -0.000  -0.000   0.000  -0.000
  437       -0.000  -0.000   0.000  -0.000
  438       -0.000  -0.000   0.000  -0.000
  439       -0.000  -0.000   0.000  -0.000
  440       -0.000  -0.000   0.000  -0.000
  441       -0.000  -0.000   0.000  -0.000
  442       -0.000  -0.000   0.000  -0.000
  443       -0.000  -0.000   0.000  -0.000
  444       -0.000  -0.000   0.000  -0.000
  445       -0.000  -0.000   0.000  -0.000
  446       -0.000  -0.000   0.000  -0.000
  447       -0.000  -0.000   0.000  -0.000
  448       -0.000  -0.000   0.000  -0.000
  449       -0.000  -0.000   0.000  -0.000
  450       -0.000  -0.000   0.000  -0.000
  451       -0.000  -0.000   0.000  -0.000
  452       -0.000  -0.000   0.000  -0.000
  453       -0.000  -0.000   0.000  -0.000
  454       -0.000  -0.000   0.000  -0.000
  455       -0.000  -0.000   0.000  -0.000
  456       -0.000  -0.000   0.000  -0.000
  457       -0.000  -0.000   0.000  -0.000
  458       -0.000  -0.000   0.000  -0.000
  459       -0.000  -0.000   0.000  -0.000
  460       -0.000  -0.000   0.000  -0.000
  461       -0.000  -0.000   0.000  -0.000
  462       -0.000  -0.000   0.000  -0.000
  463       -0.000  -0.000   0.000  -0.000
  464       -0.000  -0.000   0.000  -0.000
  465       -0.000  -0.000   0.000  -0.000
  466       -0.000  -0.000   0.000  -0.000
  467       -0.000  -0.000   0.000  -0.000
  468       -0.000  -0.000   0.000  -0.000
  469       -0.000  -0.000   0.000  -0.000
  470       -0.000  -0.000   0.000  -0.000
  471       -0.000  -0.000   0.000  -0.000
  472       -0.000  -0.000   0.000  -0.000
  473       -0.000  -0.000   0.000  -0.000
  474       -0.000  -0.000   0.000  -0.000
  475       -0.000  -0.000   0.000  -0.000
  476       -0.000  -0.000   0.000  -0.000
  477       -0.000  -0.000   0.000  -0.000
  478       -0.000  -0.000   0.000  -0.000
  479       -0.000  -0.000   0.000  -0.000
  480       -0.000  -0.000   0.000  -0.000
  481       -0.000  -0.000   0.000  -0.000
  482       -0.000  -0.000   0.000  -0.000
  483       -0.000  -0.000   0.000  -0.000
  484       -0.000  -0.000   0.000  -0.000
  485       -0.000  -0.000   0.000  -0.000
  486       -0.000  -0.000   0.000  -0.000
  487       -0.000  -0.000   0.000  -0.000
  488       -0.000  -0.000   0.000  -0.000
  489       -0.000  -0.000   0.000  -0.000
  490       -0.000  -0.000   0.000  -0.000
  491       -0.000  -0.000   0.000  -0.000
  492       -0.000  -0.000   0.000  -0.000
  493       -0.000  -0.000   0.000  -0.000
  494       -0.000  -0.000   0.000  -0.000
  495       -0.000  -0.000   0.000  -0.000
  496       -0.000  -0.000   0.000  -0.000
  497       -0.000  -0.000   0.000  -0.000
  498       -0.000  -0.000   0.000  -0.000
  499       -0.000  -0.000   0.000  -0.000
  500       -0.000  -0.000   0.000  -0.000
  501       -0.000  -0.000   0.000  -0.000
  502       -0.000  -0.000   0.000  -0.000
  503       -0.000  -0.000   0.000  -0.000
  504       -0.000  -0.000   0.000  -0.000
  505       -0.000  -0.000   0.000  -0.000
  506       -0.000  -0.000   0.000  -0.000
  507       -0.000  -0.000   0.000  -0.000
  508       -0.000  -0.000   0.000  -0.000
  509       -0.000  -0.000   0.000  -0.000
  510       -0.000  -0.000   0.000  -0.000
  511       -0.000  -0.000   0.000  -0.000
  512       -0.000  -0.000   0.000  -0.000
  513       -0.000  -0.000   0.000  -0.000
  514       -0.000  -0.000   0.000  -0.000
  515       -0.000  -0.000   0.000  -0.000
  516       -0.000  -0.000   0.000  -0.000
  517       -0.000  -0.000   0.000  -0.000
  518       -0.000  -0.000   0.000  -0.000
  519       -0.000  -0.000   0.000  -0.000
  520       -0.000  -0.000   0.000  -0.000
  521       -0.000  -0.000   0.000  -0.000
  522       -0.000  -0.000   0.000  -0.000
  523       -0.000  -0.000   0.000  -0.000
  524       -0.000  -0.000   0.000  -0.000
  525       -0.000  -0.000   0.000  -0.000
  526       -0.000  -0.000   0.000  -0.000
  527       -0.000  -0.000   0.000  -0.000
  528       -0.000  -0.000   0.000  -0.000
  529       -0.000  -0.000   0.000  -0.000
  530       -0.000  -0.000   0.000  -0.000
  531       -0.000  -0.000   0.000  -0.000
  532       -0.000  -0.000   0.000  -0.000
  533       -0.000  -0.000   0.000  -0.000
  534       -0.000  -0.000   0.000  -0.000
  535       -0.000  -0.000   0.000  -0.000
  536       -0.000  -0.000   0.000  -0.000
  537       -0.000  -0.000   0.000  -0.000
  538       -0.000  -0.000   0.000  -0.000
  539       -0.000  -0.000   0.000  -0.000
  540       -0.000  -0.000   0.000  -0.000
  541       -0.000  -0.000   0.000  -0.000
  542       -0.000  -0.000   0.000  -0.000
  543       -0.000  -0.000   0.000  -0.000
  544       -0.000  -0.000   0.000  -0.000
  545       -0.000  -0.000   0.000  -0.000
  546       -0.000  -0.000   0.000  -0.000
  547       -0.000  -0.000   0.000  -0.000
  548       -0.000  -0.000   0.000  -0.000
  549       -0.000  -0.000   0.000  -0.000
  550       -0.000  -0.000   0.000  -0.000
  551       -0.000  -0.000   0.000  -0.000
  552       -0.000  -0.000   0.000  -0.000
  553       -0.000  -0.000   0.000  -0.000
  554       -0.000  -0.000   0.000  -0.000
  555       -0.000  -0.000   0.000  -0.000
  556       -0.000  -0.000   0.000  -0.000
  557       -0.000  -0.000   0.000  -0.000
  558       -0.000  -0.000   0.000  -0.000
  559       -0.000  -0.000   0.000  -0.000
  560       -0.000  -0.000   0.000  -0.000
  561       -0.000  -0.000   0.000  -0.000
  562       -0.000  -0.000   0.000  -0.000
  563       -0.000  -0.000   0.000  -0.000
  564       -0.000  -0.000   0.000  -0.000
  565       -0.000  -0.000   0.000  -0.000
  566       -0.000  -0.000   0.000  -0.000
  567       -0.000  -0.000   0.000  -0.000
  568       -0.000  -0.000   0.000  -0.000
  569       -0.000  -0.000   0.000  -0.000
  570       -0.000  -0.000   0.000  -0.000
  571       -0.000  -0.000   0.000  -0.000
  572       -0.000  -0.000   0.000  -0.000
  573       -0.000  -0.000   0.000  -0.000
  574       -0.000  -0.000   0.000  -0.000
  575       -0.000  -0.000   0.000  -0.000
  576       -0.000  -0.000   0.000  -0.000
--------------------------------------------------
tot         -0.000  -0.000   0.000  -0.000
 

 total amount of memory used by VASP MPI-rank0  4406664. kBytes
=======================================================================

   base      :      30000. kBytes
   nonl-proj :    3609165. kBytes
   fftplans  :      39927. kBytes
   grid      :     543271. kBytes
   one-center:       9345. kBytes
   wavefun   :     174956. kBytes
 
  
  
 General timing and accounting informations for this job:
 ========================================================
  
                  Total CPU time used (sec):    57103.168
                            User time (sec):    56981.735
                          System time (sec):      121.435
                         Elapsed time (sec):    57371.550
  
                   Maximum memory used (kb):     4716072.
                   Average memory used (kb):          N/A
  
                          Minor page faults:     16901823
                          Major page faults:           89
                 Voluntary context switches:        11533
