 running  256 mpi-ranks, with    1 threads/rank, on    7 nodes
 distrk:  each k-point on  128 cores,    2 groups
 distr:  one band on    4 cores,   32 groups
 vasp.6.4.1 05Apr23 (build May 18 2023 13:19:41) complex                         
 POSCAR found type information on POSCAR C S O 
 POSCAR found :  3 types and     366 ions
 Reading from existing POTCAR
 scaLAPACK will be used
 Reading from existing POTCAR
 -----------------------------------------------------------------------------
|                                                                             |
|               ----> ADVICE to this user running VASP <----                  |
|                                                                             |
|     You have a (more or less) 'large supercell' and for larger cells it     |
|     might be more efficient to use real-space projection operators.         |
|     Therefore, try LREAL= Auto in the INCAR file.                           |
|     Mind: If you want to do very accurate calculations, keep the            |
|     reciprocal projection scheme (i.e. LREAL=.FALSE.).                      |
|                                                                             |
 -----------------------------------------------------------------------------

 LDA part: xc-table for Pade appr. of Perdew
 POSCAR, INCAR and KPOINTS ok, starting setup
 FFT: planning ... GRIDC
 FFT: planning ... GRID_SOFT
 FFT: planning ... GRID
 WAVECAR not read
 WARNING: random wavefunctions but no delay for mixing, default for NELMDL
 entering main loop
       N       E                     dE             d eps       ncg     rms          rms(c)
DAV:   1     0.131808492101E+05    0.13181E+05   -0.45339E+05  4544   0.936E+02
DAV:   2     0.103140720502E+03   -0.13078E+05   -0.12293E+05  5248   0.240E+02
DAV:   3    -0.336107092487E+04   -0.34642E+04   -0.34129E+04  4544   0.131E+02
DAV:   4    -0.354630882922E+04   -0.18524E+03   -0.18250E+03  4320   0.391E+01
DAV:   5    -0.355129791220E+04   -0.49891E+01   -0.49356E+01  4800   0.576E+00    0.746E+01
DAV:   6    -0.337949795535E+04    0.17180E+03   -0.17106E+02  3936   0.121E+01    0.392E+01
DAV:   7    -0.331824918997E+04    0.61249E+02   -0.18723E+02  4096   0.124E+01    0.731E+00
DAV:   8    -0.331773046740E+04    0.51872E+00   -0.63674E+00  4416   0.282E+00    0.390E+00
DAV:   9    -0.331723988595E+04    0.49058E+00   -0.91597E-01  4160   0.997E-01    0.126E+00
DAV:  10    -0.331714286109E+04    0.97025E-01   -0.17647E-01  4192   0.454E-01    0.653E-01
DAV:  11    -0.331713570677E+04    0.71543E-02   -0.72201E-02  4192   0.270E-01    0.442E-01
DAV:  12    -0.331716360915E+04   -0.27902E-01   -0.46357E-02  3936   0.203E-01    0.237E-01
DAV:  13    -0.331719235247E+04   -0.28743E-01   -0.16523E-02  3808   0.118E-01    0.144E-01
DAV:  14    -0.331721597286E+04   -0.23620E-01   -0.11028E-02  3904   0.835E-02    0.973E-02
DAV:  15    -0.331723924604E+04   -0.23273E-01   -0.16427E-03  3936   0.446E-02    0.596E-02
DAV:  16    -0.331727242500E+04   -0.33179E-01   -0.26611E-03  3936   0.329E-02    0.389E-02
DAV:  17    -0.331729045602E+04   -0.18031E-01   -0.17180E-03  3936   0.256E-02    0.184E-02
DAV:  18    -0.331729751712E+04   -0.70611E-02   -0.44062E-04  4224   0.121E-02    0.112E-02
DAV:  19    -0.331730038074E+04   -0.28636E-02   -0.97061E-05  4064   0.649E-03    0.595E-03
DAV:  20    -0.331730265523E+04   -0.22745E-02   -0.10533E-04  3904   0.571E-03    0.436E-03
DAV:  21    -0.331730330587E+04   -0.65064E-03   -0.18880E-05  3552   0.280E-03    0.231E-03
DAV:  22    -0.331730369682E+04   -0.39094E-03   -0.10600E-05  3360   0.225E-03    0.171E-03
DAV:  23    -0.331730377368E+04   -0.76864E-04   -0.84229E-07  3136   0.105E-03    0.872E-04
DAV:  24    -0.331730381718E+04   -0.43499E-04    0.45772E-07  2528   0.736E-04    0.427E-04
DAV:  25    -0.331730385420E+04   -0.37024E-04    0.36151E-07  2496   0.559E-04    0.320E-04
DAV:  26    -0.331730386555E+04   -0.11344E-04    0.67910E-07  2464   0.350E-04    0.185E-04
DAV:  27    -0.331730388185E+04   -0.16301E-04    0.66781E-07  2400   0.350E-04    0.168E-04
DAV:  28    -0.331730388584E+04   -0.39916E-05    0.73539E-07  2336   0.206E-04    0.774E-05
DAV:  29    -0.331730388988E+04   -0.40428E-05    0.74004E-07  2144   0.153E-04    0.749E-05
DAV:  30    -0.331730389079E+04   -0.91153E-06    0.74833E-07  2336   0.865E-05
   1 F= -.33314221E+04 E0= -.33314221E+04  d E =-.574272E-28
 writing wavefunctions
 PROFILE, used timers:     331
