 running  128 mpi-ranks, with    1 threads/rank, on    2 nodes
 distrk:  each k-point on   64 cores,    2 groups
 distr:  one band on    4 cores,   16 groups
 vasp.6.4.2 20Jul23 (build Oct 12 2023 10:31:02) complex                         
 POSCAR found type information on POSCAR GeSe
 POSCAR found :  2 types and       8 ions
 Reading from existing POTCAR
 scaLAPACK will be used
 Reading from existing POTCAR
 LDA part: xc-table for Pade appr. of Perdew
 POSCAR, INCAR and KPOINTS ok, starting setup
 FFT: planning ... GRIDC
 FFT: planning ... GRID_SOFT
 FFT: planning ... GRID
 WAVECAR not read
 entering main loop
       N       E                     dE             d eps       ncg     rms          rms(c)
DAV:   1     0.129473158429E+03    0.12947E+03   -0.12781E+04  2560   0.772E+02
DAV:   2    -0.251631660033E+02   -0.15464E+03   -0.14969E+03  3760   0.137E+02
DAV:   3    -0.338256430505E+02   -0.86625E+01   -0.86428E+01  3296   0.377E+01
DAV:   4    -0.338820791912E+02   -0.56436E-01   -0.56429E-01  3088   0.350E+00
DAV:   5    -0.338824173315E+02   -0.33814E-03   -0.33798E-03  3312   0.262E-01    0.607E+00
DAV:   6    -0.332549771344E+02    0.62744E+00   -0.12656E+00  2976   0.384E+00    0.372E+00
DAV:   7    -0.332543634855E+02    0.61365E-03   -0.31978E-01  3264   0.196E+00    0.155E+00
DAV:   8    -0.332546580391E+02   -0.29455E-03   -0.30967E-02  2896   0.681E-01    0.198E-01
DAV:   9    -0.332545598251E+02    0.98214E-04   -0.42983E-03  3296   0.295E-01    0.770E-02
DAV:  10    -0.332546726490E+02   -0.11282E-03   -0.49587E-04  2880   0.106E-01    0.241E-02
DAV:  11    -0.332546890757E+02   -0.16427E-04   -0.30284E-05  3344   0.277E-02    0.103E-02
DAV:  12    -0.332546885693E+02    0.50632E-06   -0.40765E-06  3024   0.776E-03
   1 F= -.33254689E+02 E0= -.33254689E+02  d E =-.649661E-14
