 vasp.6.4.2 20Jul23 (build Oct 12 2023 10:31:02) complex                         
 executed on              LinuxNV date 2025.05.18  10:13:01
 running  160 mpi-ranks, with    1 threads/rank, on   10 nodes
 distrk:  each k-point on   80 cores,    2 groups
 distr:  one band on NCORE=   5 cores,   16 groups


--------------------------------------------------------------------------------------------------------


 INCAR:
   ENCUT = 520.000000
   SIGMA = 0.050000
   EDIFF = 1.00e-06
   ALGO = Normal
   GGA = PE
   PREC = Normal
   SYSTEM = ./
   ICHARG = 2
   ISMEAR = 0
   ISPIN = 1
   ISTART = 0
   ISYM = 0
   KPAR = 2
   LMAXMIX = 4
   NELM = 100
   NPAR = 16
   LASPH = .TRUE.
   LCHARG = .FALSE.
   LWAVE = .FALSE.

 POTCAR:    PAW_PBE Ge 05Jan2001                  
 POTCAR:    PAW_PBE Se 06Sep2000                  
 POTCAR:    PAW_PBE Ge 05Jan2001                  
   VRHFIN =Ge: s2p2                                                                                 
   LEXCH  = PE                                                                                      
   EATOM  =   104.9960 eV,    7.7170 Ry                                                             
                                                                                                    
   TITEL  = PAW_PBE Ge 05Jan2001                                                                    
   LULTRA =        F    use ultrasoft PP ?                                                          
   IUNSCR =        1    unscreen: 0-lin 1-nonlin 2-no                                               
   RPACOR =    2.170    partial core radius                                                         
   POMASS =   72.610; ZVAL   =    4.000    mass and valenz                                          
   RCORE  =    2.300    outmost cutoff radius                                                       
   RWIGS  =    2.300; RWIGS  =    1.217    wigner-seitz radius (au A)                               
   ENMAX  =  173.807; ENMIN  =  130.355 eV                                                          
   ICORE  =        3    local potential                                                             
   LCOR   =        T    correct aug charges                                                         
   LPAW   =        T    paw PP                                                                      
   EAUG   =  385.843                                                                                
   DEXC   =    0.000                                                                                
   RMAX   =    2.342    core radius for proj-oper                                                   
   RAUG   =    1.300    factor for augmentation sphere                                              
   RDEP   =    2.318    radius for radial grids                                                     
   RDEPT  =    2.103    core radius for aug-charge                                                  
                                                                                                    
   Atomic configuration                                                                             
   10 entries                                                                                       
     n  l   j            E        occ.                                                              
     1  0  0.50    -10959.8463   2.0000                                                             
     2  0  0.50     -1371.6056   2.0000                                                             
     2  1  1.50     -1198.4791   6.0000                                                             
     3  0  0.50      -168.4733   2.0000                                                             
     3  1  1.50      -115.6019   6.0000                                                             
     3  2  2.50       -29.3106  10.0000                                                             
     4  0  0.50       -11.7309   2.0000                                                             
     4  1  0.50        -3.8952   2.0000                                                             
     4  2  1.50        -4.0817   0.0000                                                             
     4  3  2.50        -4.0817   0.0000                                                             
   Description                                                                                      
     l       E           TYP  RCUT    TYP  RCUT                                                     
     0    -11.7309493     23  2.300                                                                 
     0     -7.4578696     23  2.300                                                                 
     1     -3.8952261     23  2.300                                                                 
     1      6.1178114     23  2.300                                                                 
     2     -4.0817478     23  2.300                                                                 
     3     -1.3605826      7  2.300                                                                 
  local pseudopotential read in
  partial core-charges read in
  partial kinetic energy density read in
  atomic valenz-charges read in
  non local Contribution for L=            0  read in
    real space projection operators read in
  non local Contribution for L=            0  read in
    real space projection operators read in
  non local Contribution for L=            1  read in
    real space projection operators read in
  non local Contribution for L=            1  read in
    real space projection operators read in
  non local Contribution for L=            2  read in
    real space projection operators read in
    PAW grid and wavefunctions read in
 
   number of l-projection  operators is LMAX  =            5
   number of lm-projection operators is LMMAX =           13
 
 POTCAR:    PAW_PBE Se 06Sep2000                  
   VRHFIN =Se: s2p4                                                                                 
   LEXCH  = PE                                                                                      
   EATOM  =   257.1286 eV,   18.8984 Ry                                                             
                                                                                                    
   TITEL  = PAW_PBE Se 06Sep2000                                                                    
   LULTRA =        F    use ultrasoft PP ?                                                          
   IUNSCR =        1    unscreen: 0-lin 1-nonlin 2-no                                               
   RPACOR =    1.900    partial core radius                                                         
   POMASS =   78.960; ZVAL   =    6.000    mass and valenz                                          
   RCORE  =    2.100    outmost cutoff radius                                                       
   RWIGS  =    2.200; RWIGS  =    1.164    wigner-seitz radius (au A)                               
   ENMAX  =  211.555; ENMIN  =  158.666 eV                                                          
   ICORE  =        3    local potential                                                             
   LCOR   =        T    correct aug charges                                                         
   LPAW   =        T    paw PP                                                                      
   EAUG   =  446.842                                                                                
   DEXC   =    0.000                                                                                
   RMAX   =    2.147    core radius for proj-oper                                                   
   RAUG   =    1.300    factor for augmentation sphere                                              
   RDEP   =    2.177    radius for radial grids                                                     
   RDEPT  =    1.928    core radius for aug-charge                                                  
                                                                                                    
   Atomic configuration                                                                             
   10 entries                                                                                       
     n  l   j            E        occ.                                                              
     1  0  0.50    -12503.4787   2.0000                                                             
     2  0  0.50     -1606.9547   2.0000                                                             
     2  1  1.50     -1413.3140   6.0000                                                             
     3  0  0.50      -213.4885   2.0000                                                             
     3  1  1.50      -152.9538   6.0000                                                             
     3  2  2.50       -53.1221  10.0000                                                             
     4  0  0.50       -17.2865   2.0000                                                             
     4  1  0.50        -6.5110   4.0000                                                             
     4  2  2.50        -6.8029   0.0000                                                             
     4  3  2.50        -6.8029   0.0000                                                             
   Description                                                                                      
     l       E           TYP  RCUT    TYP  RCUT                                                     
     0    -17.2865377     23  2.100                                                                 
     0    -15.3094411     23  2.100                                                                 
     1     -6.5110275     23  2.100                                                                 
     1     -0.0695192     23  2.100                                                                 
     2     -6.8029130     23  2.100                                                                 
     3     -1.3605826      7  2.100                                                                 
  local pseudopotential read in
  partial core-charges read in
  partial kinetic energy density read in
  atomic valenz-charges read in
  non local Contribution for L=            0  read in
    real space projection operators read in
  non local Contribution for L=            0  read in
    real space projection operators read in
  non local Contribution for L=            1  read in
    real space projection operators read in
  non local Contribution for L=            1  read in
    real space projection operators read in
  non local Contribution for L=            2  read in
    real space projection operators read in
    PAW grid and wavefunctions read in
 
   number of l-projection  operators is LMAX  =            5
   number of lm-projection operators is LMMAX =           13
 
  PAW_PBE Ge 05Jan2001                  :
 energy of atom  1       EATOM= -104.9960
 kinetic energy error for atom=    0.0002 (will be added to EATOM!!)
  PAW_PBE Se 06Sep2000                  :
 energy of atom  2       EATOM= -257.1286
 kinetic energy error for atom=    0.0007 (will be added to EATOM!!)
 
 
 POSCAR: Ge Se
  positions in cartesian coordinates
  No initial velocities read in
 exchange correlation table for  LEXCH =        8
   RHO(1)=    0.500       N(1)  =     2000
   RHO(2)=  100.500       N(2)  =     4000
 


--------------------------------------------------------------------------------------------------------


 ion  position               nearest neighbor table
   1  0.714  0.708  0.123-   6 2.60   6 2.60   5 2.60   3 2.85
   2  0.214  0.208  0.377-   5 2.60   5 2.60   6 2.60   4 2.85
   3  0.750  0.886  0.877-   8 2.60   8 2.60   7 2.60   1 2.85
   4  0.250  0.386  0.623-   7 2.60   7 2.60   8 2.60   2 2.85
   5  0.714  0.588  0.352-   2 2.60   2 2.60   1 2.60
   6  0.214  0.088  0.148-   1 2.60   1 2.60   2 2.60
   7  0.750  0.007  0.648-   4 2.60   4 2.60   3 2.60
   8  0.250  0.507  0.852-   3 2.60   3 2.60   4 2.60
 

IMPORTANT INFORMATION: All symmetrisations will be switched off!
NOSYMM: (Re-)initialisation of all symmetry stuff for point group C_1.


----------------------------------------------------------------------------------------

                                     Primitive cell                                     

  volume of cell :     193.5913

  direct lattice vectors                    reciprocal lattice vectors
     3.858100176  0.000000000  0.000000000     0.259194929  0.000000000  0.000000000
     0.000000000  4.526575088  0.000000000     0.000000000  0.220917577  0.000000000
     0.000000000  0.000000000 11.085176468     0.000000000  0.000000000  0.090210562

  length of vectors
     3.858100176  4.526575088 11.085176468     0.259194929  0.220917577  0.090210562

  position of ions in fractional coordinates (direct lattice)
     0.713768116  0.708323333  0.122982664
     0.213768116  0.208323333  0.377017336
     0.750000000  0.885879566  0.877017336
     0.250000000  0.385879566  0.622982664
     0.713768116  0.587512788  0.352381810
     0.213768116  0.087512788  0.147618190
     0.750000000  0.006690111  0.647618190
     0.250000000  0.506690111  0.852381810

  ion indices of the primitive-cell ions
   primitive index   ion index
                 1           1
                 2           2
                 3           3
                 4           4
                 5           5
                 6           6
                 7           7
                 8           8

----------------------------------------------------------------------------------------

 
 
 KPOINTS: KPOINTS created by Atomic Simulation Env

Automatic generation of k-mesh.
 Grid dimensions read from file:
 generate k-points for:    6    6    2

 Generating k-lattice:

  Cartesian coordinates                     Fractional coordinates (reciprocal lattice)
     0.043199155  0.000000000  0.000000000     0.166666667  0.000000000  0.000000000
     0.000000000  0.036819596  0.000000000     0.000000000  0.166666667  0.000000000
     0.000000000  0.000000000  0.045105281     0.000000000  0.000000000  0.500000000

  Length of vectors
     0.043199155  0.036819596  0.045105281

  Shift w.r.t. Gamma in fractional coordinates (k-lattice)
     0.000000000  0.000000000  0.000000000

 
 Subroutine IBZKPT returns following result:
 ===========================================
 
 Found     40 irreducible k-points:
 
 Following reciprocal coordinates:
            Coordinates               Weight
  0.000000  0.000000  0.000000      1.000000
  0.166667  0.000000  0.000000      2.000000
  0.333333  0.000000  0.000000      2.000000
  0.500000  0.000000  0.000000      1.000000
  0.000000  0.166667  0.000000      2.000000
  0.166667  0.166667  0.000000      2.000000
  0.166667 -0.166667  0.000000      2.000000
  0.333333  0.166667  0.000000      2.000000
  0.333333 -0.166667  0.000000      2.000000
  0.500000  0.166667  0.000000      2.000000
  0.000000  0.333333  0.000000      2.000000
  0.166667  0.333333  0.000000      2.000000
  0.166667 -0.333333  0.000000      2.000000
  0.333333  0.333333  0.000000      2.000000
  0.333333 -0.333333  0.000000      2.000000
  0.500000  0.333333  0.000000      2.000000
  0.000000  0.500000  0.000000      1.000000
  0.166667  0.500000  0.000000      2.000000
  0.333333  0.500000  0.000000      2.000000
  0.500000  0.500000  0.000000      1.000000
  0.000000  0.000000  0.500000      1.000000
  0.166667  0.000000  0.500000      2.000000
  0.333333  0.000000  0.500000      2.000000
  0.500000  0.000000  0.500000      1.000000
  0.000000  0.166667  0.500000      2.000000
  0.166667  0.166667  0.500000      2.000000
  0.166667 -0.166667  0.500000      2.000000
  0.333333  0.166667  0.500000      2.000000
  0.333333 -0.166667  0.500000      2.000000
  0.500000  0.166667  0.500000      2.000000
  0.000000  0.333333  0.500000      2.000000
  0.166667  0.333333  0.500000      2.000000
  0.166667 -0.333333  0.500000      2.000000
  0.333333  0.333333  0.500000      2.000000
  0.333333 -0.333333  0.500000      2.000000
  0.500000  0.333333  0.500000      2.000000
  0.000000  0.500000  0.500000      1.000000
  0.166667  0.500000  0.500000      2.000000
  0.333333  0.500000  0.500000      2.000000
  0.500000  0.500000  0.500000      1.000000
 
 Following cartesian coordinates:
            Coordinates               Weight
  0.000000  0.000000  0.000000      1.000000
  0.043199  0.000000  0.000000      2.000000
  0.086398  0.000000  0.000000      2.000000
  0.129597  0.000000  0.000000      1.000000
  0.000000  0.036820  0.000000      2.000000
  0.043199  0.036820  0.000000      2.000000
  0.043199 -0.036820  0.000000      2.000000
  0.086398  0.036820  0.000000      2.000000
  0.086398 -0.036820  0.000000      2.000000
  0.129597  0.036820  0.000000      2.000000
  0.000000  0.073639  0.000000      2.000000
  0.043199  0.073639  0.000000      2.000000
  0.043199 -0.073639  0.000000      2.000000
  0.086398  0.073639  0.000000      2.000000
  0.086398 -0.073639  0.000000      2.000000
  0.129597  0.073639  0.000000      2.000000
  0.000000  0.110459  0.000000      1.000000
  0.043199  0.110459  0.000000      2.000000
  0.086398  0.110459  0.000000      2.000000
  0.129597  0.110459  0.000000      1.000000
  0.000000  0.000000  0.045105      1.000000
  0.043199  0.000000  0.045105      2.000000
  0.086398  0.000000  0.045105      2.000000
  0.129597  0.000000  0.045105      1.000000
  0.000000  0.036820  0.045105      2.000000
  0.043199  0.036820  0.045105      2.000000
  0.043199 -0.036820  0.045105      2.000000
  0.086398  0.036820  0.045105      2.000000
  0.086398 -0.036820  0.045105      2.000000
  0.129597  0.036820  0.045105      2.000000
  0.000000  0.073639  0.045105      2.000000
  0.043199  0.073639  0.045105      2.000000
  0.043199 -0.073639  0.045105      2.000000
  0.086398  0.073639  0.045105      2.000000
  0.086398 -0.073639  0.045105      2.000000
  0.129597  0.073639  0.045105      2.000000
  0.000000  0.110459  0.045105      1.000000
  0.043199  0.110459  0.045105      2.000000
  0.086398  0.110459  0.045105      2.000000
  0.129597  0.110459  0.045105      1.000000
 


--------------------------------------------------------------------------------------------------------




 Dimension of arrays:
   k-points           NKPTS =     40   k-points in BZ     NKDIM =     40   number of bands    NBANDS=     32
   number of dos      NEDOS =    301   number of ions     NIONS =      8
   non local maximal  LDIM  =      5   non local SUM 2l+1 LMDIM =     13
   total plane-waves  NPLWV =  43008
   max r-space proj   IRMAX =      1   max aug-charges    IRDMAX=  12272
   dimension x,y,z NGX =    24 NGY =   28 NGZ =   64
   dimension x,y,z NGXF=    48 NGYF=   56 NGZF=  128
   support grid    NGXF=    48 NGYF=   56 NGZF=  128
   ions per type =               4   4
   NGX,Y,Z   is equivalent  to a cutoff of  10.34, 10.28,  9.60 a.u.
   NGXF,Y,Z  is equivalent  to a cutoff of  20.68, 20.57, 19.20 a.u.

 SYSTEM =  ./                                      
 POSCAR =  Ge Se                                   

 Startparameter for this run:
   NWRITE =      2    write-flag & timer
   PREC   = normal    normal or accurate (medium, high low for compatibility)
   ISTART =      0    job   : 0-new  1-cont  2-samecut
   ICHARG =      2    charge: 1-file 2-atom 10-const
   ISPIN  =      1    spin polarized calculation?
   LNONCOLLINEAR =      F non collinear calculations
   LSORBIT =      F    spin-orbit coupling
   INIWAV =      1    electr: 0-lowe 1-rand  2-diag
   LASPH  =      T    aspherical Exc in radial PAW
 Electronic Relaxation 1
   ENCUT  =  520.0 eV  38.22 Ry    6.18 a.u.   7.17  8.42 20.61*2*pi/ulx,y,z
   ENINI  =  520.0     initial cutoff
   ENAUG  =  446.8 eV  augmentation charge cutoff
   NELM   =    100;   NELMIN=  2; NELMDL= -5     # of ELM steps 
   EDIFF  = 0.1E-05   stopping-criterion for ELM
   LREAL  =      F    real-space projection
   NLSPLINE    = F    spline interpolate recip. space projectors
   LCOMPAT=      F    compatible to vasp.4.4
   GGA_COMPAT  = T    GGA compatible to vasp.4.4-vasp.4.6
   LMAXPAW     = -100 max onsite density
   LMAXMIX     =    4 max onsite mixed and CHGCAR
   VOSKOWN=      0    Vosko Wilk Nusair interpolation
   ROPT   =    0.00000   0.00000
 Ionic relaxation
   EDIFFG = 0.1E-04   stopping-criterion for IOM
   NSW    =      0    number of steps for IOM
   NBLOCK =      1;   KBLOCK =      1    inner block; outer block 
   IBRION =     -1    ionic relax: 0-MD 1-quasi-New 2-CG
   NFREE  =      0    steps in history (QN), initial steepest desc. (CG)
   ISIF   =      2    stress and relaxation
   IWAVPR =     10    prediction:  0-non 1-charg 2-wave 3-comb
   ISYM   =      0    0-nonsym 1-usesym 2-fastsym
   LCORR  =      T    Harris-Foulkes like correction to forces

   POTIM  = 0.5000    time-step for ionic-motion
   TEIN   =    0.0    initial temperature
   TEBEG  =    0.0;   TEEND  =   0.0 temperature during run
   SMASS  =  -3.00    Nose mass-parameter (am)
   estimated Nose-frequenzy (Omega)   =  0.10E-29 period in steps = 0.13E+47 mass=  -0.340E-27a.u.
   SCALEE = 1.0000    scale energy and forces
   NPACO  =    256;   APACO  = 10.0  distance and # of slots for P.C.
   PSTRESS=    0.0 pullay stress

  Mass of Ions in am
   POMASS =  72.61 78.96
  Ionic Valenz
   ZVAL   =   4.00  6.00
  Atomic Wigner-Seitz radii
   RWIGS  =  -1.00 -1.00
  virtual crystal weights 
   VCA    =   1.00  1.00
   NELECT =      40.0000    total number of electrons
   NUPDOWN=      -1.0000    fix difference up-down

 DOS related values:
   EMIN   =  10.00;   EMAX   =-10.00  energy-range for DOS
   EFERMI =   0.00;   METHOD = LEGACY      
   ISMEAR =     0;   SIGMA  =   0.05  broadening in eV -4-tet -1-fermi 0-gaus

 Electronic relaxation 2 (details)
   IALGO  =     38    algorithm
   LDIAG  =      T    sub-space diagonalisation (order eigenvalues)
   LSUBROT=      F    optimize rotation matrix (better conditioning)
   TURBO    =      0    0=normal 1=particle mesh
   IRESTART =      0    0=no restart 2=restart with 2 vectors
   NREBOOT  =      0    no. of reboots
   NMIN     =      0    reboot dimension
   EREF     =   0.00    reference energy to select bands
   IMIX   =      4    mixing-type and parameters
     AMIX     =   0.40;   BMIX     =  1.00
     AMIX_MAG =   1.60;   BMIX_MAG =  1.00
     AMIN     =   0.10
     WC   =   100.;   INIMIX=   1;  MIXPRE=   1;  MAXMIX= -45

 Intra band minimization:
   WEIMIN = 0.0000     energy-eigenvalue tresh-hold
   EBREAK =  0.78E-08  absolut break condition
   DEPER  =   0.30     relativ break condition  

   TIME   =   0.40     timestep for ELM

  volume/ion in A,a.u.               =      24.20       163.30
  Fermi-wavevector in a.u.,A,eV,Ry     =   0.967831  1.828935 12.744535  0.936697
  Thomas-Fermi vector in A             =   2.097750
 
 Write flags
   LWAVE        =      F    write WAVECAR
   LDOWNSAMPLE  =      F    k-point downsampling of WAVECAR
   LCHARG       =      F    write CHGCAR
   LVTOT        =      F    write LOCPOT, total local potential
   LVHAR        =      F    write LOCPOT, Hartree potential only
   LELF         =      F    write electronic localiz. function (ELF)
   LORBIT       =      0    0 simple, 1 ext, 2 COOP (PROOUT), +10 PAW based schemes


 Dipole corrections
   LMONO  =      F    monopole corrections only (constant potential shift)
   LDIPOL =      F    correct potential (dipole corrections)
   IDIPOL =      0    1-x, 2-y, 3-z, 4-all directions 
   EPSILON=  1.0000000 bulk dielectric constant

 Exchange correlation treatment:
   GGA     =    PE    GGA type
   LEXCH   =     8    internal setting for exchange type
   LIBXC   =     F    Libxc                    
   VOSKOWN =     0    Vosko Wilk Nusair interpolation
   LHFCALC =     F    Hartree Fock is set to
   LHFONE  =     F    Hartree Fock one center treatment
   AEXX    =    0.0000 exact exchange contribution

 Linear response parameters
   LEPSILON=     F    determine dielectric tensor
   LRPA    =     F    only Hartree local field effects (RPA)
   LNABLA  =     F    use nabla operator in PAW spheres
   LVEL    =     F    velocity operator in full k-point grid
   CSHIFT  =0.1000    complex shift for real part using Kramers Kronig
   OMEGAMAX=  -1.0    maximum frequency
   DEG_THRESHOLD= 0.2000000E-02 threshold for treating states as degnerate
   RTIME   =   -0.100 relaxation time in fs
  (WPLASMAI=    0.000 imaginary part of plasma frequency in eV, 0.658/RTIME)
   DFIELD  = 0.0000000 0.0000000 0.0000000 field for delta impulse in time
 
  Optional k-point grid parameters
   LKPOINTS_OPT  =     F    use optional k-point grid
   KPOINTS_OPT_MODE=     1    mode for optional k-point grid
 
 Orbital magnetization related:
   ORBITALMAG=     F  switch on orbital magnetization
   LCHIMAG   =     F  perturbation theory with respect to B field
   DQ        =  0.001000  dq finite difference perturbation B field
   LLRAUG    =     F  two centre corrections for induced B field
   LBONE     =     F  B-component reconstruction in AE one-centre
   LVGVCALC  =     T  calculate vGv susceptibility
   LVGVAPPL  =     F  apply vGv susceptibility instead of pGv for G=0

 Random number generation:
   RANDOM_GENERATOR = DEFAULT
   PCG_SEED         = not used


--------------------------------------------------------------------------------------------------------


 Static calculation
 charge density and potential will be updated during run
 non-spin polarized calculation
 Variant of blocked Davidson
 Davidson routine will perform the subspace rotation
 perform sub-space diagonalisation
    after iterative eigenvector-optimisation
 modified Broyden-mixing scheme, WC =      100.0
 initial mixing is a Kerker type mixing with AMIX =  0.4000 and BMIX =      1.0000
 Hartree-type preconditioning will be used
 using additional bands            12
 reciprocal scheme for non local part
 use partial core corrections
 calculate Harris-corrections to forces 
   (improved forces if not selfconsistent)
 use gradient corrections 
 use of overlap-Matrix (Vanderbilt PP)
 Gauss-broadening in eV      SIGMA  =   0.05


--------------------------------------------------------------------------------------------------------


  energy-cutoff  :      520.00
  volume of cell :      193.59
      direct lattice vectors                 reciprocal lattice vectors
     3.858100176  0.000000000  0.000000000     0.259194929  0.000000000  0.000000000
     0.000000000  4.526575088  0.000000000     0.000000000  0.220917577  0.000000000
     0.000000000  0.000000000 11.085176468     0.000000000  0.000000000  0.090210562

  length of vectors
     3.858100176  4.526575088 11.085176468     0.259194929  0.220917577  0.090210562


 
 k-points in units of 2pi/SCALE and weight: KPOINTS created by Atomic Simulation Env
   0.00000000  0.00000000  0.00000000       0.014
   0.04319915  0.00000000  0.00000000       0.028
   0.08639831  0.00000000  0.00000000       0.028
   0.12959746  0.00000000  0.00000000       0.014
   0.00000000  0.03681960  0.00000000       0.028
   0.04319915  0.03681960  0.00000000       0.028
   0.04319915 -0.03681960  0.00000000       0.028
   0.08639831  0.03681960  0.00000000       0.028
   0.08639831 -0.03681960  0.00000000       0.028
   0.12959746  0.03681960  0.00000000       0.028
   0.00000000  0.07363919  0.00000000       0.028
   0.04319915  0.07363919  0.00000000       0.028
   0.04319915 -0.07363919  0.00000000       0.028
   0.08639831  0.07363919  0.00000000       0.028
   0.08639831 -0.07363919  0.00000000       0.028
   0.12959746  0.07363919  0.00000000       0.028
   0.00000000  0.11045879  0.00000000       0.014
   0.04319915  0.11045879  0.00000000       0.028
   0.08639831  0.11045879  0.00000000       0.028
   0.12959746  0.11045879  0.00000000       0.014
   0.00000000  0.00000000  0.04510528       0.014
   0.04319915  0.00000000  0.04510528       0.028
   0.08639831  0.00000000  0.04510528       0.028
   0.12959746  0.00000000  0.04510528       0.014
   0.00000000  0.03681960  0.04510528       0.028
   0.04319915  0.03681960  0.04510528       0.028
   0.04319915 -0.03681960  0.04510528       0.028
   0.08639831  0.03681960  0.04510528       0.028
   0.08639831 -0.03681960  0.04510528       0.028
   0.12959746  0.03681960  0.04510528       0.028
   0.00000000  0.07363919  0.04510528       0.028
   0.04319915  0.07363919  0.04510528       0.028
   0.04319915 -0.07363919  0.04510528       0.028
   0.08639831  0.07363919  0.04510528       0.028
   0.08639831 -0.07363919  0.04510528       0.028
   0.12959746  0.07363919  0.04510528       0.028
   0.00000000  0.11045879  0.04510528       0.014
   0.04319915  0.11045879  0.04510528       0.028
   0.08639831  0.11045879  0.04510528       0.028
   0.12959746  0.11045879  0.04510528       0.014
 
 k-points in reciprocal lattice and weights: KPOINTS created by Atomic Simulation Env
   0.00000000  0.00000000  0.00000000       0.014
   0.16666667  0.00000000  0.00000000       0.028
   0.33333333  0.00000000  0.00000000       0.028
   0.50000000  0.00000000  0.00000000       0.014
   0.00000000  0.16666667  0.00000000       0.028
   0.16666667  0.16666667  0.00000000       0.028
   0.16666667 -0.16666667  0.00000000       0.028
   0.33333333  0.16666667  0.00000000       0.028
   0.33333333 -0.16666667  0.00000000       0.028
   0.50000000  0.16666667  0.00000000       0.028
   0.00000000  0.33333333  0.00000000       0.028
   0.16666667  0.33333333  0.00000000       0.028
   0.16666667 -0.33333333  0.00000000       0.028
   0.33333333  0.33333333  0.00000000       0.028
   0.33333333 -0.33333333  0.00000000       0.028
   0.50000000  0.33333333  0.00000000       0.028
   0.00000000  0.50000000  0.00000000       0.014
   0.16666667  0.50000000  0.00000000       0.028
   0.33333333  0.50000000  0.00000000       0.028
   0.50000000  0.50000000  0.00000000       0.014
   0.00000000  0.00000000  0.50000000       0.014
   0.16666667  0.00000000  0.50000000       0.028
   0.33333333  0.00000000  0.50000000       0.028
   0.50000000  0.00000000  0.50000000       0.014
   0.00000000  0.16666667  0.50000000       0.028
   0.16666667  0.16666667  0.50000000       0.028
   0.16666667 -0.16666667  0.50000000       0.028
   0.33333333  0.16666667  0.50000000       0.028
   0.33333333 -0.16666667  0.50000000       0.028
   0.50000000  0.16666667  0.50000000       0.028
   0.00000000  0.33333333  0.50000000       0.028
   0.16666667  0.33333333  0.50000000       0.028
   0.16666667 -0.33333333  0.50000000       0.028
   0.33333333  0.33333333  0.50000000       0.028
   0.33333333 -0.33333333  0.50000000       0.028
   0.50000000  0.33333333  0.50000000       0.028
   0.00000000  0.50000000  0.50000000       0.014
   0.16666667  0.50000000  0.50000000       0.028
   0.33333333  0.50000000  0.50000000       0.028
   0.50000000  0.50000000  0.50000000       0.014
 
 position of ions in fractional coordinates (direct lattice) 
   0.71376812  0.70832333  0.12298266
   0.21376812  0.20832333  0.37701734
   0.75000000  0.88587957  0.87701734
   0.25000000  0.38587957  0.62298266
   0.71376812  0.58751279  0.35238181
   0.21376812  0.08751279  0.14761819
   0.75000000  0.00669011  0.64761819
   0.25000000  0.50669011  0.85238181
 
 position of ions in cartesian coordinates  (Angst):
   2.75378889  3.20627875  1.36328454
   0.82473881  0.94299121  4.17930370
   2.89357513  4.01000037  9.72189193
   0.96452504  1.74671283  6.90587277
   2.75378889  2.65942075  3.90621455
   0.82473881  0.39613320  1.63637368
   2.89357513  0.03028329  7.17896192
   0.96452504  2.29357083  9.44880278
 


--------------------------------------------------------------------------------------------------------


 k-point   1 :   0.0000 0.0000 0.0000  plane waves:    5211
 k-point   2 :   0.1667 0.0000 0.0000  plane waves:    5225
 k-point   3 :   0.3333 0.0000 0.0000  plane waves:    5224
 k-point   4 :   0.5000 0.0000 0.0000  plane waves:    5258
 k-point   5 :   0.0000 0.1667 0.0000  plane waves:    5209
 k-point   6 :   0.1667 0.1667 0.0000  plane waves:    5201
 k-point   7 :   0.1667-0.1667 0.0000  plane waves:    5201
 k-point   8 :   0.3333 0.1667 0.0000  plane waves:    5230
 k-point   9 :   0.3333-0.1667 0.0000  plane waves:    5230
 k-point  10 :   0.5000 0.1667 0.0000  plane waves:    5236
 k-point  11 :   0.0000 0.3333 0.0000  plane waves:    5213
 k-point  12 :   0.1667 0.3333 0.0000  plane waves:    5199
 k-point  13 :   0.1667-0.3333 0.0000  plane waves:    5199
 k-point  14 :   0.3333 0.3333 0.0000  plane waves:    5211
 k-point  15 :   0.3333-0.3333 0.0000  plane waves:    5211
 k-point  16 :   0.5000 0.3333 0.0000  plane waves:    5230
 k-point  17 :   0.0000 0.5000 0.0000  plane waves:    5220
 k-point  18 :   0.1667 0.5000 0.0000  plane waves:    5208
 k-point  19 :   0.3333 0.5000 0.0000  plane waves:    5230
 k-point  20 :   0.5000 0.5000 0.0000  plane waves:    5180
 k-point  21 :   0.0000 0.0000 0.5000  plane waves:    5210
 k-point  22 :   0.1667 0.0000 0.5000  plane waves:    5178
 k-point  23 :   0.3333 0.0000 0.5000  plane waves:    5214
 k-point  24 :   0.5000 0.0000 0.5000  plane waves:    5232
 k-point  25 :   0.0000 0.1667 0.5000  plane waves:    5224
 k-point  26 :   0.1667 0.1667 0.5000  plane waves:    5210
 k-point  27 :   0.1667-0.1667 0.5000  plane waves:    5210
 k-point  28 :   0.3333 0.1667 0.5000  plane waves:    5196
 k-point  29 :   0.3333-0.1667 0.5000  plane waves:    5196
 k-point  30 :   0.5000 0.1667 0.5000  plane waves:    5224
 k-point  31 :   0.0000 0.3333 0.5000  plane waves:    5202
 k-point  32 :   0.1667 0.3333 0.5000  plane waves:    5214
 k-point  33 :   0.1667-0.3333 0.5000  plane waves:    5214
 k-point  34 :   0.3333 0.3333 0.5000  plane waves:    5216
 k-point  35 :   0.3333-0.3333 0.5000  plane waves:    5216
 k-point  36 :   0.5000 0.3333 0.5000  plane waves:    5216
 k-point  37 :   0.0000 0.5000 0.5000  plane waves:    5212
 k-point  38 :   0.1667 0.5000 0.5000  plane waves:    5192
 k-point  39 :   0.3333 0.5000 0.5000  plane waves:    5208
 k-point  40 :   0.5000 0.5000 0.5000  plane waves:    5208

 maximum and minimum number of plane-waves per node :      1076     1017

 maximum number of plane-waves:      5258
 maximum index in each direction: 
   IXMAX=    7   IYMAX=    8   IZMAX=   20
   IXMIN=   -7   IYMIN=   -8   IZMIN=  -21


 parallel 3D FFT for wavefunctions:
    minimum data exchange during FFTs selected (reduces bandwidth)
 parallel 3D FFT for charge:
    minimum data exchange during FFTs selected (reduces bandwidth)


 total amount of memory used by VASP MPI-rank0    41770. kBytes
=======================================================================

   base      :      30000. kBytes
   nonl-proj :       9056. kBytes
   fftplans  :        519. kBytes
   grid      :        766. kBytes
   one-center:         16. kBytes
   wavefun   :       1413. kBytes
 
     INWAV:  cpu time      0.0000: real time      0.0001
 Broyden mixing: mesh for mixing (old mesh)
   NGX = 15   NGY = 17   NGZ = 41
  (NGX  = 48   NGY  = 56   NGZ  =128)
  gives a total of  10455 points

 initial charge density was supplied:
 charge density of overlapping atoms calculated
 number of electron      40.0000000 magnetization 
 keeping initial charge density in first step


--------------------------------------------------------------------------------------------------------


 Maximum index for augmentation-charges           302 (set IRDMAX)


--------------------------------------------------------------------------------------------------------


 First call to EWALD:  gamma=   0.306
 Maximum number of real-space cells 4x 3x 2
 Maximum number of reciprocal cells 2x 2x 5

    FEWALD:  cpu time      0.0011: real time      0.0011


--------------------------------------- Ionic step        1  -------------------------------------------




--------------------------------------- Iteration      1(   1)  ---------------------------------------


    POTLOK:  cpu time      0.0111: real time      0.0112
    SETDIJ:  cpu time      0.2169: real time      0.2174
     EDDAV:  cpu time      0.3536: real time      0.3553
       DOS:  cpu time      0.0011: real time      0.0011
    --------------------------------------------
      LOOP:  cpu time      0.5826: real time      0.5849

 eigenvalue-minimisations  :  2560
 total energy-change (2. order) : 0.1632110E+03  (-0.1589620E+04)
 number of electron      40.0000000 magnetization 
 augmentation part       40.0000000 magnetization 

 Free energy of the ion-electron system (eV)
  ---------------------------------------------------
  alpha Z        PSCENC =        87.52689448
  Ewald energy   TEWEN  =     -1416.51066634
  -Hartree energ DENC   =      -129.20555670
  -exchange      EXHF   =         0.00000000
  -V(xc)+E(xc)   XCENC  =       -33.27423369
  PAW double counting   =      1193.78262552    -1080.73714043
  entropy T*S    EENTRO =        -0.00231835
  eigenvalues    EBANDS =        93.13675890
  atomic energy  EATOM  =      1448.49460871
  Solvation  Ediel_sol  =         0.00000000
  ---------------------------------------------------
  free energy    TOTEN  =       163.21097209 eV

  energy without entropy =      163.21329044  energy(sigma->0) =      163.21213127


--------------------------------------------------------------------------------------------------------




--------------------------------------- Iteration      1(   2)  ---------------------------------------


     EDDAV:  cpu time      0.4763: real time      0.4795
       DOS:  cpu time      0.0008: real time      0.0008
    --------------------------------------------
      LOOP:  cpu time      0.4771: real time      0.4803

 eigenvalue-minimisations  :  3616
 total energy-change (2. order) :-0.1858363E+03  (-0.1802727E+03)
 number of electron      40.0000000 magnetization 
 augmentation part       40.0000000 magnetization 

 Free energy of the ion-electron system (eV)
  ---------------------------------------------------
  alpha Z        PSCENC =        87.52689448
  Ewald energy   TEWEN  =     -1416.51066634
  -Hartree energ DENC   =      -129.20555670
  -exchange      EXHF   =         0.00000000
  -V(xc)+E(xc)   XCENC  =       -33.27423369
  PAW double counting   =      1193.78262552    -1080.73714043
  entropy T*S    EENTRO =        -0.00000009
  eigenvalues    EBANDS =       -92.70181283
  atomic energy  EATOM  =      1448.49460871
  Solvation  Ediel_sol  =         0.00000000
  ---------------------------------------------------
  free energy    TOTEN  =       -22.62528137 eV

  energy without entropy =      -22.62528129  energy(sigma->0) =      -22.62528133


--------------------------------------------------------------------------------------------------------




--------------------------------------- Iteration      1(   3)  ---------------------------------------


     EDDAV:  cpu time      0.5061: real time      0.5103
       DOS:  cpu time      0.0013: real time      0.0014
    --------------------------------------------
      LOOP:  cpu time      0.5075: real time      0.5117

 eigenvalue-minimisations  :  3248
 total energy-change (2. order) :-0.1132551E+02  (-0.1129104E+02)
 number of electron      40.0000000 magnetization 
 augmentation part       40.0000000 magnetization 

 Free energy of the ion-electron system (eV)
  ---------------------------------------------------
  alpha Z        PSCENC =        87.52689448
  Ewald energy   TEWEN  =     -1416.51066634
  -Hartree energ DENC   =      -129.20555670
  -exchange      EXHF   =         0.00000000
  -V(xc)+E(xc)   XCENC  =       -33.27423369
  PAW double counting   =      1193.78262552    -1080.73714043
  entropy T*S    EENTRO =        -0.00000002
  eigenvalues    EBANDS =      -104.02732343
  atomic energy  EATOM  =      1448.49460871
  Solvation  Ediel_sol  =         0.00000000
  ---------------------------------------------------
  free energy    TOTEN  =       -33.95079191 eV

  energy without entropy =      -33.95079189  energy(sigma->0) =      -33.95079190


--------------------------------------------------------------------------------------------------------




--------------------------------------- Iteration      1(   4)  ---------------------------------------


     EDDAV:  cpu time      0.4454: real time      0.4522
       DOS:  cpu time      0.0008: real time      0.0008
    --------------------------------------------
      LOOP:  cpu time      0.4462: real time      0.4530

 eigenvalue-minimisations  :  3200
 total energy-change (2. order) :-0.9028911E-01  (-0.9026948E-01)
 number of electron      40.0000000 magnetization 
 augmentation part       40.0000000 magnetization 

 Free energy of the ion-electron system (eV)
  ---------------------------------------------------
  alpha Z        PSCENC =        87.52689448
  Ewald energy   TEWEN  =     -1416.51066634
  -Hartree energ DENC   =      -129.20555670
  -exchange      EXHF   =         0.00000000
  -V(xc)+E(xc)   XCENC  =       -33.27423369
  PAW double counting   =      1193.78262552    -1080.73714043
  entropy T*S    EENTRO =        -0.00000002
  eigenvalues    EBANDS =      -104.11761254
  atomic energy  EATOM  =      1448.49460871
  Solvation  Ediel_sol  =         0.00000000
  ---------------------------------------------------
  free energy    TOTEN  =       -34.04108102 eV

  energy without entropy =      -34.04108100  energy(sigma->0) =      -34.04108101


--------------------------------------------------------------------------------------------------------




--------------------------------------- Iteration      1(   5)  ---------------------------------------


     EDDAV:  cpu time      0.4804: real time      0.4828
       DOS:  cpu time      0.0007: real time      0.0007
    CHARGE:  cpu time      0.0088: real time      0.0090
    MIXING:  cpu time      0.0007: real time      0.0007
    --------------------------------------------
      LOOP:  cpu time      0.4906: real time      0.4932

 eigenvalue-minimisations  :  3344
 total energy-change (2. order) :-0.6077467E-03  (-0.6076976E-03)
 number of electron      39.9999996 magnetization 
 augmentation part       -7.3841601 magnetization 

 Broyden mixing:
  rms(total) = 0.64021E+00    rms(broyden)= 0.64021E+00
  rms(prec ) = 0.71851E+00
  weight for this iteration     100.00

 Free energy of the ion-electron system (eV)
  ---------------------------------------------------
  alpha Z        PSCENC =        87.52689448
  Ewald energy   TEWEN  =     -1416.51066634
  -Hartree energ DENC   =      -129.20555670
  -exchange      EXHF   =         0.00000000
  -V(xc)+E(xc)   XCENC  =       -33.27423369
  PAW double counting   =      1193.78262552    -1080.73714043
  entropy T*S    EENTRO =        -0.00000002
  eigenvalues    EBANDS =      -104.11822029
  atomic energy  EATOM  =      1448.49460871
  Solvation  Ediel_sol  =         0.00000000
  ---------------------------------------------------
  free energy    TOTEN  =       -34.04168877 eV

  energy without entropy =      -34.04168874  energy(sigma->0) =      -34.04168876


--------------------------------------------------------------------------------------------------------




--------------------------------------- Iteration      1(   6)  ---------------------------------------


    POTLOK:  cpu time      0.0103: real time      0.0104
    SETDIJ:  cpu time      0.2202: real time      0.2211
     EDDAV:  cpu time      0.4313: real time      0.4337
       DOS:  cpu time      0.0009: real time      0.0009
    CHARGE:  cpu time      0.0086: real time      0.0087
    MIXING:  cpu time      0.0006: real time      0.0006
    --------------------------------------------
      LOOP:  cpu time      0.6719: real time      0.6754

 eigenvalue-minimisations  :  3296
 total energy-change (2. order) : 0.3419742E+00  (-0.6782559E-01)
 number of electron      39.9999996 magnetization 
 augmentation part       -7.3355112 magnetization 

 Broyden mixing:
  rms(total) = 0.40410E+00    rms(broyden)= 0.40410E+00
  rms(prec ) = 0.42548E+00
  weight for this iteration     100.00

 eigenvalues of (default mixing * dielectric matrix)
  average eigenvalue GAMMA=   2.2404
  2.2404

 Free energy of the ion-electron system (eV)
  ---------------------------------------------------
  alpha Z        PSCENC =        87.52689448
  Ewald energy   TEWEN  =     -1416.51066634
  -Hartree energ DENC   =      -134.62533749
  -exchange      EXHF   =         0.00000000
  -V(xc)+E(xc)   XCENC  =       -32.67670425
  PAW double counting   =      1459.64672011    -1346.92831798
  entropy T*S    EENTRO =        -0.00000180
  eigenvalues    EBANDS =       -98.62691005
  atomic energy  EATOM  =      1448.49460871
  Solvation  Ediel_sol  =         0.00000000
  ---------------------------------------------------
  free energy    TOTEN  =       -33.69971461 eV

  energy without entropy =      -33.69971282  energy(sigma->0) =      -33.69971371


--------------------------------------------------------------------------------------------------------




--------------------------------------- Iteration      1(   7)  ---------------------------------------


    POTLOK:  cpu time      0.0102: real time      0.0103
    SETDIJ:  cpu time      0.2204: real time      0.2209
     EDDAV:  cpu time      0.4164: real time      0.4185
       DOS:  cpu time      0.0009: real time      0.0009
    CHARGE:  cpu time      0.0089: real time      0.0089
    MIXING:  cpu time      0.0006: real time      0.0006
    --------------------------------------------
      LOOP:  cpu time      0.6574: real time      0.6602

 eigenvalue-minimisations  :  2912
 total energy-change (2. order) : 0.1415055E-01  (-0.2110800E-01)
 number of electron      39.9999996 magnetization 
 augmentation part       -7.3220127 magnetization 

 Broyden mixing:
  rms(total) = 0.11916E+00    rms(broyden)= 0.11916E+00
  rms(prec ) = 0.12757E+00
  weight for this iteration     100.00

 eigenvalues of (default mixing * dielectric matrix)
  average eigenvalue GAMMA=   1.7808
  1.1869  2.3746

 Free energy of the ion-electron system (eV)
  ---------------------------------------------------
  alpha Z        PSCENC =        87.52689448
  Ewald energy   TEWEN  =     -1416.51066634
  -Hartree energ DENC   =      -137.33860759
  -exchange      EXHF   =         0.00000000
  -V(xc)+E(xc)   XCENC  =       -32.18392476
  PAW double counting   =      1798.09439654    -1685.63680980
  entropy T*S    EENTRO =        -0.00000733
  eigenvalues    EBANDS =       -96.13144797
  atomic energy  EATOM  =      1448.49460871
  Solvation  Ediel_sol  =         0.00000000
  ---------------------------------------------------
  free energy    TOTEN  =       -33.68556406 eV

  energy without entropy =      -33.68555673  energy(sigma->0) =      -33.68556040


--------------------------------------------------------------------------------------------------------




--------------------------------------- Iteration      1(   8)  ---------------------------------------


    POTLOK:  cpu time      0.0104: real time      0.0105
    SETDIJ:  cpu time      0.2173: real time      0.2179
     EDDAV:  cpu time      0.4289: real time      0.4308
       DOS:  cpu time      0.0009: real time      0.0009
    CHARGE:  cpu time      0.0087: real time      0.0088
    MIXING:  cpu time      0.0006: real time      0.0006
    --------------------------------------------
      LOOP:  cpu time      0.6668: real time      0.6694

 eigenvalue-minimisations  :  3184
 total energy-change (2. order) : 0.1373759E-02  (-0.1930323E-02)
 number of electron      39.9999996 magnetization 
 augmentation part       -7.3289089 magnetization 

 Broyden mixing:
  rms(total) = 0.17979E-01    rms(broyden)= 0.17979E-01
  rms(prec ) = 0.21380E-01
  weight for this iteration     100.00

 eigenvalues of (default mixing * dielectric matrix)
  average eigenvalue GAMMA=   1.7113
  2.5163  1.3089  1.3089

 Free energy of the ion-electron system (eV)
  ---------------------------------------------------
  alpha Z        PSCENC =        87.52689448
  Ewald energy   TEWEN  =     -1416.51066634
  -Hartree energ DENC   =      -137.46355177
  -exchange      EXHF   =         0.00000000
  -V(xc)+E(xc)   XCENC  =       -32.05170408
  PAW double counting   =      1925.97220380    -1813.57619391
  entropy T*S    EENTRO =        -0.00000748
  eigenvalues    EBANDS =       -96.07577371
  atomic energy  EATOM  =      1448.49460871
  Solvation  Ediel_sol  =         0.00000000
  ---------------------------------------------------
  free energy    TOTEN  =       -33.68419030 eV

  energy without entropy =      -33.68418283  energy(sigma->0) =      -33.68418656


--------------------------------------------------------------------------------------------------------




--------------------------------------- Iteration      1(   9)  ---------------------------------------


    POTLOK:  cpu time      0.0102: real time      0.0104
    SETDIJ:  cpu time      0.2194: real time      0.2202
     EDDAV:  cpu time      0.4408: real time      0.4427
       DOS:  cpu time      0.0009: real time      0.0009
    CHARGE:  cpu time      0.0086: real time      0.0086
    MIXING:  cpu time      0.0006: real time      0.0006
    --------------------------------------------
      LOOP:  cpu time      0.6805: real time      0.6835

 eigenvalue-minimisations  :  3312
 total energy-change (2. order) :-0.3883586E-03  (-0.2864551E-03)
 number of electron      39.9999996 magnetization 
 augmentation part       -7.3281708 magnetization 

 Broyden mixing:
  rms(total) = 0.66467E-02    rms(broyden)= 0.66467E-02
  rms(prec ) = 0.73052E-02
  weight for this iteration     100.00

 eigenvalues of (default mixing * dielectric matrix)
  average eigenvalue GAMMA=   1.7185
  2.2590  2.2590  1.1780  1.1780

 Free energy of the ion-electron system (eV)
  ---------------------------------------------------
  alpha Z        PSCENC =        87.52689448
  Ewald energy   TEWEN  =     -1416.51066634
  -Hartree energ DENC   =      -137.75496624
  -exchange      EXHF   =         0.00000000
  -V(xc)+E(xc)   XCENC  =       -32.01104196
  PAW double counting   =      1941.39685980    -1829.01095992
  entropy T*S    EENTRO =        -0.00000738
  eigenvalues    EBANDS =       -95.81529982
  atomic energy  EATOM  =      1448.49460871
  Solvation  Ediel_sol  =         0.00000000
  ---------------------------------------------------
  free energy    TOTEN  =       -33.68457866 eV

  energy without entropy =      -33.68457128  energy(sigma->0) =      -33.68457497


--------------------------------------------------------------------------------------------------------




--------------------------------------- Iteration      1(  10)  ---------------------------------------


    POTLOK:  cpu time      0.0104: real time      0.0106
    SETDIJ:  cpu time      0.2161: real time      0.2166
     EDDAV:  cpu time      0.4433: real time      0.4456
       DOS:  cpu time      0.0009: real time      0.0009
    CHARGE:  cpu time      0.0082: real time      0.0083
    MIXING:  cpu time      0.0006: real time      0.0006
    --------------------------------------------
      LOOP:  cpu time      0.6795: real time      0.6826

 eigenvalue-minimisations  :  3344
 total energy-change (2. order) :-0.9039903E-04  (-0.2167922E-04)
 number of electron      39.9999996 magnetization 
 augmentation part       -7.3280841 magnetization 

 Broyden mixing:
  rms(total) = 0.24256E-02    rms(broyden)= 0.24256E-02
  rms(prec ) = 0.29573E-02
  weight for this iteration     100.00

 eigenvalues of (default mixing * dielectric matrix)
  average eigenvalue GAMMA=   1.7343
  2.6804  2.3012  1.1609  1.2645  1.2645

 Free energy of the ion-electron system (eV)
  ---------------------------------------------------
  alpha Z        PSCENC =        87.52689448
  Ewald energy   TEWEN  =     -1416.51066634
  -Hartree energ DENC   =      -137.78865932
  -exchange      EXHF   =         0.00000000
  -V(xc)+E(xc)   XCENC  =       -32.00823773
  PAW double counting   =      1934.47352074    -1822.08250297
  entropy T*S    EENTRO =        -0.00000693
  eigenvalues    EBANDS =       -95.78961969
  atomic energy  EATOM  =      1448.49460871
  Solvation  Ediel_sol  =         0.00000000
  ---------------------------------------------------
  free energy    TOTEN  =       -33.68466906 eV

  energy without entropy =      -33.68466213  energy(sigma->0) =      -33.68466560


--------------------------------------------------------------------------------------------------------




--------------------------------------- Iteration      1(  11)  ---------------------------------------


    POTLOK:  cpu time      0.0102: real time      0.0103
    SETDIJ:  cpu time      0.2183: real time      0.2188
     EDDAV:  cpu time      0.4591: real time      0.4618
       DOS:  cpu time      0.0009: real time      0.0009
    CHARGE:  cpu time      0.0297: real time      0.0298
    MIXING:  cpu time      0.0006: real time      0.0006
    --------------------------------------------
      LOOP:  cpu time      0.7187: real time      0.7222

 eigenvalue-minimisations  :  3136
 total energy-change (2. order) :-0.2859677E-04  (-0.3785134E-05)
 number of electron      39.9999996 magnetization 
 augmentation part       -7.3282106 magnetization 

 Broyden mixing:
  rms(total) = 0.11904E-02    rms(broyden)= 0.11904E-02
  rms(prec ) = 0.12935E-02
  weight for this iteration     100.00

 eigenvalues of (default mixing * dielectric matrix)
  average eigenvalue GAMMA=   1.7119
  2.5611  2.2089  2.2089  1.1986  1.1986  0.8952

 Free energy of the ion-electron system (eV)
  ---------------------------------------------------
  alpha Z        PSCENC =        87.52689448
  Ewald energy   TEWEN  =     -1416.51066634
  -Hartree energ DENC   =      -137.81952434
  -exchange      EXHF   =         0.00000000
  -V(xc)+E(xc)   XCENC  =       -32.00143019
  PAW double counting   =      1936.32678272    -1823.93638102
  entropy T*S    EENTRO =        -0.00000688
  eigenvalues    EBANDS =       -95.76497480
  atomic energy  EATOM  =      1448.49460871
  Solvation  Ediel_sol  =         0.00000000
  ---------------------------------------------------
  free energy    TOTEN  =       -33.68469766 eV

  energy without entropy =      -33.68469078  energy(sigma->0) =      -33.68469422


--------------------------------------------------------------------------------------------------------




--------------------------------------- Iteration      1(  12)  ---------------------------------------


    POTLOK:  cpu time      0.0103: real time      0.0104
    SETDIJ:  cpu time      0.2229: real time      0.2233
     EDDAV:  cpu time      0.4729: real time      0.4750
       DOS:  cpu time      0.0007: real time      0.0007
    CHARGE:  cpu time      0.0085: real time      0.0087
    MIXING:  cpu time      0.0006: real time      0.0006
    --------------------------------------------
      LOOP:  cpu time      0.7159: real time      0.7188

 eigenvalue-minimisations  :  3504
 total energy-change (2. order) :-0.1056686E-05  (-0.4603594E-06)
 number of electron      39.9999996 magnetization 
 augmentation part       -7.3281070 magnetization 

 Broyden mixing:
  rms(total) = 0.34103E-03    rms(broyden)= 0.34103E-03
  rms(prec ) = 0.38963E-03
  weight for this iteration     100.00

 eigenvalues of (default mixing * dielectric matrix)
  average eigenvalue GAMMA=   1.7029
  2.9013  2.4439  1.8871  0.9746  1.3554  1.1790  1.1790

 Free energy of the ion-electron system (eV)
  ---------------------------------------------------
  alpha Z        PSCENC =        87.52689448
  Ewald energy   TEWEN  =     -1416.51066634
  -Hartree energ DENC   =      -137.83284844
  -exchange      EXHF   =         0.00000000
  -V(xc)+E(xc)   XCENC  =       -32.00056118
  PAW double counting   =      1935.59353341    -1823.20287273
  entropy T*S    EENTRO =        -0.00000693
  eigenvalues    EBANDS =       -95.75277969
  atomic energy  EATOM  =      1448.49460871
  Solvation  Ediel_sol  =         0.00000000
  ---------------------------------------------------
  free energy    TOTEN  =       -33.68469871 eV

  energy without entropy =      -33.68469178  energy(sigma->0) =      -33.68469525


--------------------------------------------------------------------------------------------------------




--------------------------------------- Iteration      1(  13)  ---------------------------------------


    POTLOK:  cpu time      0.0103: real time      0.0105
    SETDIJ:  cpu time      0.2192: real time      0.2199
     EDDAV:  cpu time      0.3501: real time      0.3517
       DOS:  cpu time      0.0009: real time      0.0009
    --------------------------------------------
      LOOP:  cpu time      0.5805: real time      0.5830

 eigenvalue-minimisations  :  2032
 total energy-change (2. order) :-0.2930152E-06  (-0.9575422E-07)
 number of electron      39.9999996 magnetization 
 augmentation part       -7.3281070 magnetization 

 Free energy of the ion-electron system (eV)
  ---------------------------------------------------
  alpha Z        PSCENC =        87.52689448
  Ewald energy   TEWEN  =     -1416.51066634
  -Hartree energ DENC   =      -137.83720742
  -exchange      EXHF   =         0.00000000
  -V(xc)+E(xc)   XCENC  =       -32.00006394
  PAW double counting   =      1935.35854837    -1822.96767748
  entropy T*S    EENTRO =        -0.00000693
  eigenvalues    EBANDS =       -95.74912846
  atomic energy  EATOM  =      1448.49460871
  Solvation  Ediel_sol  =         0.00000000
  ---------------------------------------------------
  free energy    TOTEN  =       -33.68469901 eV

  energy without entropy =      -33.68469208  energy(sigma->0) =      -33.68469554


--------------------------------------------------------------------------------------------------------




 average (electrostatic) potential at core
  the test charge radii are     1.1631  1.0808
  (the norm of the test charge is              1.0000)
       1 -33.5006       2 -33.5006       3 -33.5006       4 -33.5006       5 -55.0010
       6 -55.0010       7 -55.0010       8 -55.0010
 
 
 
 E-fermi :   3.4156     XC(G=0):  -9.2737     alpha+bet : -8.7197

 Fermi energy:         3.4156251996

 k-point     1 :       0.0000    0.0000    0.0000
  band No.  band energies     occupation 
      1     -10.9936      2.00000
      2     -10.6673      2.00000
      3      -9.7242      2.00000
      4      -9.2651      2.00000
      5      -5.0499      2.00000
      6      -3.9730      2.00000
      7      -3.2484      2.00000
      8      -2.2166      2.00000
      9      -1.7093      2.00000
     10      -0.4569      2.00000
     11       0.0836      2.00000
     12       0.1117      2.00000
     13       0.2283      2.00000
     14       0.5094      2.00000
     15       1.2544      2.00000
     16       1.3084      2.00000
     17       1.8849      2.00000
     18       2.3555      2.00000
     19       2.4420      2.00000
     20       2.7034      2.00000
     21       3.5247      0.00204
     22       5.8113      0.00000
     23       5.8524      0.00000
     24       5.8836      0.00000
     25       6.0246      0.00000
     26       6.7810      0.00000
     27       7.3271      0.00000
     28       7.7447      0.00000
     29       8.1615      0.00000
     30       8.5391      0.00000
     31       8.7590      0.00000
     32       9.4774      0.00000

 k-point     2 :       0.1667    0.0000    0.0000
  band No.  band energies     occupation 
      1     -10.8026      2.00000
      2     -10.4896      2.00000
      3      -9.6074      2.00000
      4      -9.1985      2.00000
      5      -5.3104      2.00000
      6      -4.1690      2.00000
      7      -3.6099      2.00000
      8      -2.5641      2.00000
      9      -1.7417      2.00000
     10      -0.4014      2.00000
     11      -0.0344      2.00000
     12       0.0783      2.00000
     13       0.3212      2.00000
     14       0.4099      2.00000
     15       0.9256      2.00000
     16       1.5102      2.00000
     17       1.8400      2.00000
     18       2.1909      2.00000
     19       2.4750      2.00000
     20       2.7245      2.00000
     21       3.7281      0.00000
     22       5.1859      0.00000
     23       5.8956      0.00000
     24       6.5245      0.00000
     25       6.5860      0.00000
     26       6.5974      0.00000
     27       6.7792      0.00000
     28       7.5124      0.00000
     29       7.5335      0.00000
     30       7.6412      0.00000
     31       8.6360      0.00000
     32       9.1340      0.00000

 k-point     3 :       0.3333    0.0000    0.0000
  band No.  band energies     occupation 
      1     -10.2835      2.00000
      2     -10.0121      2.00000
      3      -9.4307      2.00000
      4      -9.1521      2.00000
      5      -5.8064      2.00000
      6      -4.6936      2.00000
      7      -4.5364      2.00000
      8      -3.5094      2.00000
      9      -1.3220      2.00000
     10      -0.3903      2.00000
     11       0.1032      2.00000
     12       0.4211      2.00000
     13       0.5865      2.00000
     14       0.8690      2.00000
     15       0.9531      2.00000
     16       1.3589      2.00000
     17       1.4633      2.00000
     18       2.1228      2.00000
     19       2.5474      2.00000
     20       2.6081      2.00000
     21       4.0594      0.00000
     22       4.2111      0.00000
     23       4.7961      0.00000
     24       5.2852      0.00000
     25       5.6594      0.00000
     26       5.8348      0.00000
     27       5.9509      0.00000
     28       6.6584      0.00000
     29       6.8293      0.00000
     30       6.8951      0.00000
     31       8.8433      0.00000
     32       9.5193      0.00000

 k-point     4 :       0.5000    0.0000    0.0000
  band No.  band energies     occupation 
      1      -9.6668      2.00000
      2      -9.6668      2.00000
      3      -9.4453      2.00000
      4      -9.4453      2.00000
      5      -5.6726      2.00000
      6      -5.6726      2.00000
      7      -4.3763      2.00000
      8      -4.3763      2.00000
      9      -0.5601      2.00000
     10      -0.5601      2.00000
     11       0.5779      2.00000
     12       0.5779      2.00000
     13       0.7347      2.00000
     14       0.7347      2.00000
     15       1.2740      2.00000
     16       1.2740      2.00000
     17       1.5815      2.00000
     18       1.5815      2.00000
     19       2.4270      2.00000
     20       2.4270      2.00000
     21       4.2118      0.00000
     22       4.2118      0.00000
     23       4.7968      0.00000
     24       4.7968      0.00000
     25       5.0665      0.00000
     26       5.0665      0.00000
     27       5.7681      0.00000
     28       5.7681      0.00000
     29       5.9992      0.00000
     30       5.9992      0.00000
     31       9.1565      0.00000
     32       9.1565      0.00000

 k-point     5 :       0.0000    0.1667    0.0000
  band No.  band energies     occupation 
      1     -10.8746      2.00000
      2     -10.5652      2.00000
      3      -9.7217      2.00000
      4      -9.3429      2.00000
      5      -5.2244      2.00000
      6      -4.2255      2.00000
      7      -3.7312      2.00000
      8      -2.6171      2.00000
      9      -1.6987      2.00000
     10      -0.0067      2.00000
     11       0.2425      2.00000
     12       0.4875      2.00000
     13       0.5591      2.00000
     14       0.6381      2.00000
     15       1.3477      2.00000
     16       1.6632      2.00000
     17       1.8547      2.00000
     18       1.9762      2.00000
     19       2.6013      2.00000
     20       2.9574      2.00000
     21       3.8833      0.00000
     22       5.0575      0.00000
     23       5.7905      0.00000
     24       5.8795      0.00000
     25       6.1255      0.00000
     26       6.4139      0.00000
     27       6.8625      0.00000
     28       7.4531      0.00000
     29       7.5745      0.00000
     30       8.2689      0.00000
     31       8.3577      0.00000
     32       9.3260      0.00000

 k-point     6 :       0.1667    0.1667    0.0000
  band No.  band energies     occupation 
      1     -10.6882      2.00000
      2     -10.3938      2.00000
      3      -9.6050      2.00000
      4      -9.2714      2.00000
      5      -5.3718      2.00000
      6      -4.2901      2.00000
      7      -3.9438      2.00000
      8      -2.8556      2.00000
      9      -1.5692      2.00000
     10      -0.7592      2.00000
     11      -0.5067      2.00000
     12       0.1997      2.00000
     13       0.8781      2.00000
     14       0.9699      2.00000
     15       1.1650      2.00000
     16       1.2253      2.00000
     17       1.6289      2.00000
     18       2.3316      2.00000
     19       2.6240      2.00000
     20       2.8854      2.00000
     21       4.0603      0.00000
     22       5.0966      0.00000
     23       5.3774      0.00000
     24       5.8495      0.00000
     25       6.4560      0.00000
     26       6.5961      0.00000
     27       7.0159      0.00000
     28       7.4331      0.00000
     29       7.4764      0.00000
     30       7.6273      0.00000
     31       8.4821      0.00000
     32       9.2686      0.00000

 k-point     7 :       0.1667   -0.1667    0.0000
  band No.  band energies     occupation 
      1     -10.6892      2.00000
      2     -10.3930      2.00000
      3      -9.6070      2.00000
      4      -9.2687      2.00000
      5      -5.3830      2.00000
      6      -4.2770      2.00000
      7      -3.8991      2.00000
      8      -2.9261      2.00000
      9      -1.5695      2.00000
     10      -0.7257      2.00000
     11      -0.5597      2.00000
     12       0.2360      2.00000
     13       0.8752      2.00000
     14       0.9951      2.00000
     15       1.1752      2.00000
     16       1.2274      2.00000
     17       1.7010      2.00000
     18       2.2758      2.00000
     19       2.6686      2.00000
     20       2.7580      2.00000
     21       4.0670      0.00000
     22       5.1259      0.00000
     23       5.4372      0.00000
     24       5.7844      0.00000
     25       6.4378      0.00000
     26       6.6458      0.00000
     27       6.7981      0.00000
     28       7.5338      0.00000
     29       7.5366      0.00000
     30       7.6994      0.00000
     31       8.5724      0.00000
     32       9.3840      0.00000

 k-point     8 :       0.3333    0.1667    0.0000
  band No.  band energies     occupation 
      1     -10.1882      2.00000
      2      -9.9389      2.00000
      3      -9.4205      2.00000
      4      -9.1947      2.00000
      5      -5.7161      2.00000
      6      -4.7427      2.00000
      7      -4.4818      2.00000
      8      -3.5732      2.00000
      9      -1.1778      2.00000
     10      -0.9756      2.00000
     11      -0.8156      2.00000
     12       0.0847      2.00000
     13       0.6048      2.00000
     14       0.8193      2.00000
     15       0.8349      2.00000
     16       1.2400      2.00000
     17       1.6514      2.00000
     18       1.8485      2.00000
     19       2.3006      2.00000
     20       2.6860      2.00000
     21       4.1873      0.00000
     22       4.9266      0.00000
     23       4.9270      0.00000
     24       5.3937      0.00000
     25       5.7125      0.00000
     26       6.3847      0.00000
     27       6.5823      0.00000
     28       6.9143      0.00000
     29       7.4228      0.00000
     30       8.0564      0.00000
     31       8.5593      0.00000
     32       9.2096      0.00000

 k-point     9 :       0.3333   -0.1667    0.0000
  band No.  band energies     occupation 
      1     -10.1904      2.00000
      2      -9.9372      2.00000
      3      -9.4243      2.00000
      4      -9.1894      2.00000
      5      -5.7352      2.00000
      6      -4.7050      2.00000
      7      -4.4598      2.00000
      8      -3.6238      2.00000
      9      -1.1861      2.00000
     10      -0.9618      2.00000
     11      -0.8547      2.00000
     12       0.0998      2.00000
     13       0.5687      2.00000
     14       0.8392      2.00000
     15       0.9689      2.00000
     16       1.2138      2.00000
     17       1.6548      2.00000
     18       1.8636      2.00000
     19       2.3619      2.00000
     20       2.4974      2.00000
     21       4.2204      0.00000
     22       4.9279      0.00000
     23       4.9769      0.00000
     24       5.3813      0.00000
     25       5.6063      0.00000
     26       6.3789      0.00000
     27       6.4502      0.00000
     28       7.0969      0.00000
     29       7.5600      0.00000
     30       8.0994      0.00000
     31       8.7623      0.00000
     32       8.9441      0.00000

 k-point    10 :       0.5000    0.1667    0.0000
  band No.  band energies     occupation 
      1      -9.6168      2.00000
      2      -9.6160      2.00000
      3      -9.4207      2.00000
      4      -9.4204      2.00000
      5      -5.6017      2.00000
      6      -5.5786      2.00000
      7      -4.3339      2.00000
      8      -4.3072      2.00000
      9      -0.6756      2.00000
     10      -0.6489      2.00000
     11      -0.1942      2.00000
     12      -0.1897      2.00000
     13       0.2039      2.00000
     14       0.3098      2.00000
     15       0.6835      2.00000
     16       0.6872      2.00000
     17       1.6942      2.00000
     18       1.7324      2.00000
     19       2.4419      2.00000
     20       2.5492      2.00000
     21       4.3093      0.00000
     22       4.3213      0.00000
     23       5.1326      0.00000
     24       5.1624      0.00000
     25       6.0996      0.00000
     26       6.2411      0.00000
     27       6.3815      0.00000
     28       6.3964      0.00000
     29       6.9645      0.00000
     30       7.0236      0.00000
     31       8.5506      0.00000
     32       8.8259      0.00000

 k-point    11 :       0.0000    0.3333    0.0000
  band No.  band energies     occupation 
      1     -10.5436      2.00000
      2     -10.2927      2.00000
      3      -9.7878      2.00000
      4      -9.6015      2.00000
      5      -5.4398      2.00000
      6      -4.6102      2.00000
      7      -4.4676      2.00000
      8      -3.5059      2.00000
      9      -1.2862      2.00000
     10       0.3540      2.00000
     11       0.6234      2.00000
     12       0.9358      2.00000
     13       1.0116      2.00000
     14       1.2315      2.00000
     15       1.3633      2.00000
     16       1.7109      2.00000
     17       1.7255      2.00000
     18       2.6696      2.00000
     19       2.7853      2.00000
     20       3.2995      1.99898
     21       4.1466      0.00000
     22       4.6760      0.00000
     23       5.0303      0.00000
     24       5.4091      0.00000
     25       5.8780      0.00000
     26       6.1325      0.00000
     27       6.3157      0.00000
     28       6.5676      0.00000
     29       6.6985      0.00000
     30       7.2822      0.00000
     31       8.4733      0.00000
     32       9.1402      0.00000

 k-point    12 :       0.1667    0.3333    0.0000
  band No.  band energies     occupation 
      1     -10.3728      2.00000
      2     -10.1399      2.00000
      3      -9.6650      2.00000
      4      -9.5096      2.00000
      5      -5.4227      2.00000
      6      -4.6251      2.00000
      7      -4.4001      2.00000
      8      -3.5345      2.00000
      9      -1.1031      2.00000
     10      -0.7569      2.00000
     11      -0.4943      2.00000
     12       0.1474      2.00000
     13       0.4427      2.00000
     14       0.6284      2.00000
     15       1.3364      2.00000
     16       1.7431      2.00000
     17       2.0699      2.00000
     18       2.2969      2.00000
     19       2.7031      2.00000
     20       2.9842      2.00000
     21       4.5473      0.00000
     22       5.2226      0.00000
     23       5.4234      0.00000
     24       5.7446      0.00000
     25       5.8533      0.00000
     26       6.3707      0.00000
     27       6.7499      0.00000
     28       7.1332      0.00000
     29       7.3712      0.00000
     30       7.9012      0.00000
     31       8.4767      0.00000
     32       9.1187      0.00000

 k-point    13 :       0.1667   -0.3333    0.0000
  band No.  band energies     occupation 
      1     -10.3748      2.00000
      2     -10.1382      2.00000
      3      -9.6680      2.00000
      4      -9.5057      2.00000
      5      -5.4409      2.00000
      6      -4.5876      2.00000
      7      -4.3809      2.00000
      8      -3.5815      2.00000
      9      -1.1295      2.00000
     10      -0.7157      2.00000
     11      -0.5489      2.00000
     12       0.2095      2.00000
     13       0.3982      2.00000
     14       0.7047      2.00000
     15       1.3153      2.00000
     16       1.7928      2.00000
     17       1.9666      2.00000
     18       2.3604      2.00000
     19       2.7029      2.00000
     20       2.9318      2.00000
     21       4.5566      0.00000
     22       5.2116      0.00000
     23       5.4955      0.00000
     24       5.7395      0.00000
     25       5.7814      0.00000
     26       6.3128      0.00000
     27       6.7389      0.00000
     28       7.1683      0.00000
     29       7.5186      0.00000
     30       7.8108      0.00000
     31       8.6129      0.00000
     32       8.9769      0.00000

 k-point    14 :       0.3333    0.3333    0.0000
  band No.  band energies     occupation 
      1      -9.9341      2.00000
      2      -9.7528      2.00000
      3      -9.4361      2.00000
      4      -9.3423      2.00000
      5      -5.4849      2.00000
      6      -4.9100      2.00000
      7      -4.3345      2.00000
      8      -3.7973      2.00000
      9      -1.5040      2.00000
     10      -1.2966      2.00000
     11      -0.8298      2.00000
     12      -0.5774      2.00000
     13      -0.4131      2.00000
     14       0.3182      2.00000
     15       0.5148      2.00000
     16       0.7825      2.00000
     17       1.1675      2.00000
     18       1.9596      2.00000
     19       2.2565      2.00000
     20       2.6578      2.00000
     21       4.4287      0.00000
     22       5.7138      0.00000
     23       5.7655      0.00000
     24       6.3544      0.00000
     25       6.8489      0.00000
     26       7.0085      0.00000
     27       7.5429      0.00000
     28       7.7178      0.00000
     29       7.9247      0.00000
     30       8.7287      0.00000
     31       8.8585      0.00000
     32       9.2202      0.00000

 k-point    15 :       0.3333   -0.3333    0.0000
  band No.  band energies     occupation 
      1      -9.9384      2.00000
      2      -9.7494      2.00000
      3      -9.4427      2.00000
      4      -9.3336      2.00000
      5      -5.5223      2.00000
      6      -4.8496      2.00000
      7      -4.2911      2.00000
      8      -3.8726      2.00000
      9      -1.4601      2.00000
     10      -1.3631      2.00000
     11      -0.8783      2.00000
     12      -0.5663      2.00000
     13      -0.3706      2.00000
     14       0.2554      2.00000
     15       0.7023      2.00000
     16       0.7552      2.00000
     17       1.1846      2.00000
     18       1.9196      2.00000
     19       2.3626      2.00000
     20       2.4551      2.00000
     21       4.4076      0.00000
     22       5.8158      0.00000
     23       5.8606      0.00000
     24       6.2122      0.00000
     25       6.7277      0.00000
     26       7.0415      0.00000
     27       7.6474      0.00000
     28       7.9049      0.00000
     29       7.9339      0.00000
     30       8.5736      0.00000
     31       9.0108      0.00000
     32       9.1381      0.00000

 k-point    16 :       0.5000    0.3333    0.0000
  band No.  band energies     occupation 
      1      -9.5009      2.00000
      2      -9.4988      2.00000
      3      -9.3809      2.00000
      4      -9.3807      2.00000
      5      -5.4307      2.00000
      6      -5.3822      2.00000
      7      -4.2418      2.00000
      8      -4.1850      2.00000
      9      -1.0359      2.00000
     10      -1.0200      2.00000
     11      -0.9740      2.00000
     12      -0.9617      2.00000
     13      -0.5127      2.00000
     14      -0.4646      2.00000
     15       0.1034      2.00000
     16       0.1602      2.00000
     17       1.1560      2.00000
     18       1.1980      2.00000
     19       2.2388      2.00000
     20       2.4581      2.00000
     21       4.9660      0.00000
     22       5.0388      0.00000
     23       6.7272      0.00000
     24       6.7792      0.00000
     25       6.9736      0.00000
     26       7.0342      0.00000
     27       7.4601      0.00000
     28       7.7355      0.00000
     29       8.4980      0.00000
     30       8.5107      0.00000
     31       8.8577      0.00000
     32       9.0011      0.00000

 k-point    17 :       0.0000    0.5000    0.0000
  band No.  band energies     occupation 
      1     -10.0958      2.00000
      2     -10.0958      2.00000
      3      -9.9519      2.00000
      4      -9.9519      2.00000
      5      -5.2641      2.00000
      6      -5.2641      2.00000
      7      -4.2199      2.00000
      8      -4.2199      2.00000
      9      -0.5470      2.00000
     10      -0.5470      2.00000
     11       1.0986      2.00000
     12       1.0986      2.00000
     13       1.3781      2.00000
     14       1.3781      2.00000
     15       1.7885      2.00000
     16       1.7885      2.00000
     17       2.2085      2.00000
     18       2.2085      2.00000
     19       2.9734      2.00000
     20       2.9734      2.00000
     21       4.5869      0.00000
     22       4.5869      0.00000
     23       5.2560      0.00000
     24       5.2560      0.00000
     25       5.6882      0.00000
     26       5.6882      0.00000
     27       5.9053      0.00000
     28       5.9053      0.00000
     29       6.4968      0.00000
     30       6.4968      0.00000
     31       8.8687      0.00000
     32       8.8687      0.00000

 k-point    18 :       0.1667    0.5000    0.0000
  band No.  band energies     occupation 
      1      -9.9522      2.00000
      2      -9.9504      2.00000
      3      -9.8282      2.00000
      4      -9.8269      2.00000
      5      -5.2094      2.00000
      6      -5.1846      2.00000
      7      -4.1626      2.00000
      8      -4.1358      2.00000
      9      -0.5368      2.00000
     10      -0.5066      2.00000
     11      -0.2508      2.00000
     12      -0.2236      2.00000
     13       0.0853      2.00000
     14       0.1205      2.00000
     15       1.5107      2.00000
     16       1.5738      2.00000
     17       2.2477      2.00000
     18       2.3763      2.00000
     19       2.9470      2.00000
     20       2.9513      2.00000
     21       4.7701      0.00000
     22       4.7860      0.00000
     23       5.7462      0.00000
     24       5.8507      0.00000
     25       6.1834      0.00000
     26       6.3310      0.00000
     27       6.8324      0.00000
     28       6.9128      0.00000
     29       7.3712      0.00000
     30       7.4470      0.00000
     31       8.5880      0.00000
[...]
     32       8.5708      0.00000

 k-point    32 :       0.1667    0.3333    0.5000
  band No.  band energies     occupation 
      1     -10.2736      2.00000
      2     -10.2736      2.00000
      3      -9.5694      2.00000
      4      -9.5694      2.00000
      5      -5.1431      2.00000
      6      -5.1431      2.00000
      7      -3.8946      2.00000
      8      -3.8946      2.00000
      9      -0.8313      2.00000
     10      -0.8313      2.00000
     11      -0.0736      2.00000
     12      -0.0736      2.00000
     13       0.4222      2.00000
     14       0.4222      2.00000
     15       1.5107      2.00000
     16       1.5107      2.00000
     17       2.2039      2.00000
     18       2.2039      2.00000
     19       2.5661      2.00000
     20       2.5661      2.00000
     21       5.2308      0.00000
     22       5.2308      0.00000
     23       5.5606      0.00000
     24       5.5606      0.00000
     25       6.1606      0.00000
     26       6.1606      0.00000
     27       6.8132      0.00000
     28       6.8132      0.00000
     29       7.7662      0.00000
     30       7.7662      0.00000
     31       8.7283      0.00000
     32       8.7283      0.00000

 k-point    33 :       0.1667   -0.3333    0.5000
  band No.  band energies     occupation 
      1     -10.2744      2.00000
      2     -10.2744      2.00000
      3      -9.5683      2.00000
      4      -9.5683      2.00000
      5      -5.1434      2.00000
      6      -5.1434      2.00000
      7      -3.8928      2.00000
      8      -3.8928      2.00000
      9      -0.8235      2.00000
     10      -0.8235      2.00000
     11      -0.1060      2.00000
     12      -0.1060      2.00000
     13       0.4228      2.00000
     14       0.4228      2.00000
     15       1.5497      2.00000
     16       1.5497      2.00000
     17       2.1683      2.00000
     18       2.1683      2.00000
     19       2.5913      2.00000
     20       2.5913      2.00000
     21       5.2438      0.00000
     22       5.2438      0.00000
     23       5.5912      0.00000
     24       5.5912      0.00000
     25       6.1381      0.00000
     26       6.1381      0.00000
     27       6.7993      0.00000
     28       6.7993      0.00000
     29       7.6830      0.00000
     30       7.6830      0.00000
     31       8.7315      0.00000
     32       8.7315      0.00000

 k-point    34 :       0.3333    0.3333    0.5000
  band No.  band energies     occupation 
      1      -9.8560      2.00000
      2      -9.8560      2.00000
      3      -9.3769      2.00000
      4      -9.3769      2.00000
      5      -5.2558      2.00000
      6      -5.2558      2.00000
      7      -4.0041      2.00000
      8      -4.0041      2.00000
      9      -1.5216      2.00000
     10      -1.5216      2.00000
     11      -0.7497      2.00000
     12      -0.7497      2.00000
     13       0.1286      2.00000
     14       0.1286      2.00000
     15       0.9162      2.00000
     16       0.9162      2.00000
     17       1.4227      2.00000
     18       1.4227      2.00000
     19       2.1216      2.00000
     20       2.1216      2.00000
     21       5.2424      0.00000
     22       5.2424      0.00000
     23       5.8608      0.00000
     24       5.8608      0.00000
     25       7.2230      0.00000
     26       7.2230      0.00000
     27       7.5401      0.00000
     28       7.5401      0.00000
     29       8.5857      0.00000
     30       8.5857      0.00000
     31       9.3167      0.00000
     32       9.3167      0.00000

 k-point    35 :       0.3333   -0.3333    0.5000
  band No.  band energies     occupation 
      1      -9.8578      2.00000
      2      -9.8578      2.00000
      3      -9.3746      2.00000
      4      -9.3746      2.00000
      5      -5.2576      2.00000
      6      -5.2576      2.00000
      7      -4.0006      2.00000
      8      -4.0006      2.00000
      9      -1.5073      2.00000
     10      -1.5073      2.00000
     11      -0.7845      2.00000
     12      -0.7845      2.00000
     13       0.1278      2.00000
     14       0.1278      2.00000
     15       0.9507      2.00000
     16       0.9507      2.00000
     17       1.3689      2.00000
     18       1.3689      2.00000
     19       2.1829      2.00000
     20       2.1829      2.00000
     21       5.2060      0.00000
     22       5.2060      0.00000
     23       5.8733      0.00000
     24       5.8733      0.00000
     25       7.1484      0.00000
     26       7.1484      0.00000
     27       7.6328      0.00000
     28       7.6328      0.00000
     29       8.4659      0.00000
     30       8.4659      0.00000
     31       9.4634      0.00000
     32       9.4634      0.00000

 k-point    36 :       0.5000    0.3333    0.5000
  band No.  band energies     occupation 
      1      -9.4943      2.00000
      2      -9.4943      2.00000
      3      -9.3870      2.00000
      4      -9.3870      2.00000
      5      -5.4053      2.00000
      6      -5.4053      2.00000
      7      -4.1985      2.00000
      8      -4.1985      2.00000
      9      -1.2792      2.00000
     10      -1.2792      2.00000
     11      -0.9868      2.00000
     12      -0.9868      2.00000
     13      -0.2734      2.00000
     14      -0.2734      2.00000
     15       0.2550      2.00000
     16       0.2550      2.00000
     17       1.6189      2.00000
     18       1.6189      2.00000
     19       1.7287      2.00000
     20       1.7287      2.00000
     21       4.9950      0.00000
     22       4.9950      0.00000
     23       6.7954      0.00000
     24       6.7954      0.00000
     25       6.9104      0.00000
     26       6.9104      0.00000
     27       7.9514      0.00000
     28       7.9514      0.00000
     29       8.4268      0.00000
     30       8.4268      0.00000
     31       9.3202      0.00000
     32       9.3202      0.00000

 k-point    37 :       0.0000    0.5000    0.5000
  band No.  band energies     occupation 
      1     -10.0826      2.00000
      2     -10.0826      2.00000
      3      -9.9670      2.00000
      4      -9.9670      2.00000
      5      -5.1537      2.00000
      6      -5.1537      2.00000
      7      -4.4070      2.00000
      8      -4.4070      2.00000
      9       0.1047      2.00000
     10       0.1047      2.00000
     11       0.7375      2.00000
     12       0.7375      2.00000
     13       1.1061      2.00000
     14       1.1061      2.00000
     15       1.3715      2.00000
     16       1.3715      2.00000
     17       2.5063      2.00000
     18       2.5063      2.00000
     19       3.0483      2.00000
     20       3.0483      2.00000
     21       4.6527      0.00000
     22       4.6527      0.00000
     23       4.8420      0.00000
     24       4.8420      0.00000
     25       6.0012      0.00000
     26       6.0012      0.00000
     27       6.3244      0.00000
     28       6.3244      0.00000
     29       6.6858      0.00000
     30       6.6858      0.00000
     31       8.3630      0.00000
     32       8.3630      0.00000

 k-point    38 :       0.1667    0.5000    0.5000
  band No.  band energies     occupation 
      1      -9.9376      2.00000
      2      -9.9376      2.00000
      3      -9.8429      2.00000
      4      -9.8429      2.00000
      5      -5.1190      2.00000
      6      -5.1190      2.00000
      7      -4.2801      2.00000
      8      -4.2801      2.00000
      9      -0.4933      2.00000
     10      -0.4933      2.00000
     11      -0.2072      2.00000
     12      -0.2072      2.00000
     13       0.5714      2.00000
     14       0.5714      2.00000
     15       1.0919      2.00000
     16       1.0919      2.00000
     17       2.2895      2.00000
     18       2.2895      2.00000
     19       2.5714      2.00000
     20       2.5714      2.00000
     21       5.5637      0.00000
     22       5.5637      0.00000
     23       5.7265      0.00000
     24       5.7265      0.00000
     25       5.8573      0.00000
     26       5.8573      0.00000
     27       7.2389      0.00000
     28       7.2389      0.00000
     29       7.3733      0.00000
     30       7.3733      0.00000
     31       8.5898      0.00000
     32       8.5898      0.00000

 k-point    39 :       0.3333    0.5000    0.5000
  band No.  band energies     occupation 
      1      -9.6001      2.00000
      2      -9.6001      2.00000
      3      -9.5631      2.00000
      4      -9.5631      2.00000
      5      -5.1824      2.00000
      6      -5.1824      2.00000
      7      -4.0864      2.00000
      8      -4.0864      2.00000
      9      -1.3859      2.00000
     10      -1.3859      2.00000
     11      -1.3537      2.00000
     12      -1.3537      2.00000
     13       0.1741      2.00000
     14       0.1741      2.00000
     15       0.5996      2.00000
     16       0.5996      2.00000
     17       1.5828      2.00000
     18       1.5828      2.00000
     19       1.7343      2.00000
     20       1.7343      2.00000
     21       5.2037      0.00000
     22       5.2037      0.00000
     23       7.1093      0.00000
     24       7.1093      0.00000
     25       7.2982      0.00000
     26       7.2982      0.00000
     27       8.2241      0.00000
     28       8.2241      0.00000
     29       8.7978      0.00000
     30       8.7978      0.00000
     31       9.0749      0.00000
     32       9.0749      0.00000

 k-point    40 :       0.5000    0.5000    0.5000
  band No.  band energies     occupation 
      1      -9.4031      2.00000
      2      -9.4031      2.00000
      3      -9.3962      2.00000
      4      -9.3962      2.00000
      5      -5.3261      2.00000
      6      -5.3261      2.00000
      7      -4.0932      2.00000
      8      -4.0932      2.00000
      9      -1.4758      2.00000
     10      -1.4758      2.00000
     11      -1.3435      2.00000
     12      -1.3435      2.00000
     13      -0.5513      2.00000
     14      -0.5513      2.00000
     15      -0.1841      2.00000
     16      -0.1841      2.00000
     17       1.6672      2.00000
     18       1.6672      2.00000
     19       1.7807      2.00000
     20       1.7807      2.00000
     21       4.7714      0.00000
     22       4.7714      0.00000
     23       7.5236      0.00000
     24       7.5236      0.00000
     25       7.9261      0.00000
     26       7.9261      0.00000
     27       8.2728      0.00000
     28       8.2728      0.00000
     29       9.0749      0.00000
     30       9.0749      0.00000
     31       9.5850      0.00000
     32       9.5850      0.00000


--------------------------------------------------------------------------------------------------------


 soft charge-density along one line, spin component            1
         0         1         2         3         4         5         6         7         8         9
 total charge-density along one line
 
 pseudopotential strength for first ion, spin component:            1
 14.533  18.133   0.040   0.040  -0.000   0.072   0.072  -0.001
 18.133  22.638   0.050   0.050  -0.001   0.091   0.090  -0.001
  0.040   0.050   3.228  -0.002   0.000   5.496  -0.003   0.000
  0.040   0.050  -0.002   3.225   0.000  -0.003   5.491   0.000
 -0.000  -0.001   0.000   0.000   3.229   0.000   0.000   5.498
  0.072   0.091   5.496  -0.003   0.000   9.414  -0.006   0.000
  0.072   0.090  -0.003   5.491   0.000  -0.006   9.405   0.000
 -0.001  -0.001   0.000   0.000   5.498   0.000   0.000   9.418
  0.000   0.000  -0.000   0.000   0.007  -0.000   0.000   0.013
 -0.004  -0.005   0.010   0.012   0.000   0.018   0.022   0.000
 -0.004  -0.005  -0.004   0.010   0.000  -0.007   0.019   0.000
  0.000   0.000   0.000  -0.000   0.010   0.000  -0.000   0.018
  0.002   0.002  -0.012  -0.000  -0.000  -0.022  -0.000  -0.000
 total augmentation occupancy for first ion, spin component:            1
  2.813  -0.756   0.377   0.253   0.004  -0.076  -0.037  -0.002   0.001  -0.022   0.014  -0.001   0.008
 -0.756   0.683  -0.454  -0.383  -0.001   0.074   0.055   0.000  -0.001   0.015  -0.005   0.000  -0.003
  0.377  -0.454   1.244   0.016  -0.000  -0.203   0.011  -0.000  -0.000   0.038  -0.094  -0.001  -0.001
  0.253  -0.383   0.016   1.452  -0.007   0.011  -0.245   0.002  -0.000   0.004   0.059   0.003   0.000
  0.004  -0.001  -0.000  -0.007   1.258  -0.000   0.002  -0.217   0.147  -0.001   0.001   0.036  -0.000
 -0.076   0.074  -0.203   0.011  -0.000   0.037  -0.004   0.000  -0.000  -0.006   0.016   0.000   0.001
 -0.037   0.055   0.011  -0.245   0.002  -0.004   0.047  -0.000   0.000  -0.001  -0.010  -0.001  -0.000
 -0.002   0.000  -0.000   0.002  -0.217   0.000  -0.000   0.041  -0.026   0.000  -0.000  -0.006   0.000
  0.001  -0.001  -0.000  -0.000   0.147  -0.000   0.000  -0.026   0.031   0.000   0.000   0.003   0.000
 -0.022   0.015   0.038   0.004  -0.001  -0.006  -0.001   0.000   0.000   0.015  -0.011   0.000   0.002
  0.014  -0.005  -0.094   0.059   0.001   0.016  -0.010  -0.000   0.000  -0.011   0.036  -0.000  -0.003
 -0.001   0.000  -0.001   0.003   0.036   0.000  -0.001  -0.006   0.003   0.000  -0.000   0.010   0.000
  0.008  -0.003  -0.001   0.000  -0.000   0.001  -0.000   0.000   0.000   0.002  -0.003   0.000   0.009


------------------------ aborting loop because EDIFF is reached ----------------------------------------


    CHARGE:  cpu time      0.0083: real time      0.0084
    FORLOC:  cpu time      0.0004: real time      0.0004
    FORNL :  cpu time      0.0512: real time      0.0513
    STRESS:  cpu time      0.4745: real time      0.4765
    FORCOR:  cpu time      0.0090: real time      0.0090
    FORHAR:  cpu time      0.0022: real time      0.0022
    MIXING:  cpu time      0.0007: real time      0.0007
    OFIELD:  cpu time      0.0000: real time      0.0000

  FORCE on cell =-STRESS in cart. coord.  units (eV):
  Direction    XX          YY          ZZ          XY          YZ          ZX
  --------------------------------------------------------------------------------------
  Alpha Z    87.52689    87.52689    87.52689
  Ewald    -436.14330  -494.49136  -485.87758     2.15787    -0.00000    -0.00000
  Hartree    64.08385    42.01737    31.73885     0.83715    -0.00000    -0.00000
  E(xc)    -141.35414  -141.41806  -141.68483     0.00971    -0.00000     0.00000
  Local    -193.24518  -119.49110  -119.32037    -3.10748     0.00000    -0.00000
  n-local   240.44856   239.91661   242.90861     0.03593     0.00000     0.00000
  augment   -11.43347   -11.87120   -12.17386    -0.01746    -0.00000    -0.00000
  Kinetic   390.81043   397.87286   399.73590     0.35147    -0.00000    -0.00000
  Fock        0.00000     0.00000     0.00000     0.00000     0.00000     0.00000
  -------------------------------------------------------------------------------------
  Total       0.69365     0.06201     2.85362     0.26718     0.00000    -0.00000
  in kB       5.74068     0.51320    23.61683     2.21123     0.00000    -0.00000
  external pressure =        9.96 kB  Pullay stress =        0.00 kB


 VOLUME and BASIS-vectors are now :
 -----------------------------------------------------------------------------
  energy-cutoff  :      520.00
  volume of cell :      193.59
      direct lattice vectors                 reciprocal lattice vectors
     3.858100176  0.000000000  0.000000000     0.259194929  0.000000000  0.000000000
     0.000000000  4.526575088  0.000000000     0.000000000  0.220917577  0.000000000
     0.000000000  0.000000000 11.085176468     0.000000000  0.000000000  0.090210562

  length of vectors
     3.858100176  4.526575088 11.085176468     0.259194929  0.220917577  0.090210562


 FORCES acting on ions
    electron-ion (+dipol)            ewald-force                    non-local-force                 convergence-correction
 -----------------------------------------------------------------------------------------------
   0.130E+00 0.172E+02 0.200E+02   -.744E-01 -.195E+02 -.227E+02   -.490E-01 0.231E+01 0.298E+01   0.180E-04 0.114E-03 -.569E-03
   0.130E+00 0.172E+02 -.200E+02   -.744E-01 -.195E+02 0.227E+02   -.490E-01 0.231E+01 -.298E+01   0.179E-04 0.114E-03 0.569E-03
   -.130E+00 -.172E+02 -.200E+02   0.744E-01 0.195E+02 0.227E+02   0.490E-01 -.231E+01 -.298E+01   -.180E-04 -.114E-03 0.569E-03
   -.130E+00 -.172E+02 0.200E+02   0.744E-01 0.195E+02 -.227E+02   0.490E-01 -.231E+01 0.298E+01   -.182E-04 -.114E-03 -.570E-03
   -.189E+00 -.179E+02 -.273E+02   0.154E+00 0.196E+02 0.288E+02   0.776E-01 -.173E+01 -.149E+01   -.405E-04 -.280E-03 0.827E-03
   -.189E+00 -.179E+02 0.273E+02   0.154E+00 0.196E+02 -.288E+02   0.776E-01 -.173E+01 0.149E+01   -.412E-04 -.279E-03 -.824E-03
   0.189E+00 0.179E+02 0.273E+02   -.154E+00 -.196E+02 -.288E+02   -.775E-01 0.173E+01 0.149E+01   0.411E-04 0.279E-03 -.826E-03
   0.189E+00 0.179E+02 -.273E+02   -.154E+00 -.196E+02 0.288E+02   -.775E-01 0.173E+01 -.149E+01   0.407E-04 0.280E-03 0.825E-03
 -----------------------------------------------------------------------------------------------
   0.121E-04 -.310E-06 -.270E-05   -.361E-14 0.355E-14 -.142E-13   0.171E-03 -.824E-04 0.434E-06   -.225E-06 -.654E-06 0.565E-06
 
 
 POSITION                                       TOTAL-FORCE (eV/Angst)
 -----------------------------------------------------------------------------------
      2.75379      3.20628      1.36328         0.006517      0.035566      0.260339
      0.82474      0.94299      4.17930         0.006517      0.035566     -0.260339
      2.89358      4.01000      9.72189        -0.006551     -0.035614     -0.260363
      0.96453      1.74671      6.90587        -0.006551     -0.035614      0.260363
      2.75379      2.65942      3.90621         0.042970     -0.021692      0.022230
      0.82474      0.39613      1.63637         0.042970     -0.021692     -0.022230
      2.89358      0.03028      7.17896        -0.042936      0.021741     -0.022200
      0.96453      2.29357      9.44880        -0.042936      0.021740      0.022198
 -----------------------------------------------------------------------------------
    total drift:                                0.000183     -0.000083     -0.000002


--------------------------------------------------------------------------------------------------------



  FREE ENERGIE OF THE ION-ELECTRON SYSTEM (eV)
  ---------------------------------------------------
  free  energy   TOTEN  =       -33.68469901 eV

  energy  without entropy=      -33.68469208  energy(sigma->0) =      -33.68469554
 


--------------------------------------------------------------------------------------------------------


    POTLOK:  cpu time      0.2302: real time      0.2309


--------------------------------------------------------------------------------------------------------


     LOOP+:  cpu time      8.8677: real time      8.9159
    4ORBIT:  cpu time      0.0000: real time      0.0000

 total amount of memory used by VASP MPI-rank0    41770. kBytes
=======================================================================

   base      :      30000. kBytes
   nonl-proj :       9056. kBytes
   fftplans  :        519. kBytes
   grid      :        766. kBytes
   one-center:         16. kBytes
   wavefun   :       1413. kBytes
 
  
  
 General timing and accounting informations for this job:
 ========================================================
  
                  Total CPU time used (sec):       10.588
                            User time (sec):       10.262
                          System time (sec):        0.326
                         Elapsed time (sec):       11.194
  
                   Maximum memory used (kb):      178576.
                   Average memory used (kb):          N/A
  
                          Minor page faults:        23174
                          Major page faults:           41
                 Voluntary context switches:         3750
