 vasp.6.4.2 20Jul23 (build Oct 12 2023 10:31:02) complex                         
 executed on              LinuxNV date 2025.05.27  20:03:32
 running  128 mpi-ranks, with    1 threads/rank, on    2 nodes
 distrk:  each k-point on   64 cores,    2 groups
 distr:  one band on NCORE=   4 cores,   16 groups


--------------------------------------------------------------------------------------------------------


 INCAR:
   ENCUT = 360.000000
   SIGMA = 0.050000
   EDIFF = 1.00e-06
   ALGO = Normal
   GGA = PE
   PREC = Normal
   SYSTEM = ./
   ICHARG = 2
   ISMEAR = 0
   ISPIN = 1
   ISTART = 0
   ISYM = 0
   KPAR = 2
   LMAXMIX = 4
   NELM = 100
   NPAR = 16
   LASPH = .TRUE.
   LCHARG = .FALSE.
   LWAVE = .FALSE.

 POTCAR:    PAW_PBE Ge 05Jan2001                  
 POTCAR:    PAW_PBE Se 06Sep2000                  
 POTCAR:    PAW_PBE Ge 05Jan2001                  
   VRHFIN =Ge: s2p2                                                                                 
   LEXCH  = PE                                                                                      
   EATOM  =   104.9960 eV,    7.7170 Ry                                                             
                                                                                                    
   TITEL  = PAW_PBE Ge 05Jan2001                                                                    
   LULTRA =        F    use ultrasoft PP ?                                                          
   IUNSCR =        1    unscreen: 0-lin 1-nonlin 2-no                                               
   RPACOR =    2.170    partial core radius                                                         
   POMASS =   72.610; ZVAL   =    4.000    mass and valenz                                          
   RCORE  =    2.300    outmost cutoff radius                                                       
   RWIGS  =    2.300; RWIGS  =    1.217    wigner-seitz radius (au A)                               
   ENMAX  =  173.807; ENMIN  =  130.355 eV                                                          
   ICORE  =        3    local potential                                                             
   LCOR   =        T    correct aug charges                                                         
   LPAW   =        T    paw PP                                                                      
   EAUG   =  385.843                                                                                
   DEXC   =    0.000                                                                                
   RMAX   =    2.342    core radius for proj-oper                                                   
   RAUG   =    1.300    factor for augmentation sphere                                              
   RDEP   =    2.318    radius for radial grids                                                     
   RDEPT  =    2.103    core radius for aug-charge                                                  
                                                                                                    
   Atomic configuration                                                                             
   10 entries                                                                                       
     n  l   j            E        occ.                                                              
     1  0  0.50    -10959.8463   2.0000                                                             
     2  0  0.50     -1371.6056   2.0000                                                             
     2  1  1.50     -1198.4791   6.0000                                                             
     3  0  0.50      -168.4733   2.0000                                                             
     3  1  1.50      -115.6019   6.0000                                                             
     3  2  2.50       -29.3106  10.0000                                                             
     4  0  0.50       -11.7309   2.0000                                                             
     4  1  0.50        -3.8952   2.0000                                                             
     4  2  1.50        -4.0817   0.0000                                                             
     4  3  2.50        -4.0817   0.0000                                                             
   Description                                                                                      
     l       E           TYP  RCUT    TYP  RCUT                                                     
     0    -11.7309493     23  2.300                                                                 
     0     -7.4578696     23  2.300                                                                 
     1     -3.8952261     23  2.300                                                                 
     1      6.1178114     23  2.300                                                                 
     2     -4.0817478     23  2.300                                                                 
     3     -1.3605826      7  2.300                                                                 
  local pseudopotential read in
  partial core-charges read in
  partial kinetic energy density read in
  atomic valenz-charges read in
  non local Contribution for L=            0  read in
    real space projection operators read in
  non local Contribution for L=            0  read in
    real space projection operators read in
  non local Contribution for L=            1  read in
    real space projection operators read in
  non local Contribution for L=            1  read in
    real space projection operators read in
  non local Contribution for L=            2  read in
    real space projection operators read in
    PAW grid and wavefunctions read in
 
   number of l-projection  operators is LMAX  =            5
   number of lm-projection operators is LMMAX =           13
 
 POTCAR:    PAW_PBE Se 06Sep2000                  
   VRHFIN =Se: s2p4                                                                                 
   LEXCH  = PE                                                                                      
   EATOM  =   257.1286 eV,   18.8984 Ry                                                             
                                                                                                    
   TITEL  = PAW_PBE Se 06Sep2000                                                                    
   LULTRA =        F    use ultrasoft PP ?                                                          
   IUNSCR =        1    unscreen: 0-lin 1-nonlin 2-no                                               
   RPACOR =    1.900    partial core radius                                                         
   POMASS =   78.960; ZVAL   =    6.000    mass and valenz                                          
   RCORE  =    2.100    outmost cutoff radius                                                       
   RWIGS  =    2.200; RWIGS  =    1.164    wigner-seitz radius (au A)                               
   ENMAX  =  211.555; ENMIN  =  158.666 eV                                                          
   ICORE  =        3    local potential                                                             
   LCOR   =        T    correct aug charges                                                         
   LPAW   =        T    paw PP                                                                      
   EAUG   =  446.842                                                                                
   DEXC   =    0.000                                                                                
   RMAX   =    2.147    core radius for proj-oper                                                   
   RAUG   =    1.300    factor for augmentation sphere                                              
   RDEP   =    2.177    radius for radial grids                                                     
   RDEPT  =    1.928    core radius for aug-charge                                                  
                                                                                                    
   Atomic configuration                                                                             
   10 entries                                                                                       
     n  l   j            E        occ.                                                              
     1  0  0.50    -12503.4787   2.0000                                                             
     2  0  0.50     -1606.9547   2.0000                                                             
     2  1  1.50     -1413.3140   6.0000                                                             
     3  0  0.50      -213.4885   2.0000                                                             
     3  1  1.50      -152.9538   6.0000                                                             
     3  2  2.50       -53.1221  10.0000                                                             
     4  0  0.50       -17.2865   2.0000                                                             
     4  1  0.50        -6.5110   4.0000                                                             
     4  2  2.50        -6.8029   0.0000                                                             
     4  3  2.50        -6.8029   0.0000                                                             
   Description                                                                                      
     l       E           TYP  RCUT    TYP  RCUT                                                     
     0    -17.2865377     23  2.100                                                                 
     0    -15.3094411     23  2.100                                                                 
     1     -6.5110275     23  2.100                                                                 
     1     -0.0695192     23  2.100                                                                 
     2     -6.8029130     23  2.100                                                                 
     3     -1.3605826      7  2.100                                                                 
  local pseudopotential read in
  partial core-charges read in
  partial kinetic energy density read in
  atomic valenz-charges read in
  non local Contribution for L=            0  read in
    real space projection operators read in
  non local Contribution for L=            0  read in
    real space projection operators read in
  non local Contribution for L=            1  read in
    real space projection operators read in
  non local Contribution for L=            1  read in
    real space projection operators read in
  non local Contribution for L=            2  read in
    real space projection operators read in
    PAW grid and wavefunctions read in
 
   number of l-projection  operators is LMAX  =            5
   number of lm-projection operators is LMMAX =           13
 
  PAW_PBE Ge 05Jan2001                  :
 energy of atom  1       EATOM= -104.9960
 kinetic energy error for atom=    0.0005 (will be added to EATOM!!)
  PAW_PBE Se 06Sep2000                  :
 energy of atom  2       EATOM= -257.1286
 kinetic energy error for atom=    0.0030 (will be added to EATOM!!)
 
 
 POSCAR: Ge Se
  positions in cartesian coordinates
  No initial velocities read in
 exchange correlation table for  LEXCH =        8
   RHO(1)=    0.500       N(1)  =     2000
   RHO(2)=  100.500       N(2)  =     4000
 


--------------------------------------------------------------------------------------------------------


 ion  position               nearest neighbor table
   1  0.250  0.108  0.122-   6 2.55   6 2.55   5 2.61
   2  0.750  0.608  0.378-   5 2.55   5 2.55   6 2.61
   3  0.750  0.892  0.878-   8 2.55   8 2.55   7 2.61
   4  0.250  0.392  0.622-   7 2.55   7 2.55   8 2.61
   5  0.250  0.006  0.353-   2 2.55   2 2.55   1 2.61
   6  0.750  0.506  0.147-   1 2.55   1 2.55   2 2.61
   7  0.750  0.994  0.647-   4 2.55   4 2.55   3 2.61
   8  0.250  0.494  0.853-   3 2.55   3 2.55   4 2.61
 

IMPORTANT INFORMATION: All symmetrisations will be switched off!
NOSYMM: (Re-)initialisation of all symmetry stuff for point group C_1.


----------------------------------------------------------------------------------------

                                     Primitive cell                                     

  volume of cell :     179.3340

  direct lattice vectors                    reciprocal lattice vectors
     3.700000000  0.000000000  0.000000000     0.270270270  0.000000000  0.000000000
     0.000000000  4.350000000  0.000000000     0.000000000  0.229885057  0.000000000
     0.000000000  0.000000000 11.142221000     0.000000000  0.000000000  0.089748713

  length of vectors
     3.700000000  4.350000000 11.142221000     0.270270270  0.229885057  0.089748713

  position of ions in fractional coordinates (direct lattice)
     0.250000000  0.107674395  0.121824969
     0.750000000  0.607674395  0.378175031
     0.750000000  0.892325605  0.878175031
     0.250000000  0.392325605  0.621824969
     0.250000000  0.006426057  0.353041334
     0.750000000  0.506426057  0.146958666
     0.750000000  0.993573943  0.646958666
     0.250000000  0.493573943  0.853041334

  ion indices of the primitive-cell ions
   primitive index   ion index
                 1           1
                 2           2
                 3           3
                 4           4
                 5           5
                 6           6
                 7           7
                 8           8

----------------------------------------------------------------------------------------

 
 
 KPOINTS: KPOINTS created by Atomic Simulation Env

Automatic generation of k-mesh.
 Grid dimensions read from file:
 generate k-points for:    6    6    2

 Generating k-lattice:

  Cartesian coordinates                     Fractional coordinates (reciprocal lattice)
     0.045045045  0.000000000  0.000000000     0.166666667  0.000000000  0.000000000
     0.000000000  0.038314176  0.000000000     0.000000000  0.166666667  0.000000000
     0.000000000  0.000000000  0.044874357     0.000000000  0.000000000  0.500000000

  Length of vectors
     0.045045045  0.038314176  0.044874357

  Shift w.r.t. Gamma in fractional coordinates (k-lattice)
     0.000000000  0.000000000  0.000000000

 
 Subroutine IBZKPT returns following result:
 ===========================================
 
 Found     40 irreducible k-points:
 
 Following reciprocal coordinates:
            Coordinates               Weight
  0.000000  0.000000  0.000000      1.000000
  0.166667  0.000000  0.000000      2.000000
  0.333333  0.000000  0.000000      2.000000
  0.500000  0.000000  0.000000      1.000000
  0.000000  0.166667  0.000000      2.000000
  0.166667  0.166667  0.000000      2.000000
  0.166667 -0.166667  0.000000      2.000000
  0.333333  0.166667  0.000000      2.000000
  0.333333 -0.166667  0.000000      2.000000
  0.500000  0.166667  0.000000      2.000000
  0.000000  0.333333  0.000000      2.000000
  0.166667  0.333333  0.000000      2.000000
  0.166667 -0.333333  0.000000      2.000000
  0.333333  0.333333  0.000000      2.000000
  0.333333 -0.333333  0.000000      2.000000
  0.500000  0.333333  0.000000      2.000000
  0.000000  0.500000  0.000000      1.000000
  0.166667  0.500000  0.000000      2.000000
  0.333333  0.500000  0.000000      2.000000
  0.500000  0.500000  0.000000      1.000000
  0.000000  0.000000  0.500000      1.000000
  0.166667  0.000000  0.500000      2.000000
  0.333333  0.000000  0.500000      2.000000
  0.500000  0.000000  0.500000      1.000000
  0.000000  0.166667  0.500000      2.000000
  0.166667  0.166667  0.500000      2.000000
  0.166667 -0.166667  0.500000      2.000000
  0.333333  0.166667  0.500000      2.000000
  0.333333 -0.166667  0.500000      2.000000
  0.500000  0.166667  0.500000      2.000000
  0.000000  0.333333  0.500000      2.000000
  0.166667  0.333333  0.500000      2.000000
  0.166667 -0.333333  0.500000      2.000000
  0.333333  0.333333  0.500000      2.000000
  0.333333 -0.333333  0.500000      2.000000
  0.500000  0.333333  0.500000      2.000000
  0.000000  0.500000  0.500000      1.000000
  0.166667  0.500000  0.500000      2.000000
  0.333333  0.500000  0.500000      2.000000
  0.500000  0.500000  0.500000      1.000000
 
 Following cartesian coordinates:
            Coordinates               Weight
  0.000000  0.000000  0.000000      1.000000
  0.045045  0.000000  0.000000      2.000000
  0.090090  0.000000  0.000000      2.000000
  0.135135  0.000000  0.000000      1.000000
  0.000000  0.038314  0.000000      2.000000
  0.045045  0.038314  0.000000      2.000000
  0.045045 -0.038314  0.000000      2.000000
  0.090090  0.038314  0.000000      2.000000
  0.090090 -0.038314  0.000000      2.000000
  0.135135  0.038314  0.000000      2.000000
  0.000000  0.076628  0.000000      2.000000
  0.045045  0.076628  0.000000      2.000000
  0.045045 -0.076628  0.000000      2.000000
  0.090090  0.076628  0.000000      2.000000
  0.090090 -0.076628  0.000000      2.000000
  0.135135  0.076628  0.000000      2.000000
  0.000000  0.114943  0.000000      1.000000
  0.045045  0.114943  0.000000      2.000000
  0.090090  0.114943  0.000000      2.000000
  0.135135  0.114943  0.000000      1.000000
  0.000000  0.000000  0.044874      1.000000
  0.045045  0.000000  0.044874      2.000000
  0.090090  0.000000  0.044874      2.000000
  0.135135  0.000000  0.044874      1.000000
  0.000000  0.038314  0.044874      2.000000
  0.045045  0.038314  0.044874      2.000000
  0.045045 -0.038314  0.044874      2.000000
  0.090090  0.038314  0.044874      2.000000
  0.090090 -0.038314  0.044874      2.000000
  0.135135  0.038314  0.044874      2.000000
  0.000000  0.076628  0.044874      2.000000
  0.045045  0.076628  0.044874      2.000000
  0.045045 -0.076628  0.044874      2.000000
  0.090090  0.076628  0.044874      2.000000
  0.090090 -0.076628  0.044874      2.000000
  0.135135  0.076628  0.044874      2.000000
  0.000000  0.114943  0.044874      1.000000
  0.045045  0.114943  0.044874      2.000000
  0.090090  0.114943  0.044874      2.000000
  0.135135  0.114943  0.044874      1.000000
 


--------------------------------------------------------------------------------------------------------




 Dimension of arrays:
   k-points           NKPTS =     40   k-points in BZ     NKDIM =     40   number of bands    NBANDS=     32
   number of dos      NEDOS =    301   number of ions     NIONS =      8
   non local maximal  LDIM  =      5   non local SUM 2l+1 LMDIM =     13
   total plane-waves  NPLWV =  19440
   max r-space proj   IRMAX =      1   max aug-charges    IRDMAX=   6090
   dimension x,y,z NGX =    18 NGY =   20 NGZ =   54
   dimension x,y,z NGXF=    36 NGYF=   40 NGZF=  108
   support grid    NGXF=    36 NGYF=   40 NGZF=  108
   ions per type =               4   4
   NGX,Y,Z   is equivalent  to a cutoff of   8.09,  7.64,  8.06 a.u.
   NGXF,Y,Z  is equivalent  to a cutoff of  16.18, 15.29, 16.11 a.u.

 SYSTEM =  ./                                      
 POSCAR =  Ge Se                                   

 Startparameter for this run:
   NWRITE =      2    write-flag & timer
   PREC   = normal    normal or accurate (medium, high low for compatibility)
   ISTART =      0    job   : 0-new  1-cont  2-samecut
   ICHARG =      2    charge: 1-file 2-atom 10-const
   ISPIN  =      1    spin polarized calculation?
   LNONCOLLINEAR =      F non collinear calculations
   LSORBIT =      F    spin-orbit coupling
   INIWAV =      1    electr: 0-lowe 1-rand  2-diag
   LASPH  =      T    aspherical Exc in radial PAW
 Electronic Relaxation 1
   ENCUT  =  360.0 eV  26.46 Ry    5.14 a.u.   5.72  6.73 17.24*2*pi/ulx,y,z
   ENINI  =  360.0     initial cutoff
   ENAUG  =  446.8 eV  augmentation charge cutoff
   NELM   =    100;   NELMIN=  2; NELMDL= -5     # of ELM steps 
   EDIFF  = 0.1E-05   stopping-criterion for ELM
   LREAL  =      F    real-space projection
   NLSPLINE    = F    spline interpolate recip. space projectors
   LCOMPAT=      F    compatible to vasp.4.4
   GGA_COMPAT  = T    GGA compatible to vasp.4.4-vasp.4.6
   LMAXPAW     = -100 max onsite density
   LMAXMIX     =    4 max onsite mixed and CHGCAR
   VOSKOWN=      0    Vosko Wilk Nusair interpolation
   ROPT   =    0.00000   0.00000
 Ionic relaxation
   EDIFFG = 0.1E-04   stopping-criterion for IOM
   NSW    =      0    number of steps for IOM
   NBLOCK =      1;   KBLOCK =      1    inner block; outer block 
   IBRION =     -1    ionic relax: 0-MD 1-quasi-New 2-CG
   NFREE  =      0    steps in history (QN), initial steepest desc. (CG)
   ISIF   =      2    stress and relaxation
   IWAVPR =     10    prediction:  0-non 1-charg 2-wave 3-comb
   ISYM   =      0    0-nonsym 1-usesym 2-fastsym
   LCORR  =      T    Harris-Foulkes like correction to forces

   POTIM  = 0.5000    time-step for ionic-motion
   TEIN   =    0.0    initial temperature
   TEBEG  =    0.0;   TEEND  =   0.0 temperature during run
   SMASS  =  -3.00    Nose mass-parameter (am)
   estimated Nose-frequenzy (Omega)   =  0.10E-29 period in steps = 0.13E+47 mass=  -0.313E-27a.u.
   SCALEE = 1.0000    scale energy and forces
   NPACO  =    256;   APACO  = 10.0  distance and # of slots for P.C.
   PSTRESS=    0.0 pullay stress

  Mass of Ions in am
   POMASS =  72.61 78.96
  Ionic Valenz
   ZVAL   =   4.00  6.00
  Atomic Wigner-Seitz radii
   RWIGS  =  -1.00 -1.00
  virtual crystal weights 
   VCA    =   1.00  1.00
   NELECT =      40.0000    total number of electrons
   NUPDOWN=      -1.0000    fix difference up-down

 DOS related values:
   EMIN   =  10.00;   EMAX   =-10.00  energy-range for DOS
   EFERMI =   0.00;   METHOD = LEGACY      
   ISMEAR =     0;   SIGMA  =   0.05  broadening in eV -4-tet -1-fermi 0-gaus

 Electronic relaxation 2 (details)
   IALGO  =     38    algorithm
   LDIAG  =      T    sub-space diagonalisation (order eigenvalues)
   LSUBROT=      F    optimize rotation matrix (better conditioning)
   TURBO    =      0    0=normal 1=particle mesh
   IRESTART =      0    0=no restart 2=restart with 2 vectors
   NREBOOT  =      0    no. of reboots
   NMIN     =      0    reboot dimension
   EREF     =   0.00    reference energy to select bands
   IMIX   =      4    mixing-type and parameters
     AMIX     =   0.40;   BMIX     =  1.00
     AMIX_MAG =   1.60;   BMIX_MAG =  1.00
     AMIN     =   0.10
     WC   =   100.;   INIMIX=   1;  MIXPRE=   1;  MAXMIX= -45

 Intra band minimization:
   WEIMIN = 0.0000     energy-eigenvalue tresh-hold
   EBREAK =  0.78E-08  absolut break condition
   DEPER  =   0.30     relativ break condition  

   TIME   =   0.40     timestep for ELM

  volume/ion in A,a.u.               =      22.42       151.28
  Fermi-wavevector in a.u.,A,eV,Ry     =   0.992828  1.876172 13.411357  0.985707
  Thomas-Fermi vector in A             =   2.124667
 
 Write flags
   LWAVE        =      F    write WAVECAR
   LDOWNSAMPLE  =      F    k-point downsampling of WAVECAR
   LCHARG       =      F    write CHGCAR
   LVTOT        =      F    write LOCPOT, total local potential
   LVHAR        =      F    write LOCPOT, Hartree potential only
   LELF         =      F    write electronic localiz. function (ELF)
   LORBIT       =      0    0 simple, 1 ext, 2 COOP (PROOUT), +10 PAW based schemes


 Dipole corrections
   LMONO  =      F    monopole corrections only (constant potential shift)
   LDIPOL =      F    correct potential (dipole corrections)
   IDIPOL =      0    1-x, 2-y, 3-z, 4-all directions 
   EPSILON=  1.0000000 bulk dielectric constant

 Exchange correlation treatment:
   GGA     =    PE    GGA type
   LEXCH   =     8    internal setting for exchange type
   LIBXC   =     F    Libxc                    
   VOSKOWN =     0    Vosko Wilk Nusair interpolation
   LHFCALC =     F    Hartree Fock is set to
   LHFONE  =     F    Hartree Fock one center treatment
   AEXX    =    0.0000 exact exchange contribution

 Linear response parameters
   LEPSILON=     F    determine dielectric tensor
   LRPA    =     F    only Hartree local field effects (RPA)
   LNABLA  =     F    use nabla operator in PAW spheres
   LVEL    =     F    velocity operator in full k-point grid
   CSHIFT  =0.1000    complex shift for real part using Kramers Kronig
   OMEGAMAX=  -1.0    maximum frequency
   DEG_THRESHOLD= 0.2000000E-02 threshold for treating states as degnerate
   RTIME   =   -0.100 relaxation time in fs
  (WPLASMAI=    0.000 imaginary part of plasma frequency in eV, 0.658/RTIME)
   DFIELD  = 0.0000000 0.0000000 0.0000000 field for delta impulse in time
 
  Optional k-point grid parameters
   LKPOINTS_OPT  =     F    use optional k-point grid
   KPOINTS_OPT_MODE=     1    mode for optional k-point grid
 
 Orbital magnetization related:
   ORBITALMAG=     F  switch on orbital magnetization
   LCHIMAG   =     F  perturbation theory with respect to B field
   DQ        =  0.001000  dq finite difference perturbation B field
   LLRAUG    =     F  two centre corrections for induced B field
   LBONE     =     F  B-component reconstruction in AE one-centre
   LVGVCALC  =     T  calculate vGv susceptibility
   LVGVAPPL  =     F  apply vGv susceptibility instead of pGv for G=0

 Random number generation:
   RANDOM_GENERATOR = DEFAULT
   PCG_SEED         = not used


--------------------------------------------------------------------------------------------------------


 Static calculation
 charge density and potential will be updated during run
 non-spin polarized calculation
 Variant of blocked Davidson
 Davidson routine will perform the subspace rotation
 perform sub-space diagonalisation
    after iterative eigenvector-optimisation
 modified Broyden-mixing scheme, WC =      100.0
 initial mixing is a Kerker type mixing with AMIX =  0.4000 and BMIX =      1.0000
 Hartree-type preconditioning will be used
 using additional bands            12
 reciprocal scheme for non local part
 use partial core corrections
 calculate Harris-corrections to forces 
   (improved forces if not selfconsistent)
 use gradient corrections 
 use of overlap-Matrix (Vanderbilt PP)
 Gauss-broadening in eV      SIGMA  =   0.05


--------------------------------------------------------------------------------------------------------


  energy-cutoff  :      360.00
  volume of cell :      179.33
      direct lattice vectors                 reciprocal lattice vectors
     3.700000000  0.000000000  0.000000000     0.270270270  0.000000000  0.000000000
     0.000000000  4.350000000  0.000000000     0.000000000  0.229885057  0.000000000
     0.000000000  0.000000000 11.142221000     0.000000000  0.000000000  0.089748713

  length of vectors
     3.700000000  4.350000000 11.142221000     0.270270270  0.229885057  0.089748713


 
 k-points in units of 2pi/SCALE and weight: KPOINTS created by Atomic Simulation Env
   0.00000000  0.00000000  0.00000000       0.014
   0.04504505  0.00000000  0.00000000       0.028
   0.09009009  0.00000000  0.00000000       0.028
   0.13513514  0.00000000  0.00000000       0.014
   0.00000000  0.03831418  0.00000000       0.028
   0.04504505  0.03831418  0.00000000       0.028
   0.04504505 -0.03831418  0.00000000       0.028
   0.09009009  0.03831418  0.00000000       0.028
   0.09009009 -0.03831418  0.00000000       0.028
   0.13513514  0.03831418  0.00000000       0.028
   0.00000000  0.07662835  0.00000000       0.028
   0.04504505  0.07662835  0.00000000       0.028
   0.04504505 -0.07662835  0.00000000       0.028
   0.09009009  0.07662835  0.00000000       0.028
   0.09009009 -0.07662835  0.00000000       0.028
   0.13513514  0.07662835  0.00000000       0.028
   0.00000000  0.11494253  0.00000000       0.014
   0.04504505  0.11494253  0.00000000       0.028
   0.09009009  0.11494253  0.00000000       0.028
   0.13513514  0.11494253  0.00000000       0.014
   0.00000000  0.00000000  0.04487436       0.014
   0.04504505  0.00000000  0.04487436       0.028
   0.09009009  0.00000000  0.04487436       0.028
   0.13513514  0.00000000  0.04487436       0.014
   0.00000000  0.03831418  0.04487436       0.028
   0.04504505  0.03831418  0.04487436       0.028
   0.04504505 -0.03831418  0.04487436       0.028
   0.09009009  0.03831418  0.04487436       0.028
   0.09009009 -0.03831418  0.04487436       0.028
   0.13513514  0.03831418  0.04487436       0.028
   0.00000000  0.07662835  0.04487436       0.028
   0.04504505  0.07662835  0.04487436       0.028
   0.04504505 -0.07662835  0.04487436       0.028
   0.09009009  0.07662835  0.04487436       0.028
   0.09009009 -0.07662835  0.04487436       0.028
   0.13513514  0.07662835  0.04487436       0.028
   0.00000000  0.11494253  0.04487436       0.014
   0.04504505  0.11494253  0.04487436       0.028
   0.09009009  0.11494253  0.04487436       0.028
   0.13513514  0.11494253  0.04487436       0.014
 
 k-points in reciprocal lattice and weights: KPOINTS created by Atomic Simulation Env
   0.00000000  0.00000000  0.00000000       0.014
   0.16666667  0.00000000  0.00000000       0.028
   0.33333333  0.00000000  0.00000000       0.028
   0.50000000  0.00000000  0.00000000       0.014
   0.00000000  0.16666667  0.00000000       0.028
   0.16666667  0.16666667  0.00000000       0.028
   0.16666667 -0.16666667  0.00000000       0.028
   0.33333333  0.16666667  0.00000000       0.028
   0.33333333 -0.16666667  0.00000000       0.028
   0.50000000  0.16666667  0.00000000       0.028
   0.00000000  0.33333333  0.00000000       0.028
   0.16666667  0.33333333  0.00000000       0.028
   0.16666667 -0.33333333  0.00000000       0.028
   0.33333333  0.33333333  0.00000000       0.028
   0.33333333 -0.33333333  0.00000000       0.028
   0.50000000  0.33333333  0.00000000       0.028
   0.00000000  0.50000000  0.00000000       0.014
   0.16666667  0.50000000  0.00000000       0.028
   0.33333333  0.50000000  0.00000000       0.028
   0.50000000  0.50000000  0.00000000       0.014
   0.00000000  0.00000000  0.50000000       0.014
   0.16666667  0.00000000  0.50000000       0.028
   0.33333333  0.00000000  0.50000000       0.028
   0.50000000  0.00000000  0.50000000       0.014
   0.00000000  0.16666667  0.50000000       0.028
   0.16666667  0.16666667  0.50000000       0.028
   0.16666667 -0.16666667  0.50000000       0.028
   0.33333333  0.16666667  0.50000000       0.028
   0.33333333 -0.16666667  0.50000000       0.028
   0.50000000  0.16666667  0.50000000       0.028
   0.00000000  0.33333333  0.50000000       0.028
   0.16666667  0.33333333  0.50000000       0.028
   0.16666667 -0.33333333  0.50000000       0.028
   0.33333333  0.33333333  0.50000000       0.028
   0.33333333 -0.33333333  0.50000000       0.028
   0.50000000  0.33333333  0.50000000       0.028
   0.00000000  0.50000000  0.50000000       0.014
   0.16666667  0.50000000  0.50000000       0.028
   0.33333333  0.50000000  0.50000000       0.028
   0.50000000  0.50000000  0.50000000       0.014
 
 position of ions in fractional coordinates (direct lattice) 
   0.25000000  0.10767439  0.12182497
   0.75000000  0.60767439  0.37817503
   0.75000000  0.89232561  0.87817503
   0.25000000  0.39232561  0.62182497
   0.25000000  0.00642606  0.35304133
   0.75000000  0.50642606  0.14695867
   0.75000000  0.99357394  0.64695867
   0.25000000  0.49357394  0.85304133
 
 position of ions in cartesian coordinates  (Angst):
   0.92500000  0.46838362  1.35740073
   2.77500000  2.64338362  4.21370977
   2.77500000  3.88161638  9.78482027
   0.92500000  1.70661638  6.92851123
   0.92500000  0.02795335  3.93366456
   2.77500000  2.20295335  1.63744594
   2.77500000  4.32204665  7.20855644
   0.92500000  2.14704665  9.50477506
 


--------------------------------------------------------------------------------------------------------


 k-point   1 :   0.0000 0.0000 0.0000  plane waves:    2789
 k-point   2 :   0.1667 0.0000 0.0000  plane waves:    2773
 k-point   3 :   0.3333 0.0000 0.0000  plane waves:    2774
 k-point   4 :   0.5000 0.0000 0.0000  plane waves:    2792
 k-point   5 :   0.0000 0.1667 0.0000  plane waves:    2789
 k-point   6 :   0.1667 0.1667 0.0000  plane waves:    2780
 k-point   7 :   0.1667-0.1667 0.0000  plane waves:    2780
 k-point   8 :   0.3333 0.1667 0.0000  plane waves:    2770
 k-point   9 :   0.3333-0.1667 0.0000  plane waves:    2770
 k-point  10 :   0.5000 0.1667 0.0000  plane waves:    2786
 k-point  11 :   0.0000 0.3333 0.0000  plane waves:    2776
 k-point  12 :   0.1667 0.3333 0.0000  plane waves:    2776
 k-point  13 :   0.1667-0.3333 0.0000  plane waves:    2776
 k-point  14 :   0.3333 0.3333 0.0000  plane waves:    2795
 k-point  15 :   0.3333-0.3333 0.0000  plane waves:    2795
 k-point  16 :   0.5000 0.3333 0.0000  plane waves:    2782
 k-point  17 :   0.0000 0.5000 0.0000  plane waves:    2802
 k-point  18 :   0.1667 0.5000 0.0000  plane waves:    2788
 k-point  19 :   0.3333 0.5000 0.0000  plane waves:    2756
 k-point  20 :   0.5000 0.5000 0.0000  plane waves:    2776
 k-point  21 :   0.0000 0.0000 0.5000  plane waves:    2786
 k-point  22 :   0.1667 0.0000 0.5000  plane waves:    2778
 k-point  23 :   0.3333 0.0000 0.5000  plane waves:    2780
 k-point  24 :   0.5000 0.0000 0.5000  plane waves:    2784
 k-point  25 :   0.0000 0.1667 0.5000  plane waves:    2768
 k-point  26 :   0.1667 0.1667 0.5000  plane waves:    2786
 k-point  27 :   0.1667-0.1667 0.5000  plane waves:    2786
 k-point  28 :   0.3333 0.1667 0.5000  plane waves:    2790
 k-point  29 :   0.3333-0.1667 0.5000  plane waves:    2790
 k-point  30 :   0.5000 0.1667 0.5000  plane waves:    2772
 k-point  31 :   0.0000 0.3333 0.5000  plane waves:    2788
 k-point  32 :   0.1667 0.3333 0.5000  plane waves:    2782
 k-point  33 :   0.1667-0.3333 0.5000  plane waves:    2782
 k-point  34 :   0.3333 0.3333 0.5000  plane waves:    2772
 k-point  35 :   0.3333-0.3333 0.5000  plane waves:    2772
 k-point  36 :   0.5000 0.3333 0.5000  plane waves:    2780
 k-point  37 :   0.0000 0.5000 0.5000  plane waves:    2776
 k-point  38 :   0.1667 0.5000 0.5000  plane waves:    2804
 k-point  39 :   0.3333 0.5000 0.5000  plane waves:    2776
 k-point  40 :   0.5000 0.5000 0.5000  plane waves:    2784

 maximum and minimum number of plane-waves per node :       724      671

 maximum number of plane-waves:      2804
 maximum index in each direction: 
   IXMAX=    5   IYMAX=    7   IZMAX=   17
   IXMIN=   -6   IYMIN=   -7   IZMIN=  -17


 parallel 3D FFT for wavefunctions:
    minimum data exchange during FFTs selected (reduces bandwidth)
 parallel 3D FFT for charge:
    minimum data exchange during FFTs selected (reduces bandwidth)


 total amount of memory used by VASP MPI-rank0    37839. kBytes
=======================================================================

   base      :      30000. kBytes
   nonl-proj :       6082. kBytes
   fftplans  :        317. kBytes
   grid      :        462. kBytes
   one-center:         16. kBytes
   wavefun   :        962. kBytes
 
     INWAV:  cpu time      0.0000: real time      0.0001
 Broyden mixing: mesh for mixing (old mesh)
   NGX = 11   NGY = 13   NGZ = 35
  (NGX  = 36   NGY  = 40   NGZ  =108)
  gives a total of   5005 points

 initial charge density was supplied:
 charge density of overlapping atoms calculated
 number of electron      40.0000000 magnetization 
 keeping initial charge density in first step


--------------------------------------------------------------------------------------------------------


 Maximum index for augmentation-charges           138 (set IRDMAX)


--------------------------------------------------------------------------------------------------------


 First call to EWALD:  gamma=   0.314
 Maximum number of real-space cells 4x 3x 2
 Maximum number of reciprocal cells 2x 2x 5

    FEWALD:  cpu time      0.0030: real time      0.0030


--------------------------------------- Ionic step        1  -------------------------------------------




--------------------------------------- Iteration      1(   1)  ---------------------------------------


    POTLOK:  cpu time      0.0058: real time      0.0070
    SETDIJ:  cpu time      0.1377: real time      0.1383
     EDDAV:  cpu time      0.2580: real time      0.2607
       DOS:  cpu time      0.0022: real time      0.0022
    --------------------------------------------
      LOOP:  cpu time      0.4036: real time      0.4082

 eigenvalue-minimisations  :  2560
 total energy-change (2. order) : 0.1294439E+03  (-0.1314258E+04)
 number of electron      40.0000000 magnetization 
 augmentation part       40.0000000 magnetization 

 Free energy of the ion-electron system (eV)
  ---------------------------------------------------
  alpha Z        PSCENC =        94.48537923
  Ewald energy   TEWEN  =     -1463.90373642
  -Hartree energ DENC   =      -112.75797068
  -exchange      EXHF   =         0.00000000
  -V(xc)+E(xc)   XCENC  =       -32.43359772
  PAW double counting   =      1193.78262552    -1080.73714043
  entropy T*S    EENTRO =        -0.00511505
  eigenvalues    EBANDS =        82.52881224
  atomic energy  EATOM  =      1448.48460880
  Solvation  Ediel_sol  =         0.00000000
  ---------------------------------------------------
  free energy    TOTEN  =       129.44386551 eV

  energy without entropy =      129.44898056  energy(sigma->0) =      129.44642303


--------------------------------------------------------------------------------------------------------




--------------------------------------- Iteration      1(   2)  ---------------------------------------


     EDDAV:  cpu time      0.3217: real time      0.3252
       DOS:  cpu time      0.0010: real time      0.0010
    --------------------------------------------
      LOOP:  cpu time      0.3227: real time      0.3262

 eigenvalue-minimisations  :  3712
 total energy-change (2. order) :-0.1553021E+03  (-0.1505678E+03)
 number of electron      40.0000000 magnetization 
 augmentation part       40.0000000 magnetization 

 Free energy of the ion-electron system (eV)
  ---------------------------------------------------
  alpha Z        PSCENC =        94.48537923
  Ewald energy   TEWEN  =     -1463.90373642
  -Hartree energ DENC   =      -112.75797068
  -exchange      EXHF   =         0.00000000
  -V(xc)+E(xc)   XCENC  =       -32.43359772
  PAW double counting   =      1193.78262552    -1080.73714043
  entropy T*S    EENTRO =        -0.00001393
  eigenvalues    EBANDS =       -72.77840230
  atomic energy  EATOM  =      1448.48460880
  Solvation  Ediel_sol  =         0.00000000
  ---------------------------------------------------
  free energy    TOTEN  =       -25.85824792 eV

  energy without entropy =      -25.85823399  energy(sigma->0) =      -25.85824096


--------------------------------------------------------------------------------------------------------




--------------------------------------- Iteration      1(   3)  ---------------------------------------


     EDDAV:  cpu time      0.2943: real time      0.2975
       DOS:  cpu time      0.0007: real time      0.0007
    --------------------------------------------
      LOOP:  cpu time      0.2949: real time      0.2981

 eigenvalue-minimisations  :  3184
 total energy-change (2. order) :-0.8008564E+01  (-0.7992026E+01)
 number of electron      40.0000000 magnetization 
 augmentation part       40.0000000 magnetization 

 Free energy of the ion-electron system (eV)
  ---------------------------------------------------
  alpha Z        PSCENC =        94.48537923
  Ewald energy   TEWEN  =     -1463.90373642
  -Hartree energ DENC   =      -112.75797068
  -exchange      EXHF   =         0.00000000
  -V(xc)+E(xc)   XCENC  =       -32.43359772
  PAW double counting   =      1193.78262552    -1080.73714043
  entropy T*S    EENTRO =        -0.00000000
  eigenvalues    EBANDS =       -80.78698021
  atomic energy  EATOM  =      1448.48460880
  Solvation  Ediel_sol  =         0.00000000
  ---------------------------------------------------
  free energy    TOTEN  =       -33.86681190 eV

  energy without entropy =      -33.86681189  energy(sigma->0) =      -33.86681190


--------------------------------------------------------------------------------------------------------




--------------------------------------- Iteration      1(   4)  ---------------------------------------


     EDDAV:  cpu time      0.3042: real time      0.3075
       DOS:  cpu time      0.0008: real time      0.0008
    --------------------------------------------
      LOOP:  cpu time      0.3049: real time      0.3082

 eigenvalue-minimisations  :  3248
 total energy-change (2. order) :-0.4879818E-01  (-0.4879005E-01)
 number of electron      40.0000000 magnetization 
 augmentation part       40.0000000 magnetization 

 Free energy of the ion-electron system (eV)
  ---------------------------------------------------
  alpha Z        PSCENC =        94.48537923
  Ewald energy   TEWEN  =     -1463.90373642
  -Hartree energ DENC   =      -112.75797068
  -exchange      EXHF   =         0.00000000
  -V(xc)+E(xc)   XCENC  =       -32.43359772
  PAW double counting   =      1193.78262552    -1080.73714043
  entropy T*S    EENTRO =        -0.00000000
  eigenvalues    EBANDS =       -80.83577838
  atomic energy  EATOM  =      1448.48460880
  Solvation  Ediel_sol  =         0.00000000
  ---------------------------------------------------
  free energy    TOTEN  =       -33.91561007 eV

  energy without entropy =      -33.91561007  energy(sigma->0) =      -33.91561007


--------------------------------------------------------------------------------------------------------




--------------------------------------- Iteration      1(   5)  ---------------------------------------


     EDDAV:  cpu time      0.2858: real time      0.2892
       DOS:  cpu time      0.0007: real time      0.0007
    CHARGE:  cpu time      0.0044: real time      0.0045
    MIXING:  cpu time      0.0007: real time      0.0007
    --------------------------------------------
      LOOP:  cpu time      0.2916: real time      0.2950

 eigenvalue-minimisations  :  3104
 total energy-change (2. order) :-0.2878893E-03  (-0.2878787E-03)
 number of electron      39.9999978 magnetization 
 augmentation part       -7.4025068 magnetization 

 Broyden mixing:
  rms(total) = 0.68694E+00    rms(broyden)= 0.68693E+00
  rms(prec ) = 0.75567E+00
  weight for this iteration     100.00

 Free energy of the ion-electron system (eV)
  ---------------------------------------------------
  alpha Z        PSCENC =        94.48537923
  Ewald energy   TEWEN  =     -1463.90373642
  -Hartree energ DENC   =      -112.75797068
  -exchange      EXHF   =         0.00000000
  -V(xc)+E(xc)   XCENC  =       -32.43359772
  PAW double counting   =      1193.78262552    -1080.73714043
  entropy T*S    EENTRO =        -0.00000000
  eigenvalues    EBANDS =       -80.83606627
  atomic energy  EATOM  =      1448.48460880
  Solvation  Ediel_sol  =         0.00000000
  ---------------------------------------------------
  free energy    TOTEN  =       -33.91589796 eV

  energy without entropy =      -33.91589796  energy(sigma->0) =      -33.91589796


--------------------------------------------------------------------------------------------------------




--------------------------------------- Iteration      1(   6)  ---------------------------------------


    POTLOK:  cpu time      0.0052: real time      0.0054
    SETDIJ:  cpu time      0.1373: real time      0.1381
     EDDAV:  cpu time      0.3073: real time      0.3109
       DOS:  cpu time      0.0013: real time      0.0013
    CHARGE:  cpu time      0.0054: real time      0.0054
    MIXING:  cpu time      0.0006: real time      0.0006
    --------------------------------------------
      LOOP:  cpu time      0.4571: real time      0.4616

 eigenvalue-minimisations  :  3184
 total energy-change (2. order) : 0.3269648E+00  (-0.6213362E-01)
 number of electron      39.9999977 magnetization 
 augmentation part       -7.3529946 magnetization 

 Broyden mixing:
  rms(total) = 0.43220E+00    rms(broyden)= 0.43220E+00
  rms(prec ) = 0.45157E+00
  weight for this iteration     100.00

 eigenvalues of (default mixing * dielectric matrix)
  average eigenvalue GAMMA=   2.3337
  2.3337

 Free energy of the ion-electron system (eV)
  ---------------------------------------------------
  alpha Z        PSCENC =        94.48537923
  Ewald energy   TEWEN  =     -1463.90373642
  -Hartree energ DENC   =      -117.95246210
  -exchange      EXHF   =         0.00000000
  -V(xc)+E(xc)   XCENC  =       -31.86076286
  PAW double counting   =      1482.47286470    -1369.77878203
  entropy T*S    EENTRO =        -0.00010833
  eigenvalues    EBANDS =       -75.53593412
  atomic energy  EATOM  =      1448.48460880
  Solvation  Ediel_sol  =         0.00000000
  ---------------------------------------------------
  free energy    TOTEN  =       -33.58893313 eV

  energy without entropy =      -33.58882480  energy(sigma->0) =      -33.58887897


--------------------------------------------------------------------------------------------------------




--------------------------------------- Iteration      1(   7)  ---------------------------------------


    POTLOK:  cpu time      0.0066: real time      0.0068
    SETDIJ:  cpu time      0.1374: real time      0.1381
     EDDAV:  cpu time      0.3125: real time      0.3159
       DOS:  cpu time      0.0010: real time      0.0010
    CHARGE:  cpu time      0.0043: real time      0.0044
    MIXING:  cpu time      0.0005: real time      0.0005
    --------------------------------------------
      LOOP:  cpu time      0.4623: real time      0.4666

 eigenvalue-minimisations  :  3200
 total energy-change (2. order) : 0.1396180E-01  (-0.2292540E-01)
 number of electron      39.9999977 magnetization 
 augmentation part       -7.3360238 magnetization 

 Broyden mixing:
  rms(total) = 0.11210E+00    rms(broyden)= 0.11210E+00
  rms(prec ) = 0.12048E+00
  weight for this iteration     100.00

 eigenvalues of (default mixing * dielectric matrix)
  average eigenvalue GAMMA=   1.8199
  1.2364  2.4033

 Free energy of the ion-electron system (eV)
  ---------------------------------------------------
  alpha Z        PSCENC =        94.48537923
  Ewald energy   TEWEN  =     -1463.90373642
  -Hartree energ DENC   =      -120.73749153
  -exchange      EXHF   =         0.00000000
  -V(xc)+E(xc)   XCENC  =       -31.34135291
  PAW double counting   =      1880.82661338    -1768.44782094
  entropy T*S    EENTRO =        -0.00065721
  eigenvalues    EBANDS =       -72.94051374
  atomic energy  EATOM  =      1448.48460880
  Solvation  Ediel_sol  =         0.00000000
  ---------------------------------------------------
  free energy    TOTEN  =       -33.57497133 eV

  energy without entropy =      -33.57431412  energy(sigma->0) =      -33.57464272


--------------------------------------------------------------------------------------------------------




--------------------------------------- Iteration      1(   8)  ---------------------------------------


    POTLOK:  cpu time      0.0050: real time      0.0052
    SETDIJ:  cpu time      0.1373: real time      0.1380
     EDDAV:  cpu time      0.2752: real time      0.2779
       DOS:  cpu time      0.0009: real time      0.0009
    CHARGE:  cpu time      0.0041: real time      0.0041
    MIXING:  cpu time      0.0005: real time      0.0005
    --------------------------------------------
      LOOP:  cpu time      0.4230: real time      0.4267

 eigenvalue-minimisations  :  2928
 total energy-change (2. order) : 0.3158370E-02  (-0.2623045E-02)
 number of electron      39.9999977 magnetization 
 augmentation part       -7.3455886 magnetization 

 Broyden mixing:
  rms(total) = 0.17915E-01    rms(broyden)= 0.17915E-01
  rms(prec ) = 0.21115E-01
  weight for this iteration     100.00

 eigenvalues of (default mixing * dielectric matrix)
  average eigenvalue GAMMA=   1.7466
  2.5528  1.3435  1.3435

 Free energy of the ion-electron system (eV)
  ---------------------------------------------------
  alpha Z        PSCENC =        94.48537923
  Ewald energy   TEWEN  =     -1463.90373642
  -Hartree energ DENC   =      -120.51839767
  -exchange      EXHF   =         0.00000000
  -V(xc)+E(xc)   XCENC  =       -31.24725766
  PAW double counting   =      2001.77424586    -1889.44923055
  entropy T*S    EENTRO =        -0.00032992
  eigenvalues    EBANDS =       -73.19709463
  atomic energy  EATOM  =      1448.48460880
  Solvation  Ediel_sol  =         0.00000000
  ---------------------------------------------------
  free energy    TOTEN  =       -33.57181296 eV

  energy without entropy =      -33.57148304  energy(sigma->0) =      -33.57164800


--------------------------------------------------------------------------------------------------------




--------------------------------------- Iteration      1(   9)  ---------------------------------------


    POTLOK:  cpu time      0.0050: real time      0.0052
    SETDIJ:  cpu time      0.1370: real time      0.1377
     EDDAV:  cpu time      0.2855: real time      0.2885
       DOS:  cpu time      0.0009: real time      0.0010
    CHARGE:  cpu time      0.0041: real time      0.0042
    MIXING:  cpu time      0.0005: real time      0.0005
    --------------------------------------------
      LOOP:  cpu time      0.4330: real time      0.4370

 eigenvalue-minimisations  :  3040
 total energy-change (2. order) :-0.2513628E-03  (-0.3484414E-03)
 number of electron      39.9999977 magnetization 
 augmentation part       -7.3440237 magnetization 

 Broyden mixing:
  rms(total) = 0.62243E-02    rms(broyden)= 0.62243E-02
  rms(prec ) = 0.67555E-02
  weight for this iteration     100.00

 eigenvalues of (default mixing * dielectric matrix)
  average eigenvalue GAMMA=   1.6799
  2.2451  2.1096  1.1826  1.1826

 Free energy of the ion-electron system (eV)
  ---------------------------------------------------
  alpha Z        PSCENC =        94.48537923
  Ewald energy   TEWEN  =     -1463.90373642
  -Hartree energ DENC   =      -120.83225720
  -exchange      EXHF   =         0.00000000
  -V(xc)+E(xc)   XCENC  =       -31.20859138
  PAW double counting   =      2018.16962963    -1905.85659080
  entropy T*S    EENTRO =        -0.00038116
  eigenvalues    EBANDS =       -72.91012502
  atomic energy  EATOM  =      1448.48460880
  Solvation  Ediel_sol  =         0.00000000
  ---------------------------------------------------
  free energy    TOTEN  =       -33.57206432 eV

  energy without entropy =      -33.57168316  energy(sigma->0) =      -33.57187374


--------------------------------------------------------------------------------------------------------




--------------------------------------- Iteration      1(  10)  ---------------------------------------


    POTLOK:  cpu time      0.0049: real time      0.0052
    SETDIJ:  cpu time      0.1368: real time      0.1378
     EDDAV:  cpu time      0.2380: real time      0.2393
       DOS:  cpu time      0.0006: real time      0.0006
    CHARGE:  cpu time      0.0035: real time      0.0036
    MIXING:  cpu time      0.0003: real time      0.0003
    --------------------------------------------
      LOOP:  cpu time      0.3841: real time      0.3867

 eigenvalue-minimisations  :  3280
 total energy-change (2. order) :-0.3202659E-04  (-0.1694624E-04)
 number of electron      39.9999977 magnetization 
 augmentation part       -7.3441613 magnetization 

 Broyden mixing:
  rms(total) = 0.23556E-02    rms(broyden)= 0.23556E-02
  rms(prec ) = 0.27968E-02
  weight for this iteration     100.00

 eigenvalues of (default mixing * dielectric matrix)
  average eigenvalue GAMMA=   1.7507
  2.6944  2.3999  1.1566  1.2513  1.2513

 Free energy of the ion-electron system (eV)
  ---------------------------------------------------
  alpha Z        PSCENC =        94.48537923
  Ewald energy   TEWEN  =     -1463.90373642
  -Hartree energ DENC   =      -120.82670561
  -exchange      EXHF   =         0.00000000
  -V(xc)+E(xc)   XCENC  =       -31.20971306
  PAW double counting   =      2010.96817049    -1898.64942765
  entropy T*S    EENTRO =        -0.00036599
  eigenvalues    EBANDS =       -72.92030615
  atomic energy  EATOM  =      1448.48460880
  Solvation  Ediel_sol  =         0.00000000
  ---------------------------------------------------
  free energy    TOTEN  =       -33.57209635 eV

  energy without entropy =      -33.57173036  energy(sigma->0) =      -33.57191335


--------------------------------------------------------------------------------------------------------




--------------------------------------- Iteration      1(  11)  ---------------------------------------


    POTLOK:  cpu time      0.0034: real time      0.0036
    SETDIJ:  cpu time      0.1365: real time      0.1369
     EDDAV:  cpu time      0.1846: real time      0.1856
       DOS:  cpu time      0.0006: real time      0.0006
    CHARGE:  cpu time      0.0035: real time      0.0035
    MIXING:  cpu time      0.0003: real time      0.0003
    --------------------------------------------
      LOOP:  cpu time      0.3289: real time      0.3305

 eigenvalue-minimisations  :  2928
 total energy-change (2. order) :-0.2526609E-04  (-0.3417504E-05)
 number of electron      39.9999977 magnetization 
 augmentation part       -7.3443336 magnetization 

 Broyden mixing:
  rms(total) = 0.10609E-02    rms(broyden)= 0.10609E-02
  rms(prec ) = 0.11893E-02
  weight for this iteration     100.00

 eigenvalues of (default mixing * dielectric matrix)
  average eigenvalue GAMMA=   1.7023
  2.6142  2.1665  2.1665  1.2000  1.2000  0.8667

 Free energy of the ion-electron system (eV)
  ---------------------------------------------------
  alpha Z        PSCENC =        94.48537923
  Ewald energy   TEWEN  =     -1463.90373642
  -Hartree energ DENC   =      -120.85038416
  -exchange      EXHF   =         0.00000000
  -V(xc)+E(xc)   XCENC  =       -31.20357798
  PAW double counting   =      2012.17277677    -1899.85414283
  entropy T*S    EENTRO =        -0.00036023
  eigenvalues    EBANDS =       -72.90268479
  atomic energy  EATOM  =      1448.48460880
  Solvation  Ediel_sol  =         0.00000000
  ---------------------------------------------------
  free energy    TOTEN  =       -33.57212162 eV

  energy without entropy =      -33.57176138  energy(sigma->0) =      -33.57194150


--------------------------------------------------------------------------------------------------------




--------------------------------------- Iteration      1(  12)  ---------------------------------------


    POTLOK:  cpu time      0.0033: real time      0.0035
    SETDIJ:  cpu time      0.1170: real time      0.1174
     EDDAV:  cpu time      0.2075: real time      0.2085
       DOS:  cpu time      0.0006: real time      0.0006
    --------------------------------------------
      LOOP:  cpu time      0.3284: real time      0.3300

 eigenvalue-minimisations  :  3408
 total energy-change (2. order) :-0.2833858E-07  (-0.4602232E-06)
 number of electron      39.9999977 magnetization 
 augmentation part       -7.3443336 magnetization 

 Free energy of the ion-electron system (eV)
  ---------------------------------------------------
  alpha Z        PSCENC =        94.48537923
  Ewald energy   TEWEN  =     -1463.90373642
  -Hartree energ DENC   =      -120.86359936
  -exchange      EXHF   =         0.00000000
  -V(xc)+E(xc)   XCENC  =       -31.20255401
  PAW double counting   =      2011.74815142    -1899.42954631
  entropy T*S    EENTRO =        -0.00036452
  eigenvalues    EBANDS =       -72.89046047
  atomic energy  EATOM  =      1448.48460880
  Solvation  Ediel_sol  =         0.00000000
  ---------------------------------------------------
  free energy    TOTEN  =       -33.57212164 eV

  energy without entropy =      -33.57175712  energy(sigma->0) =      -33.57193938


--------------------------------------------------------------------------------------------------------




 average (electrostatic) potential at core
  the test charge radii are     1.1631  1.0808
  (the norm of the test charge is              1.0000)
       1 -32.7925       2 -32.7925       3 -32.7925       4 -32.7925       5 -54.3658
       6 -54.3658       7 -54.3658       8 -54.3658
 
 
 
 E-fermi :   4.1834     XC(G=0):  -9.6567     alpha+bet : -9.4129

 Fermi energy:         4.1834420063

 k-point     1 :       0.0000    0.0000    0.0000
  band No.  band energies     occupation 
      1     -10.6950      2.00000
      2     -10.3399      2.00000
      3      -9.3569      2.00000
      4      -8.7828      2.00000
      5      -3.9507      2.00000
      6      -3.3446      2.00000
      7      -2.0161      2.00000
      8      -1.3995      2.00000
      9      -1.3592      2.00000
     10      -0.0596      2.00000
     11       0.1479      2.00000
     12       0.2483      2.00000
     13       0.8937      2.00000
     14       1.2952      2.00000
     15       1.7323      2.00000
     16       2.1018      2.00000
     17       2.4414      2.00000
     18       2.6990      2.00000
     19       3.1036      2.00000
     20       4.0274      1.99999
     21       4.2298      0.18968
     22       6.6534      0.00000
     23       7.0199      0.00000
     24       7.1419      0.00000
     25       7.2911      0.00000
     26       7.3148      0.00000
     27       7.9612      0.00000
     28       8.6420      0.00000
     29       9.2298      0.00000
     30       9.4383      0.00000
     31       9.6349      0.00000
     32      10.1925      0.00000

 k-point     2 :       0.1667    0.0000    0.0000
  band No.  band energies     occupation 
      1     -10.4732      2.00000
      2     -10.1333      2.00000
      3      -9.2007      2.00000
      4      -8.6897      2.00000
      5      -4.2002      2.00000
      6      -3.6877      2.00000
      7      -2.1833      2.00000
      8      -2.1150      2.00000
      9      -1.3486      2.00000
     10       0.1510      2.00000
     11       0.1973      2.00000
     12       0.4471      2.00000
     13       0.8016      2.00000
     14       0.8314      2.00000
     15       1.8885      2.00000
     16       1.9248      2.00000
     17       2.1922      2.00000
     18       2.9249      2.00000
     19       3.1786      2.00000
     20       3.7248      2.00000
     21       4.4435      0.00000
     22       6.2535      0.00000
     23       6.8675      0.00000
     24       6.9665      0.00000
     25       7.4941      0.00000
     26       7.7967      0.00000
     27       8.0183      0.00000
     28       8.0265      0.00000
     29       8.2631      0.00000
     30       9.0511      0.00000
     31       9.1854      0.00000
     32       9.4059      0.00000

 k-point     3 :       0.3333    0.0000    0.0000
  band No.  band energies     occupation 
      1      -9.8592      2.00000
      2      -9.5819      2.00000
      3      -8.8967      2.00000
      4      -8.6274      2.00000
      5      -4.7778      2.00000
      6      -4.3274      2.00000
      7      -3.6283      2.00000
      8      -3.1578      2.00000
      9      -0.7221      2.00000
     10       0.3682      2.00000
     11       0.6810      2.00000
     12       0.9753      2.00000
     13       0.9783      2.00000
     14       1.1006      2.00000
     15       1.8414      2.00000
     16       2.1433      2.00000
     17       2.3041      2.00000
     18       2.8238      2.00000
     19       3.1142      2.00000
     20       3.2871      2.00000
     21       4.6578      0.00000
     22       4.9608      0.00000
     23       5.4236      0.00000
     24       5.9488      0.00000
     25       5.9896      0.00000
     26       6.5351      0.00000
     27       6.5368      0.00000
     28       7.4020      0.00000
     29       7.6771      0.00000
     30       8.0763      0.00000
     31       8.0795      0.00000
     32       9.1817      0.00000

 k-point     4 :       0.5000    0.0000    0.0000
  band No.  band energies     occupation 
      1      -9.0749      2.00000
      2      -9.0749      2.00000
      3      -8.9845      2.00000
      4      -8.9845      2.00000
      5      -4.7491      2.00000
      6      -4.7491      2.00000
      7      -4.1803      2.00000
      8      -4.1803      2.00000
      9       0.2438      2.00000
     10       0.2438      2.00000
     11       1.1773      2.00000
     12       1.1773      2.00000
     13       1.4166      2.00000
     14       1.4166      2.00000
     15       1.9834      2.00000
     16       1.9834      2.00000
     17       2.5615      2.00000
     18       2.5615      2.00000
     19       2.7282      2.00000
     20       2.7282      2.00000
     21       4.9757      0.00000
     22       4.9757      0.00000
     23       5.0283      0.00000
     24       5.0283      0.00000
     25       5.6030      0.00000
     26       5.6030      0.00000
     27       6.1646      0.00000
     28       6.1646      0.00000
     29       6.9114      0.00000
     30       6.9114      0.00000
     31       8.7033      0.00000
     32       8.7033      0.00000

 k-point     5 :       0.0000    0.1667    0.0000
  band No.  band energies     occupation 
      1     -10.5567      2.00000
      2     -10.2088      2.00000
      3      -9.3349      2.00000
      4      -8.8141      2.00000
      5      -4.4857      2.00000
      6      -3.6363      2.00000
      7      -2.7950      2.00000
      8      -2.0657      2.00000
      9      -1.3561      2.00000
     10       0.3646      2.00000
     11       0.9263      2.00000
     12       0.9975      2.00000
     13       1.0574      2.00000
     14       1.4463      2.00000
     15       2.1815      2.00000
     16       2.3165      2.00000
     17       2.6856      2.00000
     18       2.7252      2.00000
     19       3.0919      2.00000
     20       3.8485      2.00000
     21       4.3010      0.00088
     22       6.3833      0.00000
     23       7.0078      0.00000
     24       7.0222      0.00000
     25       7.1617      0.00000
     26       7.2920      0.00000
     27       7.7287      0.00000
     28       8.1300      0.00000
     29       8.4870      0.00000
     30       8.8523      0.00000
     31       9.4852      0.00000
     32       9.5247      0.00000

 k-point     6 :       0.1667    0.1667    0.0000
  band No.  band energies     occupation 
      1     -10.3402      2.00000
      2     -10.0082      2.00000
      3      -9.1826      2.00000
      4      -8.7181      2.00000
      5      -4.5283      2.00000
      6      -3.7740      2.00000
      7      -2.8599      2.00000
      8      -2.3717      2.00000
      9      -1.2024      2.00000
     10      -0.3472      2.00000
     11      -0.1156      2.00000
     12       0.7479      2.00000
     13       1.2039      2.00000
     14       1.6283      2.00000
     15       1.8561      2.00000
     16       1.8939      2.00000
     17       2.8042      2.00000
     18       2.8605      2.00000
     19       3.3725      2.00000
     20       3.7064      2.00000
     21       4.5517      0.00000
     22       5.8906      0.00000
     23       6.2777      0.00000
     24       6.4484      0.00000
     25       7.2065      0.00000
     26       7.6821      0.00000
     27       8.0434      0.00000
     28       8.1193      0.00000
     29       8.7388      0.00000
     30       8.8860      0.00000
     31       8.9365      0.00000
     32       9.7605      0.00000

 k-point     7 :       0.1667   -0.1667    0.0000
  band No.  band energies     occupation 
      1     -10.3402      2.00000
      2     -10.0082      2.00000
      3      -9.1826      2.00000
      4      -8.7181      2.00000
      5      -4.5283      2.00000
      6      -3.7740      2.00000
      7      -2.8599      2.00000
      8      -2.3717      2.00000
      9      -1.2024      2.00000
     10      -0.3472      2.00000
     11      -0.1156      2.00000
     12       0.7479      2.00000
     13       1.2039      2.00000
     14       1.6283      2.00000
     15       1.8561      2.00000
     16       1.8939      2.00000
     17       2.8042      2.00000
     18       2.8605      2.00000
     19       3.3725      2.00000
     20       3.7064      2.00000
     21       4.5517      0.00000
     22       5.8906      0.00000
     23       6.2777      0.00000
     24       6.4484      0.00000
     25       7.2065      0.00000
     26       7.6821      0.00000
     27       8.0434      0.00000
     28       8.1193      0.00000
     29       8.7388      0.00000
     30       8.8860      0.00000
     31       8.9365      0.00000
     32       9.7605      0.00000

 k-point     8 :       0.3333    0.1667    0.0000
  band No.  band energies     occupation 
      1      -9.7468      2.00000
      2      -9.4801      2.00000
      3      -8.8818      2.00000
      4      -8.6307      2.00000
      5      -4.7441      2.00000
      6      -4.2036      2.00000
      7      -3.6176      2.00000
      8      -3.2706      2.00000
      9      -0.7132      2.00000
     10      -0.5822      2.00000
     11      -0.3645      2.00000
     12       0.3883      2.00000
     13       1.0984      2.00000
     14       1.6155      2.00000
     15       1.6895      2.00000
     16       2.0651      2.00000
     17       2.1575      2.00000
     18       2.7193      2.00000
     19       2.8896      2.00000
     20       3.0442      2.00000
     21       4.7322      0.00000
     22       5.4140      0.00000
     23       5.7227      0.00000
     24       5.9040      0.00000
     25       6.3359      0.00000
     26       7.2287      0.00000
     27       7.6668      0.00000
     28       7.9836      0.00000
     29       8.1823      0.00000
     30       8.2692      0.00000
     31       8.9776      0.00000
     32       9.4979      0.00000

 k-point     9 :       0.3333   -0.1667    0.0000
  band No.  band energies     occupation 
      1      -9.7468      2.00000
      2      -9.4801      2.00000
      3      -8.8818      2.00000
      4      -8.6307      2.00000
      5      -4.7441      2.00000
      6      -4.2036      2.00000
      7      -3.6176      2.00000
      8      -3.2706      2.00000
      9      -0.7132      2.00000
     10      -0.5822      2.00000
     11      -0.3645      2.00000
     12       0.3883      2.00000
     13       1.0984      2.00000
     14       1.6155      2.00000
     15       1.6895      2.00000
     16       2.0651      2.00000
     17       2.1575      2.00000
     18       2.7193      2.00000
     19       2.8896      2.00000
     20       3.0442      2.00000
     21       4.7322      0.00000
     22       5.4140      0.00000
     23       5.7227      0.00000
     24       5.9040      0.00000
     25       6.3359      0.00000
     26       7.2287      0.00000
     27       7.6668      0.00000
     28       7.9836      0.00000
     29       8.1823      0.00000
     30       8.2692      0.00000
     31       8.9776      0.00000
     32       9.4979      0.00000

 k-point    10 :       0.5000    0.1667    0.0000
  band No.  band energies     occupation 
      1      -9.0128      2.00000
      2      -9.0128      2.00000
      3      -8.9325      2.00000
      4      -8.9325      2.00000
      5      -4.6108      2.00000
      6      -4.6108      2.00000
      7      -4.1043      2.00000
      8      -4.1043      2.00000
      9      -0.0975      2.00000
     10      -0.0975      2.00000
     11       0.2755      2.00000
     12       0.2755      2.00000
     13       0.8587      2.00000
     14       0.8587      2.00000
     15       1.5190      2.00000
     16       1.5190      2.00000
     17       2.1294      2.00000
     18       2.1294      2.00000
     19       2.9644      2.00000
     20       2.9644      2.00000
     21       4.8568      0.00000
     22       4.8568      0.00000
     23       6.0000      0.00000
     24       6.0000      0.00000
     25       6.9351      0.00000
     26       6.9351      0.00000
     27       7.0697      0.00000
     28       7.0697      0.00000
     29       7.9623      0.00000
     30       7.9623      0.00000
     31       8.4042      0.00000
     32       8.4042      0.00000

 k-point    11 :       0.0000    0.3333    0.0000
  band No.  band energies     occupation 
      1     -10.1787      2.00000
      2      -9.8494      2.00000
      3      -9.3842      2.00000
      4      -8.9875      2.00000
      5      -5.0907      2.00000
      6      -4.1089      2.00000
      7      -4.0342      2.00000
      8      -3.0787      2.00000
      9      -0.8996      2.00000
     10       0.8267      2.00000
     11       1.5040      2.00000
     12       1.7461      2.00000
     13       1.8518      2.00000
     14       1.9807      2.00000
     15       2.2824      2.00000
     16       2.4848      2.00000
     17       2.6709      2.00000
     18       3.4042      2.00000
     19       3.6624      2.00000
     20       4.1245      1.90429
     21       4.9710      0.00000
     22       5.2793      0.00000
     23       5.8699      0.00000
     24       6.4216      0.00000
     25       6.6891      0.00000
     26       7.2178      0.00000
     27       7.3151      0.00000
     28       7.4149      0.00000
     29       7.5066      0.00000
     30       8.3225      0.00000
     31       8.6942      0.00000
     32       9.8972      0.00000

 k-point    12 :       0.1667    0.3333    0.0000
  band No.  band energies     occupation 
      1      -9.9793      2.00000
      2      -9.6681      2.00000
      3      -9.2334      2.00000
      4      -8.8739      2.00000
      5      -4.9433      2.00000
      6      -3.9801      2.00000
      7      -3.9355      2.00000
      8      -3.0845      2.00000
      9      -0.6940      2.00000
     10      -0.2643      2.00000
     11      -0.0113      2.00000
     12       0.9159      2.00000
     13       1.0323      2.00000
     14       1.4525      2.00000
     15       1.8789      2.00000
     16       2.5945      2.00000
     17       2.9443      2.00000
     18       3.0647      2.00000
     19       3.2920      2.00000
     20       3.5643      2.00000
     21       4.9612      0.00000
     22       5.8693      0.00000
     23       6.3990      0.00000
     24       6.5986      0.00000
     25       6.7070      0.00000
     26       7.1234      0.00000
     27       7.8841      0.00000
     28       8.6352      0.00000
     29       8.6732      0.00000
     30       8.7880      0.00000
     31       9.2722      0.00000
     32       9.6992      0.00000

 k-point    13 :       0.1667   -0.3333    0.0000
  band No.  band energies     occupation 
      1      -9.9793      2.00000
      2      -9.6681      2.00000
      3      -9.2334      2.00000
      4      -8.8739      2.00000
      5      -4.9433      2.00000
      6      -3.9801      2.00000
      7      -3.9355      2.00000
      8      -3.0845      2.00000
      9      -0.6940      2.00000
     10      -0.2643      2.00000
     11      -0.0113      2.00000
     12       0.9159      2.00000
     13       1.0323      2.00000
     14       1.4525      2.00000
     15       1.8789      2.00000
     16       2.5945      2.00000
     17       2.9443      2.00000
     18       3.0647      2.00000
     19       3.2920      2.00000
     20       3.5643      2.00000
     21       4.9612      0.00000
     22       5.8693      0.00000
     23       6.3990      0.00000
     24       6.5986      0.00000
     25       6.7070      0.00000
     26       7.1234      0.00000
     27       7.8841      0.00000
     28       8.6352      0.00000
     29       8.6732      0.00000
     30       8.7880      0.00000
     31       9.2722      0.00000
     32       9.6992      0.00000

 k-point    14 :       0.3333    0.3333    0.0000
  band No.  band energies     occupation 
      1      -9.4522      2.00000
      2      -9.2147      2.00000
      3      -8.9105      2.00000
      4      -8.6953      2.00000
      5      -4.6393      2.00000
      6      -3.9136      2.00000
      7      -3.8648      2.00000
      8      -3.4511      2.00000
      9      -1.3755      2.00000
     10      -0.9827      2.00000
     11      -0.5043      2.00000
     12      -0.1548      2.00000
     13       0.1487      2.00000
     14       0.8491      2.00000
     15       1.2025      2.00000
     16       1.5009      2.00000
     17       2.0002      2.00000
     18       2.2489      2.00000
     19       2.5985      2.00000
     20       2.9780      2.00000
     21       4.8367      0.00000
     22       6.8557      0.00000
     23       6.8783      0.00000
     24       7.2547      0.00000
     25       7.3804      0.00000
     26       7.8508      0.00000
     27       8.1768      0.00000
     28       8.9043      0.00000
     29       8.9777      0.00000
     30       9.3191      0.00000
     31       9.5677      0.00000
     32      10.1314      0.00000

 k-point    15 :       0.3333   -0.3333    0.0000
  band No.  band energies     occupation 
      1      -9.4522      2.00000
      2      -9.2147      2.00000
      3      -8.9105      2.00000
      4      -8.6953      2.00000
      5      -4.6393      2.00000
      6      -3.9136      2.00000
      7      -3.8648      2.00000
      8      -3.4511      2.00000
      9      -1.3755      2.00000
     10      -0.9827      2.00000
     11      -0.5043      2.00000
     12      -0.1548      2.00000
     13       0.1487      2.00000
     14       0.8491      2.00000
     15       1.2025      2.00000
     16       1.5009      2.00000
     17       2.0002      2.00000
     18       2.2489      2.00000
     19       2.5985      2.00000
     20       2.9780      2.00000
     21       4.8367      0.00000
     22       6.8557      0.00000
     23       6.8783      0.00000
     24       7.2547      0.00000
     25       7.3804      0.00000
     26       7.8508      0.00000
     27       8.1768      0.00000
     28       8.9043      0.00000
     29       8.9777      0.00000
     30       9.3191      0.00000
     31       9.5677      0.00000
     32      10.1314      0.00000

 k-point    16 :       0.5000    0.3333    0.0000
  band No.  band energies     occupation 
      1      -8.8774      2.00000
      2      -8.8774      2.00000
      3      -8.8260      2.00000
      4      -8.8260      2.00000
      5      -4.2708      2.00000
      6      -4.2708      2.00000
      7      -3.9594      2.00000
      8      -3.9594      2.00000
      9      -1.0483      2.00000
     10      -1.0483      2.00000
     11      -0.5217      2.00000
     12      -0.5217      2.00000
     13       0.0688      2.00000
     14       0.0688      2.00000
     15       0.8524      2.00000
     16       0.8524      2.00000
     17       1.5206      2.00000
     18       1.5206      2.00000
     19       2.6230      2.00000
     20       2.6230      2.00000
     21       5.9466      0.00000
     22       5.9466      0.00000
     23       7.4575      0.00000
     24       7.4575      0.00000
     25       8.1250      0.00000
     26       8.1250      0.00000
     27       8.3801      0.00000
     28       8.3801      0.00000
     29       8.7359      0.00000
     30       8.7359      0.00000
     31      10.1088      0.00000
     32      10.1089      0.00000

 k-point    17 :       0.0000    0.5000    0.0000
  band No.  band energies     occupation 
      1      -9.7007      2.00000
      2      -9.7007      2.00000
      3      -9.3774      2.00000
      4      -9.3774      2.00000
      5      -4.9767      2.00000
      6      -4.9767      2.00000
      7      -3.8580      2.00000
      8      -3.8580      2.00000
      9      -0.0532      2.00000
     10      -0.0532      2.00000
     11       2.0452      2.00000
     12       2.0452      2.00000
     13       2.3426      2.00000
     14       2.3426      2.00000
     15       2.4002      2.00000
     16       2.4002      2.00000
     17       3.2402      2.00000
     18       3.2402      2.00000
     19       3.9270      2.00000
     20       3.9270      2.00000
     21       5.5985      0.00000
     22       5.5985      0.00000
     23       5.9491      0.00000
     24       5.9491      0.00000
     25       6.3670      0.00000
     26       6.3670      0.00000
     27       6.4439      0.00000
     28       6.4439      0.00000
     29       7.4618      0.00000
     30       7.4618      0.00000
     31       9.6581      0.00000
     32       9.6581      0.00000

 k-point    18 :       0.1667    0.5000    0.0000
  band No.  band energies     occupation 
      1      -9.5294      2.00000
      2      -9.5294      2.00000
      3      -9.2287      2.00000
      4      -9.2287      2.00000
      5      -4.7866      2.00000
      6      -4.7866      2.00000
      7      -3.7309      2.00000
      8      -3.7309      2.00000
      9      -0.0307      2.00000
     10      -0.0307      2.00000
     11       0.4366      2.00000
     12       0.4366      2.00000
     13       0.8359      2.00000
     14       0.8359      2.00000
     15       2.2426      2.00000
     16       2.2426      2.00000
     17       3.0215      2.00000
     18       3.0215      2.00000
     19       3.4790      2.00000
     20       3.4790      2.00000
     21       5.3027      0.00000
     22       5.3027      0.00000
     23       6.7745      0.00000
     24       6.7745      0.00000
     25       7.4721      0.00000
     26       7.4721      0.00000
     27       8.0233      0.00000
     28       8.0233      0.00000
     29       8.5825      0.00000
     30       8.5825      0.00000
     31       9.3975      0.00000
     32       9.3975      0.00000

 k-point    19 :       0.3333    0.5000    0.0000
  band No.  band energies     occupation 
      1      -9.1124      2.00000
      2      -9.1124      2.00000
      3      -8.9043      2.00000
      4      -8.9043      2.00000
      5      -4.3540      2.00000
      6      -4.3540      2.00000
      7      -3.6315      2.00000
      8      -3.6315      2.00000
      9      -1.2060      2.00000
     10      -1.2060      2.00000
     11      -0.7020      2.00000
     12      -0.7020      2.00000
     13       0.3475      2.00000
     14       0.3475      2.00000
     15       1.1666      2.00000
     16       1.1666      2.00000
     17       1.6484      2.00000
     18       1.6484      2.00000
     19       2.7298      2.00000
     20       2.7298      2.00000
     21       5.8209      0.00000
     22       5.8209      0.00000
     23       7.9832      0.00000
     24       7.9832      0.00000
     25       8.5132      0.00000
     26       8.5132      0.00000
     27       8.9052      0.00000
     28       8.9052      0.00000
     29       9.2944      0.00000
     30       9.2944      0.00000
     31      10.4549      0.00000
     32      10.4619      0.00000

 k-point    20 :       0.5000    0.5000    0.0000
  band No.  band energies     occupation 
      1      -8.7987      2.00000
      2      -8.7987      2.00000
      3      -8.7758      2.00000
      4      -8.7758      2.00000
      5      -4.0357      2.00000
      6      -4.0357      2.00000
      7      -3.9118      2.00000
      8      -3.9118      2.00000
      9      -1.4111      2.00000
     10      -1.4111      2.00000
     11      -0.9350      2.00000
     12      -0.9350      2.00000
     13      -0.2072      2.00000
     14      -0.2072      2.00000
     15       0.3034      2.00000
     16       0.3034      2.00000
     17       1.6627      2.00000
     18       1.6627      2.00000
[...]
     32       8.7796      0.00000

 k-point    32 :       0.1667    0.3333    0.5000
  band No.  band energies     occupation 
      1      -9.8580      2.00000
      2      -9.8580      2.00000
      3      -9.0200      2.00000
      4      -9.0200      2.00000
      5      -4.6132      2.00000
      6      -4.6132      2.00000
      7      -3.4193      2.00000
      8      -3.4193      2.00000
      9      -0.2283      2.00000
     10      -0.2283      2.00000
     11       0.4531      2.00000
     12       0.4531      2.00000
     13       0.9514      2.00000
     14       0.9514      2.00000
     15       2.1810      2.00000
     16       2.1810      2.00000
     17       2.9753      2.00000
     18       2.9753      2.00000
     19       3.3363      2.00000
     20       3.3363      2.00000
     21       6.0964      0.00000
     22       6.0964      0.00000
     23       6.4761      0.00000
     24       6.4761      0.00000
     25       6.9493      0.00000
     26       6.9493      0.00000
     27       7.8825      0.00000
     28       7.8825      0.00000
     29       8.4445      0.00000
     30       8.4445      0.00000
     31       9.3265      0.00000
     32       9.3265      0.00000

 k-point    33 :       0.1667   -0.3333    0.5000
  band No.  band energies     occupation 
      1      -9.8580      2.00000
      2      -9.8580      2.00000
      3      -9.0200      2.00000
      4      -9.0200      2.00000
      5      -4.6132      2.00000
      6      -4.6132      2.00000
      7      -3.4193      2.00000
      8      -3.4193      2.00000
      9      -0.2283      2.00000
     10      -0.2283      2.00000
     11       0.4531      2.00000
     12       0.4531      2.00000
     13       0.9514      2.00000
     14       0.9514      2.00000
     15       2.1810      2.00000
     16       2.1810      2.00000
     17       2.9753      2.00000
     18       2.9753      2.00000
     19       3.3363      2.00000
     20       3.3363      2.00000
     21       6.0964      0.00000
     22       6.0964      0.00000
     23       6.4761      0.00000
     24       6.4761      0.00000
     25       6.9493      0.00000
     26       6.9493      0.00000
     27       7.8825      0.00000
     28       7.8825      0.00000
     29       8.4445      0.00000
     30       8.4445      0.00000
     31       9.3265      0.00000
     32       9.3265      0.00000

 k-point    34 :       0.3333    0.3333    0.5000
  band No.  band energies     occupation 
      1      -9.3575      2.00000
      2      -9.3575      2.00000
      3      -8.7791      2.00000
      4      -8.7791      2.00000
      5      -4.3722      2.00000
      6      -4.3722      2.00000
      7      -3.5885      2.00000
      8      -3.5885      2.00000
      9      -1.1808      2.00000
     10      -1.1808      2.00000
     11      -0.2888      2.00000
     12      -0.2888      2.00000
     13       0.5625      2.00000
     14       0.5625      2.00000
     15       1.3047      2.00000
     16       1.3047      2.00000
     17       1.9542      2.00000
     18       1.9542      2.00000
     19       2.8038      2.00000
     20       2.8038      2.00000
     21       6.2005      0.00000
     22       6.2005      0.00000
     23       6.9107      0.00000
     24       6.9107      0.00000
     25       7.1631      0.00000
     26       7.1631      0.00000
     27       8.4667      0.00000
     28       8.4667      0.00000
     29       9.0938      0.00000
     30       9.0938      0.00000
     31      10.5730      0.00000
     32      10.5730      0.00000

 k-point    35 :       0.3333   -0.3333    0.5000
  band No.  band energies     occupation 
      1      -9.3575      2.00000
      2      -9.3575      2.00000
      3      -8.7791      2.00000
      4      -8.7791      2.00000
      5      -4.3722      2.00000
      6      -4.3722      2.00000
      7      -3.5885      2.00000
      8      -3.5885      2.00000
      9      -1.1808      2.00000
     10      -1.1808      2.00000
     11      -0.2888      2.00000
     12      -0.2888      2.00000
     13       0.5625      2.00000
     14       0.5625      2.00000
     15       1.3047      2.00000
     16       1.3047      2.00000
     17       1.9542      2.00000
     18       1.9542      2.00000
     19       2.8038      2.00000
     20       2.8038      2.00000
     21       6.2005      0.00000
     22       6.2005      0.00000
     23       6.9107      0.00000
     24       6.9107      0.00000
     25       7.1631      0.00000
     26       7.1631      0.00000
     27       8.4667      0.00000
     28       8.4667      0.00000
     29       9.0938      0.00000
     30       9.0938      0.00000
     31      10.5730      0.00000
     32      10.5730      0.00000

 k-point    36 :       0.5000    0.3333    0.5000
  band No.  band energies     occupation 
      1      -8.8521      2.00000
      2      -8.8521      2.00000
      3      -8.8521      2.00000
      4      -8.8521      2.00000
      5      -4.1227      2.00000
      6      -4.1227      2.00000
      7      -4.1227      2.00000
      8      -4.1227      2.00000
      9      -0.7801      2.00000
     10      -0.7801      2.00000
     11      -0.7801      2.00000
     12      -0.7801      2.00000
     13       0.3188      2.00000
     14       0.3188      2.00000
     15       0.3188      2.00000
     16       0.3188      2.00000
     17       2.2295      2.00000
     18       2.2295      2.00000
     19       2.2295      2.00000
     20       2.2295      2.00000
     21       6.5313      0.00000
     22       6.5313      0.00000
     23       6.5313      0.00000
     24       6.5313      0.00000
     25       7.9537      0.00000
     26       7.9537      0.00000
     27       7.9537      0.00000
     28       7.9537      0.00000
     29       9.7782      0.00000
     30       9.7782      0.00000
     31       9.7782      0.00000
     32       9.7782      0.00000

 k-point    37 :       0.0000    0.5000    0.5000
  band No.  band energies     occupation 
      1      -9.6951      2.00000
      2      -9.6951      2.00000
      3      -9.3853      2.00000
      4      -9.3853      2.00000
      5      -4.8742      2.00000
      6      -4.8742      2.00000
      7      -4.0375      2.00000
      8      -4.0375      2.00000
      9       0.7666      2.00000
     10       0.7666      2.00000
     11       1.1267      2.00000
     12       1.1267      2.00000
     13       2.0524      2.00000
     14       2.0524      2.00000
     15       2.3328      2.00000
     16       2.3328      2.00000
     17       3.6302      2.00000
     18       3.6302      2.00000
     19       3.8709      2.00000
     20       3.8709      2.00000
     21       5.5521      0.00000
     22       5.5521      0.00000
     23       6.1874      0.00000
     24       6.1874      0.00000
     25       6.4192      0.00000
     26       6.4192      0.00000
     27       7.1929      0.00000
     28       7.1929      0.00000
     29       7.3850      0.00000
     30       7.3850      0.00000
     31       8.5315      0.00000
     32       8.5315      0.00000

 k-point    38 :       0.1667    0.5000    0.5000
  band No.  band energies     occupation 
      1      -9.5242      2.00000
      2      -9.5242      2.00000
      3      -9.2359      2.00000
      4      -9.2359      2.00000
      5      -4.6959      2.00000
      6      -4.6959      2.00000
      7      -3.8850      2.00000
      8      -3.8850      2.00000
      9       0.2569      2.00000
     10       0.2569      2.00000
     11       0.4288      2.00000
     12       0.4288      2.00000
     13       1.2642      2.00000
     14       1.2642      2.00000
     15       1.4054      2.00000
     16       1.4054      2.00000
     17       3.0114      2.00000
     18       3.0114      2.00000
     19       3.2487      2.00000
     20       3.2487      2.00000
     21       6.4582      0.00000
     22       6.4582      0.00000
     23       6.8367      0.00000
     24       6.8367      0.00000
     25       7.0578      0.00000
     26       7.0578      0.00000
     27       7.8529      0.00000
     28       7.8529      0.00000
     29       8.5783      0.00000
     30       8.5783      0.00000
     31       8.7622      0.00000
     32       8.7622      0.00000

 k-point    39 :       0.3333    0.5000    0.5000
  band No.  band energies     occupation 
      1      -9.1086      2.00000
      2      -9.1086      2.00000
      3      -8.9091      2.00000
      4      -8.9091      2.00000
      5      -4.3063      2.00000
      6      -4.3063      2.00000
      7      -3.6991      2.00000
      8      -3.6991      2.00000
      9      -1.0080      2.00000
     10      -1.0080      2.00000
     11      -0.9702      2.00000
     12      -0.9702      2.00000
     13       0.6894      2.00000
     14       0.6894      2.00000
     15       0.8374      2.00000
     16       0.8374      2.00000
     17       2.0146      2.00000
     18       2.0146      2.00000
     19       2.3497      2.00000
     20       2.3497      2.00000
     21       6.3280      0.00000
     22       6.3280      0.00000
     23       7.1474      0.00000
     24       7.1474      0.00000
     25       8.4633      0.00000
     26       8.4633      0.00000
     27       8.6417      0.00000
     28       8.6417      0.00000
     29      10.2339      0.00000
     30      10.2339      0.00000
     31      10.3299      0.00000
     32      10.3299      0.00000

 k-point    40 :       0.5000    0.5000    0.5000
  band No.  band energies     occupation 
      1      -8.7873      2.00000
      2      -8.7873      2.00000
      3      -8.7873      2.00000
      4      -8.7873      2.00000
      5      -3.9800      2.00000
      6      -3.9800      2.00000
      7      -3.9800      2.00000
      8      -3.9800      2.00000
      9      -1.0747      2.00000
     10      -1.0747      2.00000
     11      -1.0747      2.00000
     12      -1.0747      2.00000
     13      -0.2125      2.00000
     14      -0.2125      2.00000
     15      -0.2125      2.00000
     16      -0.2125      2.00000
     17       2.2970      2.00000
     18       2.2970      2.00000
     19       2.2970      2.00000
     20       2.2970      2.00000
     21       6.3533      0.00000
     22       6.3533      0.00000
     23       6.3533      0.00000
     24       6.3533      0.00000
     25       9.1006      0.00000
     26       9.1006      0.00000
     27       9.1006      0.00000
     28       9.1006      0.00000
     29      10.6942      0.00000
     30      10.6942      0.00000
     31      10.6942      0.00000
     32      10.6942      0.00000


--------------------------------------------------------------------------------------------------------


 soft charge-density along one line, spin component            1
         0         1         2         3         4         5         6         7         8         9
 total charge-density along one line
 
 pseudopotential strength for first ion, spin component:            1
 14.319  17.859   0.041   0.044  -0.000   0.074   0.079  -0.000
 17.859  22.288   0.052   0.055  -0.000   0.094   0.100  -0.000
  0.041   0.052   3.192  -0.003  -0.000   5.431  -0.005  -0.000
  0.044   0.055  -0.003   3.191  -0.000  -0.005   5.430  -0.000
 -0.000  -0.000  -0.000  -0.000   3.194  -0.000  -0.000   5.434
  0.074   0.094   5.431  -0.005  -0.000   9.298  -0.009  -0.000
  0.079   0.100  -0.005   5.430  -0.000  -0.009   9.296  -0.000
 -0.000  -0.000  -0.000  -0.000   5.434  -0.000  -0.000   9.304
 -0.000  -0.000   0.000  -0.000   0.007   0.000  -0.000   0.014
 -0.007  -0.008   0.011   0.013  -0.000   0.021   0.023  -0.000
 -0.002  -0.002  -0.004   0.011   0.000  -0.007   0.021   0.000
 -0.000  -0.000  -0.000  -0.000   0.011  -0.000  -0.000   0.021
  0.002   0.003  -0.012   0.000  -0.000  -0.022   0.000  -0.000
 total augmentation occupancy for first ion, spin component:            1
  2.849  -0.789   0.382   0.353   0.000  -0.078  -0.066  -0.000   0.000  -0.001  -0.017   0.000   0.007
 -0.789   0.722  -0.460  -0.460  -0.000   0.076   0.073   0.000  -0.000  -0.001   0.016  -0.000  -0.002
  0.382  -0.460   1.358   0.109   0.000  -0.232  -0.009  -0.000  -0.000   0.045  -0.099   0.000  -0.007
  0.353  -0.460   0.109   1.287   0.000  -0.009  -0.215  -0.000   0.000  -0.007   0.094  -0.000  -0.004
  0.000  -0.000   0.000   0.000   1.345  -0.000  -0.000  -0.238   0.153   0.000   0.000   0.040  -0.000
 -0.078   0.076  -0.232  -0.009  -0.000   0.045   0.000   0.000  -0.000  -0.008   0.017  -0.000   0.001
 -0.066   0.073  -0.009  -0.215  -0.000   0.000   0.040   0.000  -0.000   0.001  -0.016  -0.000   0.001
 -0.000   0.000  -0.000  -0.000  -0.238   0.000   0.000   0.047  -0.027   0.000   0.000  -0.007   0.000
  0.000  -0.000  -0.000   0.000   0.153  -0.000  -0.000  -0.027   0.038  -0.000  -0.000   0.005   0.000
 -0.001  -0.001   0.045  -0.007   0.000  -0.008   0.001   0.000  -0.000   0.012  -0.007   0.000   0.001
 -0.017   0.016  -0.099   0.094   0.000   0.017  -0.016   0.000  -0.000  -0.007   0.034   0.000  -0.001
  0.000  -0.000   0.000  -0.000   0.040  -0.000  -0.000  -0.007   0.005   0.000   0.000   0.012   0.000
  0.007  -0.002  -0.007  -0.004  -0.000   0.001   0.001   0.000   0.000   0.001  -0.001   0.000   0.010


------------------------ aborting loop because EDIFF is reached ----------------------------------------


    CHARGE:  cpu time      0.0035: real time      0.0035
    FORLOC:  cpu time      0.0001: real time      0.0001
    FORNL :  cpu time      0.0200: real time      0.0200
    STRESS:  cpu time      0.1793: real time      0.1800
    FORCOR:  cpu time      0.0034: real time      0.0034
    FORHAR:  cpu time      0.0009: real time      0.0009
    MIXING:  cpu time      0.0004: real time      0.0004
    OFIELD:  cpu time      0.0000: real time      0.0000

  FORCE on cell =-STRESS in cart. coord.  units (eV):
  Direction    XX          YY          ZZ          XY          YZ          ZX
  --------------------------------------------------------------------------------------
  Alpha Z    94.48538    94.48538    94.48538
  Ewald    -449.45426  -478.29385  -536.15733     0.00000    -0.00000    -0.00000
  Hartree    58.19852    42.05743    20.60957    -0.00000     0.00000     0.00000
  E(xc)    -142.18504  -142.10050  -142.31726    -0.00000     0.00000     0.00000
  Local    -182.37801  -141.32685   -67.86294     0.00000    -0.00000     0.00000
  n-local   242.97352   242.73051   242.46570    -0.00000    -0.00000    -0.00000
  augment   -11.43245   -11.64052   -12.05765    -0.00000     0.00000     0.00000
  Kinetic   397.24633   398.56229   401.78939     0.00000     0.00000    -0.00000
  Fock        0.00000     0.00000     0.00000     0.00000     0.00000     0.00000
  -------------------------------------------------------------------------------------
  Total       7.45399     4.47387     0.95486     0.00000     0.00000    -0.00000
  in kB      66.59424    39.96974     8.53078     0.00003     0.00000    -0.00000
  external pressure =       38.36 kB  Pullay stress =        0.00 kB


 VOLUME and BASIS-vectors are now :
 -----------------------------------------------------------------------------
  energy-cutoff  :      360.00
  volume of cell :      179.33
      direct lattice vectors                 reciprocal lattice vectors
     3.700000000  0.000000000  0.000000000     0.270270270  0.000000000  0.000000000
     0.000000000  4.350000000  0.000000000     0.000000000  0.229885057  0.000000000
     0.000000000  0.000000000 11.142221000     0.000000000  0.000000000  0.089748713

  length of vectors
     3.700000000  4.350000000 11.142221000     0.270270270  0.229885057  0.089748713


 FORCES acting on ions
    electron-ion (+dipol)            ewald-force                    non-local-force                 convergence-correction
 -----------------------------------------------------------------------------------------------
   0.233E-06 0.155E+02 0.261E+02   -.589E-16 -.178E+02 -.289E+02   0.547E-07 0.227E+01 0.275E+01   -.571E-07 0.173E-03 -.924E-03
   0.256E-06 0.155E+02 -.261E+02   0.106E-13 -.178E+02 0.289E+02   0.141E-06 0.227E+01 -.275E+01   -.426E-06 0.172E-03 0.920E-03
   0.109E-05 -.155E+02 -.261E+02   -.126E-14 0.178E+02 0.289E+02   -.735E-06 -.227E+01 -.275E+01   -.376E-06 -.172E-03 0.919E-03
   -.610E-06 -.155E+02 0.261E+02   -.143E-13 0.178E+02 -.289E+02   0.109E-06 -.227E+01 0.275E+01   0.329E-06 -.173E-03 -.916E-03
   -.350E-05 -.146E+02 -.250E+02   -.114E-13 0.160E+02 0.263E+02   0.171E-05 -.135E+01 -.137E+01   0.218E-05 0.503E-04 0.207E-02
   -.135E-05 -.146E+02 0.250E+02   -.706E-14 0.160E+02 -.263E+02   0.915E-06 -.135E+01 0.137E+01   0.508E-06 0.448E-04 -.208E-02
   0.203E-05 0.146E+02 0.250E+02   0.837E-14 -.160E+02 -.263E+02   -.121E-05 0.135E+01 0.137E+01   -.975E-06 -.493E-04 -.207E-02
   -.113E-05 0.146E+02 -.250E+02   -.161E-15 -.160E+02 0.263E+02   0.380E-06 0.135E+01 -.137E+01   0.541E-06 -.475E-04 0.207E-02
 -----------------------------------------------------------------------------------------------
   -.297E-05 -.233E-06 -.179E-05   -.153E-13 0.355E-14 0.249E-13   0.136E-05 0.212E-05 0.194E-05   0.172E-05 -.218E-05 -.124E-05
 
 
 POSITION                                       TOTAL-FORCE (eV/Angst)
 -----------------------------------------------------------------------------------
      0.92500      0.46838      1.35740         0.000000     -0.085726      0.005839
      2.77500      2.64338      4.21371        -0.000000     -0.085725     -0.005842
      2.77500      3.88162      9.78482        -0.000000      0.085725     -0.005840
      0.92500      1.70662      6.92851        -0.000000      0.085725      0.005843
      0.92500      0.02795      3.93366         0.000000      0.095178     -0.023487
      2.77500      2.20295      1.63745         0.000000      0.095179      0.023491
      2.77500      4.32205      7.20856        -0.000000     -0.095178      0.023488
      0.92500      2.14705      9.50478        -0.000000     -0.095179     -0.023491
 -----------------------------------------------------------------------------------
    total drift:                                0.000000     -0.000000     -0.000001


--------------------------------------------------------------------------------------------------------



  FREE ENERGIE OF THE ION-ELECTRON SYSTEM (eV)
  ---------------------------------------------------
  free  energy   TOTEN  =       -33.57212164 eV

  energy  without entropy=      -33.57175712  energy(sigma->0) =      -33.57193938
 


--------------------------------------------------------------------------------------------------------


    POTLOK:  cpu time      0.1132: real time      0.1140


--------------------------------------------------------------------------------------------------------


     LOOP+:  cpu time      4.8664: real time      4.9314
    4ORBIT:  cpu time      0.0000: real time      0.0000

 total amount of memory used by VASP MPI-rank0    37839. kBytes
=======================================================================

   base      :      30000. kBytes
   nonl-proj :       6082. kBytes
   fftplans  :        317. kBytes
   grid      :        462. kBytes
   one-center:         16. kBytes
   wavefun   :        962. kBytes
 
  
  
 General timing and accounting informations for this job:
 ========================================================
  
                  Total CPU time used (sec):        5.657
                            User time (sec):        5.377
                          System time (sec):        0.280
                         Elapsed time (sec):        7.213
  
                   Maximum memory used (kb):      188440.
                   Average memory used (kb):          N/A
  
                          Minor page faults:        21128
                          Major page faults:           29
                 Voluntary context switches:         2466
