 vasp.6.4.2 20Jul23 (build Oct 12 2023 10:31:02) complex                         
 executed on              LinuxNV date 2025.05.27  13:46:03
 running   32 mpi-ranks, with    1 threads/rank, on    2 nodes
 distrk:  each k-point on   16 cores,    2 groups
 distr:  one band on NCORE=   1 cores,   16 groups


--------------------------------------------------------------------------------------------------------


 INCAR:
   ENCUT = 520.000000
   SIGMA = 0.050000
   EDIFF = 1.00e-06
   ALGO = N
   GGA = PE
   PREC = Accurate
   SYSTEM = 02_SCF
   ICHARG = 0
   ISMEAR = 0
   ISPIN = 2
   ISTART = 1
   KPAR = 2
   LORBIT = 11
   NBANDS = 220
   NELM = 100
   NELMIN = 5
   LASPH = .TRUE.
   LCHARG = .TRUE.
   LWAVE = .TRUE.
   LREAL = .FALSE.

 POTCAR:    PAW_PBE Ge 05Jan2001                  
 POTCAR:    PAW_PBE Se 06Sep2000                  
 -----------------------------------------------------------------------------
|                                                                             |
|           W    W    AA    RRRRR   N    N  II  N    N   GGGG   !!!           |
|           W    W   A  A   R    R  NN   N  II  NN   N  G    G  !!!           |
|           W    W  A    A  R    R  N N  N  II  N N  N  G       !!!           |
|           W WW W  AAAAAA  RRRRR   N  N N  II  N  N N  G  GGG   !            |
|           WW  WW  A    A  R   R   N   NN  II  N   NN  G    G                |
|           W    W  A    A  R    R  N    N  II  N    N   GGGG   !!!           |
|                                                                             |
|     You use a magnetic or noncollinear calculation, but did not specify     |
|     the initial magnetic moment with the MAGMOM tag. Note that a            |
|     default of 1 will be used for all atoms. This ferromagnetic setup       |
|     may break the symmetry of the crystal, in particular it may rule        |
|     out finding an antiferromagnetic solution. Thence, we recommend         |
|     setting the initial magnetic moment manually or verifying carefully     |
|     that this magnetic setup is desired.                                    |
|                                                                             |
 -----------------------------------------------------------------------------

 POTCAR:    PAW_PBE Ge 05Jan2001                  
   VRHFIN =Ge: s2p2                                                                                 
   LEXCH  = PE                                                                                      
   EATOM  =   104.9960 eV,    7.7170 Ry                                                             
                                                                                                    
   TITEL  = PAW_PBE Ge 05Jan2001                                                                    
   LULTRA =        F    use ultrasoft PP ?                                                          
   IUNSCR =        1    unscreen: 0-lin 1-nonlin 2-no                                               
   RPACOR =    2.170    partial core radius                                                         
   POMASS =   72.610; ZVAL   =    4.000    mass and valenz                                          
   RCORE  =    2.300    outmost cutoff radius                                                       
   RWIGS  =    2.300; RWIGS  =    1.217    wigner-seitz radius (au A)                               
   ENMAX  =  173.807; ENMIN  =  130.355 eV                                                          
   ICORE  =        3    local potential                                                             
   LCOR   =        T    correct aug charges                                                         
   LPAW   =        T    paw PP                                                                      
   EAUG   =  385.843                                                                                
   DEXC   =    0.000                                                                                
   RMAX   =    2.342    core radius for proj-oper                                                   
   RAUG   =    1.300    factor for augmentation sphere                                              
   RDEP   =    2.318    radius for radial grids                                                     
   RDEPT  =    2.103    core radius for aug-charge                                                  
                                                                                                    
   Atomic configuration                                                                             
   10 entries                                                                                       
     n  l   j            E        occ.                                                              
     1  0  0.50    -10959.8463   2.0000                                                             
     2  0  0.50     -1371.6056   2.0000                                                             
     2  1  1.50     -1198.4791   6.0000                                                             
     3  0  0.50      -168.4733   2.0000                                                             
     3  1  1.50      -115.6019   6.0000                                                             
     3  2  2.50       -29.3106  10.0000                                                             
     4  0  0.50       -11.7309   2.0000                                                             
     4  1  0.50        -3.8952   2.0000                                                             
     4  2  1.50        -4.0817   0.0000                                                             
     4  3  2.50        -4.0817   0.0000                                                             
   Description                                                                                      
     l       E           TYP  RCUT    TYP  RCUT                                                     
     0    -11.7309493     23  2.300                                                                 
     0     -7.4578696     23  2.300                                                                 
     1     -3.8952261     23  2.300                                                                 
     1      6.1178114     23  2.300                                                                 
     2     -4.0817478     23  2.300                                                                 
     3     -1.3605826      7  2.300                                                                 
  local pseudopotential read in
  partial core-charges read in
  partial kinetic energy density read in
  atomic valenz-charges read in
  non local Contribution for L=            0  read in
    real space projection operators read in
  non local Contribution for L=            0  read in
    real space projection operators read in
  non local Contribution for L=            1  read in
    real space projection operators read in
  non local Contribution for L=            1  read in
    real space projection operators read in
  non local Contribution for L=            2  read in
    real space projection operators read in
    PAW grid and wavefunctions read in
 
   number of l-projection  operators is LMAX  =            5
   number of lm-projection operators is LMMAX =           13
 
 POTCAR:    PAW_PBE Se 06Sep2000                  
   VRHFIN =Se: s2p4                                                                                 
   LEXCH  = PE                                                                                      
   EATOM  =   257.1286 eV,   18.8984 Ry                                                             
                                                                                                    
   TITEL  = PAW_PBE Se 06Sep2000                                                                    
   LULTRA =        F    use ultrasoft PP ?                                                          
   IUNSCR =        1    unscreen: 0-lin 1-nonlin 2-no                                               
   RPACOR =    1.900    partial core radius                                                         
   POMASS =   78.960; ZVAL   =    6.000    mass and valenz                                          
   RCORE  =    2.100    outmost cutoff radius                                                       
   RWIGS  =    2.200; RWIGS  =    1.164    wigner-seitz radius (au A)                               
   ENMAX  =  211.555; ENMIN  =  158.666 eV                                                          
   ICORE  =        3    local potential                                                             
   LCOR   =        T    correct aug charges                                                         
   LPAW   =        T    paw PP                                                                      
   EAUG   =  446.842                                                                                
   DEXC   =    0.000                                                                                
   RMAX   =    2.147    core radius for proj-oper                                                   
   RAUG   =    1.300    factor for augmentation sphere                                              
   RDEP   =    2.177    radius for radial grids                                                     
   RDEPT  =    1.928    core radius for aug-charge                                                  
                                                                                                    
   Atomic configuration                                                                             
   10 entries                                                                                       
     n  l   j            E        occ.                                                              
     1  0  0.50    -12503.4787   2.0000                                                             
     2  0  0.50     -1606.9547   2.0000                                                             
     2  1  1.50     -1413.3140   6.0000                                                             
     3  0  0.50      -213.4885   2.0000                                                             
     3  1  1.50      -152.9538   6.0000                                                             
     3  2  2.50       -53.1221  10.0000                                                             
     4  0  0.50       -17.2865   2.0000                                                             
     4  1  0.50        -6.5110   4.0000                                                             
     4  2  2.50        -6.8029   0.0000                                                             
     4  3  2.50        -6.8029   0.0000                                                             
   Description                                                                                      
     l       E           TYP  RCUT    TYP  RCUT                                                     
     0    -17.2865377     23  2.100                                                                 
     0    -15.3094411     23  2.100                                                                 
     1     -6.5110275     23  2.100                                                                 
     1     -0.0695192     23  2.100                                                                 
     2     -6.8029130     23  2.100                                                                 
     3     -1.3605826      7  2.100                                                                 
  local pseudopotential read in
  partial core-charges read in
  partial kinetic energy density read in
  atomic valenz-charges read in
  non local Contribution for L=            0  read in
    real space projection operators read in
  non local Contribution for L=            0  read in
    real space projection operators read in
  non local Contribution for L=            1  read in
    real space projection operators read in
  non local Contribution for L=            1  read in
    real space projection operators read in
  non local Contribution for L=            2  read in
    real space projection operators read in
    PAW grid and wavefunctions read in
 
   number of l-projection  operators is LMAX  =            5
   number of lm-projection operators is LMMAX =           13
 
  PAW_PBE Ge 05Jan2001                  :
 energy of atom  1       EATOM= -104.9960
 kinetic energy error for atom=    0.0002 (will be added to EATOM!!)
  PAW_PBE Se 06Sep2000                  :
 energy of atom  2       EATOM= -257.1286
 kinetic energy error for atom=    0.0007 (will be added to EATOM!!)
 
 
 POSCAR: Ge Se
  positions in cartesian coordinates
  No initial velocities read in
 exchange correlation table for  LEXCH =        8
   RHO(1)=    0.500       N(1)  =     2000
   RHO(2)=  100.500       N(2)  =     4000
 


--------------------------------------------------------------------------------------------------------


 ion  position               nearest neighbor table
   1  0.250  0.116  0.059-   6 2.60   6 2.60   8 2.60
   2  0.750  0.884  0.681-   5 2.60   5 2.60   7 2.60
   3  0.750  0.616  0.181-   8 2.60   8 2.60   6 2.60
   4  0.250  0.384  0.559-   7 2.60   7 2.60   5 2.60
   5  0.250  0.505  0.669-   2 2.60   2 2.60   4 2.60
   6  0.750  0.495  0.071-   1 2.60   1 2.60   3 2.60
   7  0.750  0.005  0.571-   4 2.60   4 2.60   2 2.60
   8  0.250  0.995  0.169-   3 2.60   3 2.60   1 2.60
 
  LATTYP: Found a simple orthorhombic cell.
 ALAT       =     3.8581001759
 B/A-ratio  =     1.1732653073
 C/A-ratio  =     5.9835606686
  
  Lattice vectors:
  
 A1 = (   3.8581001759,   0.0000000000,   0.0000000000)
 A2 = (   0.0000000000,   4.5265750885,   0.0000000000)
 A3 = (   0.0000000000,   0.0000000000,  23.0851764679)


Analysis of symmetry for initial positions (statically):
=====================================================================
 Subroutine PRICEL returns:
 Original cell was already a primitive cell.
 

 Routine SETGRP: Setting up the symmetry group for a 
 simple orthorhombic supercell.


 Subroutine GETGRP returns: Found  8 space group operations
 (whereof  1 operations were pure point group operations)
 out of a pool of  8 trial point group operations.


The static configuration has the point symmetry C_1 .
 The point group associated with its full space group is D_2h.


Analysis of symmetry for dynamics (positions and initial velocities):
=====================================================================
 Subroutine PRICEL returns:
 Original cell was already a primitive cell.
 

 Routine SETGRP: Setting up the symmetry group for a 
 simple orthorhombic supercell.


 Subroutine GETGRP returns: Found  8 space group operations
 (whereof  1 operations were pure point group operations)
 out of a pool of  8 trial point group operations.


The dynamic configuration has the point symmetry C_1 .
 The point group associated with its full space group is D_2h.


Analysis of structural, dynamic, and magnetic symmetry:
=====================================================================
 Subroutine PRICEL returns:
 Original cell was already a primitive cell.
 

 Routine SETGRP: Setting up the symmetry group for a 
 simple orthorhombic supercell.


 Subroutine GETGRP returns: Found  8 space group operations
 (whereof  1 operations were pure point group operations)
 out of a pool of  8 trial point group operations.


The overall configuration has the point symmetry C_1 .
 The point group associated with its full space group is D_2h.


 Subroutine INISYM returns: Found  8 space group operations
 (whereof  1 operations are pure point group operations),
 and found     1 'primitive' translations


----------------------------------------------------------------------------------------

                                     Primitive cell                                     

  volume of cell :     403.1591

  direct lattice vectors                    reciprocal lattice vectors
     3.858100176  0.000000000  0.000000000     0.259194929  0.000000000  0.000000000
     0.000000000  4.526575088  0.000000000     0.000000000  0.220917577  0.000000000
     0.000000000  0.000000000 23.085176468     0.000000000  0.000000000  0.043317841

  length of vectors
     3.858100176  4.526575088 23.085176468     0.259194929  0.220917577  0.043317841

  position of ions in fractional coordinates (direct lattice)
     0.250000000  0.115641899  0.059322299
     0.750000000  0.884358108  0.680770652
     0.750000000  0.615641892  0.180770652
     0.250000000  0.384358108  0.559322303
     0.250000000  0.504948974  0.669327995
     0.750000000  0.495050967  0.070764945
     0.750000000  0.004949023  0.570764960
     0.250000000  0.995051026  0.169328010

  ion indices of the primitive-cell ions
   primitive index   ion index
                 1           1
                 2           2
                 3           3
                 4           4
                 5           5
                 6           6
                 7           7
                 8           8

----------------------------------------------------------------------------------------

 
 
 KPOINTS: KPOINTS created by Atomic Simulation Env

Automatic generation of k-mesh.
 Grid dimensions read from file:
 generate k-points for:    6    6    2

 Generating k-lattice:

  Cartesian coordinates                     Fractional coordinates (reciprocal lattice)
     0.043199155  0.000000000  0.000000000     0.166666667  0.000000000  0.000000000
     0.000000000  0.036819596  0.000000000     0.000000000  0.166666667  0.000000000
     0.000000000  0.000000000  0.021658920     0.000000000  0.000000000  0.500000000

  Length of vectors
     0.043199155  0.036819596  0.021658920

  Shift w.r.t. Gamma in fractional coordinates (k-lattice)
     0.000000000  0.000000000  0.000000000

 
 Subroutine IBZKPT returns following result:
 ===========================================
 
 Found     32 irreducible k-points:
 
 Following reciprocal coordinates:
            Coordinates               Weight
  0.000000  0.000000  0.000000      1.000000
  0.166667  0.000000  0.000000      2.000000
  0.333333  0.000000  0.000000      2.000000
  0.500000  0.000000  0.000000      1.000000
  0.000000  0.166667  0.000000      2.000000
  0.166667  0.166667  0.000000      4.000000
  0.333333  0.166667  0.000000      4.000000
  0.500000  0.166667  0.000000      2.000000
  0.000000  0.333333  0.000000      2.000000
  0.166667  0.333333  0.000000      4.000000
  0.333333  0.333333  0.000000      4.000000
  0.500000  0.333333  0.000000      2.000000
  0.000000  0.500000  0.000000      1.000000
  0.166667  0.500000  0.000000      2.000000
  0.333333  0.500000  0.000000      2.000000
  0.500000  0.500000  0.000000      1.000000
  0.000000  0.000000  0.500000      1.000000
  0.166667  0.000000  0.500000      2.000000
  0.333333  0.000000  0.500000      2.000000
  0.500000  0.000000  0.500000      1.000000
  0.000000  0.166667  0.500000      2.000000
  0.166667  0.166667  0.500000      4.000000
  0.333333  0.166667  0.500000      4.000000
  0.500000  0.166667  0.500000      2.000000
  0.000000  0.333333  0.500000      2.000000
  0.166667  0.333333  0.500000      4.000000
  0.333333  0.333333  0.500000      4.000000
  0.500000  0.333333  0.500000      2.000000
  0.000000  0.500000  0.500000      1.000000
  0.166667  0.500000  0.500000      2.000000
  0.333333  0.500000  0.500000      2.000000
  0.500000  0.500000  0.500000      1.000000
 
 Following cartesian coordinates:
            Coordinates               Weight
  0.000000  0.000000  0.000000      1.000000
  0.043199  0.000000  0.000000      2.000000
  0.086398  0.000000  0.000000      2.000000
  0.129597  0.000000  0.000000      1.000000
  0.000000  0.036820  0.000000      2.000000
  0.043199  0.036820  0.000000      4.000000
  0.086398  0.036820  0.000000      4.000000
  0.129597  0.036820  0.000000      2.000000
  0.000000  0.073639  0.000000      2.000000
  0.043199  0.073639  0.000000      4.000000
  0.086398  0.073639  0.000000      4.000000
  0.129597  0.073639  0.000000      2.000000
  0.000000  0.110459  0.000000      1.000000
  0.043199  0.110459  0.000000      2.000000
  0.086398  0.110459  0.000000      2.000000
  0.129597  0.110459  0.000000      1.000000
  0.000000  0.000000  0.021659      1.000000
  0.043199  0.000000  0.021659      2.000000
  0.086398  0.000000  0.021659      2.000000
  0.129597  0.000000  0.021659      1.000000
  0.000000  0.036820  0.021659      2.000000
  0.043199  0.036820  0.021659      4.000000
  0.086398  0.036820  0.021659      4.000000
  0.129597  0.036820  0.021659      2.000000
  0.000000  0.073639  0.021659      2.000000
  0.043199  0.073639  0.021659      4.000000
  0.086398  0.073639  0.021659      4.000000
  0.129597  0.073639  0.021659      2.000000
  0.000000  0.110459  0.021659      1.000000
  0.043199  0.110459  0.021659      2.000000
  0.086398  0.110459  0.021659      2.000000
  0.129597  0.110459  0.021659      1.000000
 
 -----------------------------------------------------------------------------
|                                                                             |
|           W    W    AA    RRRRR   N    N  II  N    N   GGGG   !!!           |
|           W    W   A  A   R    R  NN   N  II  NN   N  G    G  !!!           |
|           W    W  A    A  R    R  N N  N  II  N N  N  G       !!!           |
|           W WW W  AAAAAA  RRRRR   N  N N  II  N  N N  G  GGG   !            |
|           WW  WW  A    A  R   R   N   NN  II  N   NN  G    G                |
|           W    W  A    A  R    R  N    N  II  N    N   GGGG   !!!           |
|                                                                             |
|     The number of bands has been changed from the values supplied in        |
|     the INCAR file. This is a result of running the parallel version.       |
|     The orbitals not found in the WAVECAR file will be initialized with     |
|     random numbers, which is usually adequate. For correlated               |
|     calculations, however, you should redo the groundstate calculation.     |
|     I found NBANDS = 220. Now, NBANDS = 224.                                |
|                                                                             |
 -----------------------------------------------------------------------------



--------------------------------------------------------------------------------------------------------




 Dimension of arrays:
   k-points           NKPTS =     32   k-points in BZ     NKDIM =     32   number of bands    NBANDS=    224
   number of dos      NEDOS =    301   number of ions     NIONS =      8
   non local maximal  LDIM  =      5   non local SUM 2l+1 LMDIM =     13
   total plane-waves  NPLWV = 194400
   max r-space proj   IRMAX =      1   max aug-charges    IRDMAX=  26404
   dimension x,y,z NGX =    30 NGY =   36 NGZ =  180
   dimension x,y,z NGXF=    60 NGYF=   72 NGZF=  360
   support grid    NGXF=    60 NGYF=   72 NGZF=  360
   ions per type =               4   4
   NGX,Y,Z   is equivalent  to a cutoff of  12.93, 13.22, 12.96 a.u.
   NGXF,Y,Z  is equivalent  to a cutoff of  25.85, 26.44, 25.93 a.u.

 SYSTEM =  02_SCF                                  
 POSCAR =  Ge Se                                   

 Startparameter for this run:
   NWRITE =      2    write-flag & timer
   PREC   = accura    normal or accurate (medium, high low for compatibility)
   ISTART =      0    job   : 0-new  1-cont  2-samecut
   ICHARG =      2    charge: 1-file 2-atom 10-const
   ISPIN  =      2    spin polarized calculation?
   LNONCOLLINEAR =      F non collinear calculations
   LSORBIT =      F    spin-orbit coupling
   INIWAV =      1    electr: 0-lowe 1-rand  2-diag
   LASPH  =      T    aspherical Exc in radial PAW
 Electronic Relaxation 1
   ENCUT  =  520.0 eV  38.22 Ry    6.18 a.u.   7.17  8.42 42.92*2*pi/ulx,y,z
   ENINI  =  520.0     initial cutoff
   ENAUG  =  446.8 eV  augmentation charge cutoff
   NELM   =    100;   NELMIN=  5; NELMDL=  0     # of ELM steps 
   EDIFF  = 0.1E-05   stopping-criterion for ELM
   LREAL  =      F    real-space projection
   NLSPLINE    = F    spline interpolate recip. space projectors
   LCOMPAT=      F    compatible to vasp.4.4
   GGA_COMPAT  = T    GGA compatible to vasp.4.4-vasp.4.6
   LMAXPAW     = -100 max onsite density
   LMAXMIX     =    2 max onsite mixed and CHGCAR
   VOSKOWN=      0    Vosko Wilk Nusair interpolation
   ROPT   =    0.00000   0.00000
 Ionic relaxation
   EDIFFG = 0.1E-04   stopping-criterion for IOM
   NSW    =      0    number of steps for IOM
   NBLOCK =      1;   KBLOCK =      1    inner block; outer block 
   IBRION =     -1    ionic relax: 0-MD 1-quasi-New 2-CG
   NFREE  =      0    steps in history (QN), initial steepest desc. (CG)
   ISIF   =      2    stress and relaxation
   IWAVPR =     10    prediction:  0-non 1-charg 2-wave 3-comb
   ISYM   =      2    0-nonsym 1-usesym 2-fastsym
   LCORR  =      T    Harris-Foulkes like correction to forces

   POTIM  = 0.5000    time-step for ionic-motion
   TEIN   =    0.0    initial temperature
   TEBEG  =    0.0;   TEEND  =   0.0 temperature during run
   SMASS  =  -3.00    Nose mass-parameter (am)
   estimated Nose-frequenzy (Omega)   =  0.10E-29 period in steps = 0.13E+47 mass=  -0.340E-27a.u.
   SCALEE = 1.0000    scale energy and forces
   NPACO  =    256;   APACO  = 10.0  distance and # of slots for P.C.
   PSTRESS=    0.0 pullay stress

  Mass of Ions in am
   POMASS =  72.61 78.96
  Ionic Valenz
   ZVAL   =   4.00  6.00
  Atomic Wigner-Seitz radii
   RWIGS  =  -1.00 -1.00
  virtual crystal weights 
   VCA    =   1.00  1.00
   NELECT =      40.0000    total number of electrons
   NUPDOWN=      -1.0000    fix difference up-down

 DOS related values:
   EMIN   =  10.00;   EMAX   =-10.00  energy-range for DOS
   EFERMI =   0.00;   METHOD = LEGACY      
   ISMEAR =     0;   SIGMA  =   0.05  broadening in eV -4-tet -1-fermi 0-gaus

 Electronic relaxation 2 (details)
   IALGO  =     38    algorithm
   LDIAG  =      T    sub-space diagonalisation (order eigenvalues)
   LSUBROT=      F    optimize rotation matrix (better conditioning)
   TURBO    =      0    0=normal 1=particle mesh
   IRESTART =      0    0=no restart 2=restart with 2 vectors
   NREBOOT  =      0    no. of reboots
   NMIN     =      0    reboot dimension
   EREF     =   0.00    reference energy to select bands
   IMIX   =      4    mixing-type and parameters
     AMIX     =   0.40;   BMIX     =  1.00
     AMIX_MAG =   1.60;   BMIX_MAG =  1.00
     AMIN     =   0.10
     WC   =   100.;   INIMIX=   1;  MIXPRE=   1;  MAXMIX= -45

 Intra band minimization:
   WEIMIN = 0.0000     energy-eigenvalue tresh-hold
   EBREAK =  0.11E-08  absolut break condition
   DEPER  =   0.30     relativ break condition  

   TIME   =   0.40     timestep for ELM

  volume/ion in A,a.u.               =      50.39       340.08
  Fermi-wavevector in a.u.,A,eV,Ry     =   0.757884  1.432193  7.815023  0.574388
  Thomas-Fermi vector in A             =   1.856330
 
 Write flags
   LWAVE        =      T    write WAVECAR
   LDOWNSAMPLE  =      F    k-point downsampling of WAVECAR
   LCHARG       =      T    write CHGCAR
   LVTOT        =      F    write LOCPOT, total local potential
   LVHAR        =      F    write LOCPOT, Hartree potential only
   LELF         =      F    write electronic localiz. function (ELF)
   LORBIT       =     11    0 simple, 1 ext, 2 COOP (PROOUT), +10 PAW based schemes


 Dipole corrections
   LMONO  =      F    monopole corrections only (constant potential shift)
   LDIPOL =      F    correct potential (dipole corrections)
   IDIPOL =      0    1-x, 2-y, 3-z, 4-all directions 
   EPSILON=  1.0000000 bulk dielectric constant

 Exchange correlation treatment:
   GGA     =    PE    GGA type
   LEXCH   =     8    internal setting for exchange type
   LIBXC   =     F    Libxc                    
   VOSKOWN =     0    Vosko Wilk Nusair interpolation
   LHFCALC =     F    Hartree Fock is set to
   LHFONE  =     F    Hartree Fock one center treatment
   AEXX    =    0.0000 exact exchange contribution

 Linear response parameters
   LEPSILON=     F    determine dielectric tensor
   LRPA    =     F    only Hartree local field effects (RPA)
   LNABLA  =     F    use nabla operator in PAW spheres
   LVEL    =     F    velocity operator in full k-point grid
   CSHIFT  =0.1000    complex shift for real part using Kramers Kronig
   OMEGAMAX=  -1.0    maximum frequency
   DEG_THRESHOLD= 0.2000000E-02 threshold for treating states as degnerate
   RTIME   =   -0.100 relaxation time in fs
  (WPLASMAI=    0.000 imaginary part of plasma frequency in eV, 0.658/RTIME)
   DFIELD  = 0.0000000 0.0000000 0.0000000 field for delta impulse in time
 
  Optional k-point grid parameters
   LKPOINTS_OPT  =     F    use optional k-point grid
   KPOINTS_OPT_MODE=     1    mode for optional k-point grid
 
 Orbital magnetization related:
   ORBITALMAG=     F  switch on orbital magnetization
   LCHIMAG   =     F  perturbation theory with respect to B field
   DQ        =  0.001000  dq finite difference perturbation B field
   LLRAUG    =     F  two centre corrections for induced B field
   LBONE     =     F  B-component reconstruction in AE one-centre
   LVGVCALC  =     T  calculate vGv susceptibility
   LVGVAPPL  =     F  apply vGv susceptibility instead of pGv for G=0

 Random number generation:
   RANDOM_GENERATOR = DEFAULT
   PCG_SEED         = not used


--------------------------------------------------------------------------------------------------------


 Static calculation
 charge density and potential will be updated during run
 spin polarized calculation
 Variant of blocked Davidson
 Davidson routine will perform the subspace rotation
 perform sub-space diagonalisation
    after iterative eigenvector-optimisation
 modified Broyden-mixing scheme, WC =      100.0
 initial mixing is a Kerker type mixing with AMIX =  0.4000 and BMIX =      1.0000
 Hartree-type preconditioning will be used
 using additional bands           204
 reciprocal scheme for non local part
 use partial core corrections
 calculate Harris-corrections to forces 
   (improved forces if not selfconsistent)
 use gradient corrections 
 use of overlap-Matrix (Vanderbilt PP)
 Gauss-broadening in eV      SIGMA  =   0.05


--------------------------------------------------------------------------------------------------------


  energy-cutoff  :      520.00
  volume of cell :      403.16
      direct lattice vectors                 reciprocal lattice vectors
     3.858100176  0.000000000  0.000000000     0.259194929  0.000000000  0.000000000
     0.000000000  4.526575088  0.000000000     0.000000000  0.220917577  0.000000000
     0.000000000  0.000000000 23.085176468     0.000000000  0.000000000  0.043317841

  length of vectors
     3.858100176  4.526575088 23.085176468     0.259194929  0.220917577  0.043317841


 
 k-points in units of 2pi/SCALE and weight: KPOINTS created by Atomic Simulation Env
   0.00000000  0.00000000  0.00000000       0.014
   0.04319915  0.00000000  0.00000000       0.028
   0.08639831  0.00000000  0.00000000       0.028
   0.12959746  0.00000000  0.00000000       0.014
   0.00000000  0.03681960  0.00000000       0.028
   0.04319915  0.03681960  0.00000000       0.056
   0.08639831  0.03681960  0.00000000       0.056
   0.12959746  0.03681960  0.00000000       0.028
   0.00000000  0.07363919  0.00000000       0.028
   0.04319915  0.07363919  0.00000000       0.056
   0.08639831  0.07363919  0.00000000       0.056
   0.12959746  0.07363919  0.00000000       0.028
   0.00000000  0.11045879  0.00000000       0.014
   0.04319915  0.11045879  0.00000000       0.028
   0.08639831  0.11045879  0.00000000       0.028
   0.12959746  0.11045879  0.00000000       0.014
   0.00000000  0.00000000  0.02165892       0.014
   0.04319915  0.00000000  0.02165892       0.028
   0.08639831  0.00000000  0.02165892       0.028
   0.12959746  0.00000000  0.02165892       0.014
   0.00000000  0.03681960  0.02165892       0.028
   0.04319915  0.03681960  0.02165892       0.056
   0.08639831  0.03681960  0.02165892       0.056
   0.12959746  0.03681960  0.02165892       0.028
   0.00000000  0.07363919  0.02165892       0.028
   0.04319915  0.07363919  0.02165892       0.056
   0.08639831  0.07363919  0.02165892       0.056
   0.12959746  0.07363919  0.02165892       0.028
   0.00000000  0.11045879  0.02165892       0.014
   0.04319915  0.11045879  0.02165892       0.028
   0.08639831  0.11045879  0.02165892       0.028
   0.12959746  0.11045879  0.02165892       0.014
 
 k-points in reciprocal lattice and weights: KPOINTS created by Atomic Simulation Env
   0.00000000  0.00000000  0.00000000       0.014
   0.16666667  0.00000000  0.00000000       0.028
   0.33333333  0.00000000  0.00000000       0.028
   0.50000000  0.00000000  0.00000000       0.014
   0.00000000  0.16666667  0.00000000       0.028
   0.16666667  0.16666667  0.00000000       0.056
   0.33333333  0.16666667  0.00000000       0.056
   0.50000000  0.16666667  0.00000000       0.028
   0.00000000  0.33333333  0.00000000       0.028
   0.16666667  0.33333333  0.00000000       0.056
   0.33333333  0.33333333  0.00000000       0.056
   0.50000000  0.33333333  0.00000000       0.028
   0.00000000  0.50000000  0.00000000       0.014
   0.16666667  0.50000000  0.00000000       0.028
   0.33333333  0.50000000  0.00000000       0.028
   0.50000000  0.50000000  0.00000000       0.014
   0.00000000  0.00000000  0.50000000       0.014
   0.16666667  0.00000000  0.50000000       0.028
   0.33333333  0.00000000  0.50000000       0.028
   0.50000000  0.00000000  0.50000000       0.014
   0.00000000  0.16666667  0.50000000       0.028
   0.16666667  0.16666667  0.50000000       0.056
   0.33333333  0.16666667  0.50000000       0.056
   0.50000000  0.16666667  0.50000000       0.028
   0.00000000  0.33333333  0.50000000       0.028
   0.16666667  0.33333333  0.50000000       0.056
   0.33333333  0.33333333  0.50000000       0.056
   0.50000000  0.33333333  0.50000000       0.028
   0.00000000  0.50000000  0.50000000       0.014
   0.16666667  0.50000000  0.50000000       0.028
   0.33333333  0.50000000  0.50000000       0.028
   0.50000000  0.50000000  0.50000000       0.014
 
 position of ions in fractional coordinates (direct lattice) 
   0.25000000  0.11564190  0.05932230
   0.75000000  0.88435811  0.68077065
   0.75000000  0.61564189  0.18077065
   0.25000000  0.38435811  0.55932230
   0.25000000  0.50494897  0.66932800
   0.75000000  0.49505097  0.07076495
   0.75000000  0.00494902  0.57076496
   0.25000000  0.99505103  0.16932801
 
 position of ions in cartesian coordinates  (Angst):
   0.96452504  0.52346174  1.36946575
   2.89357513  4.00311338 15.71571064
   2.89357513  2.78674925  4.17312240
   0.96452504  1.73982584 12.91205406
   0.96452504  2.28568945 15.45155489
   2.89357513  2.24088537  1.63362125
   2.89357513  0.02240212 13.17620982
   0.96452504  4.50417319  3.90896698
 


--------------------------------------------------------------------------------------------------------


 k-point   1 :   0.0000 0.0000 0.0000  plane waves:   10835
 k-point   2 :   0.1667 0.0000 0.0000  plane waves:   10865
 k-point   3 :   0.3333 0.0000 0.0000  plane waves:   10888
 k-point   4 :   0.5000 0.0000 0.0000  plane waves:   10910
 k-point   5 :   0.0000 0.1667 0.0000  plane waves:   10853
 k-point   6 :   0.1667 0.1667 0.0000  plane waves:   10841
 k-point   7 :   0.3333 0.1667 0.0000  plane waves:   10870
 k-point   8 :   0.5000 0.1667 0.0000  plane waves:   10912
 k-point   9 :   0.0000 0.3333 0.0000  plane waves:   10845
 k-point  10 :   0.1667 0.3333 0.0000  plane waves:   10827
 k-point  11 :   0.3333 0.3333 0.0000  plane waves:   10855
 k-point  12 :   0.5000 0.3333 0.0000  plane waves:   10842
 k-point  13 :   0.0000 0.5000 0.0000  plane waves:   10876
 k-point  14 :   0.1667 0.5000 0.0000  plane waves:   10808
 k-point  15 :   0.3333 0.5000 0.0000  plane waves:   10842
 k-point  16 :   0.5000 0.5000 0.0000  plane waves:   10820
 k-point  17 :   0.0000 0.0000 0.5000  plane waves:   10838
 k-point  18 :   0.1667 0.0000 0.5000  plane waves:   10838
 k-point  19 :   0.3333 0.0000 0.5000  plane waves:   10900
 k-point  20 :   0.5000 0.0000 0.5000  plane waves:   10924
 k-point  21 :   0.0000 0.1667 0.5000  plane waves:   10852
 k-point  22 :   0.1667 0.1667 0.5000  plane waves:   10834
 k-point  23 :   0.3333 0.1667 0.5000  plane waves:   10876
 k-point  24 :   0.5000 0.1667 0.5000  plane waves:   10908
 k-point  25 :   0.0000 0.3333 0.5000  plane waves:   10842
 k-point  26 :   0.1667 0.3333 0.5000  plane waves:   10840
 k-point  27 :   0.3333 0.3333 0.5000  plane waves:   10858
 k-point  28 :   0.5000 0.3333 0.5000  plane waves:   10852
 k-point  29 :   0.0000 0.5000 0.5000  plane waves:   10884
 k-point  30 :   0.1667 0.5000 0.5000  plane waves:   10844
 k-point  31 :   0.3333 0.5000 0.5000  plane waves:   10832
 k-point  32 :   0.5000 0.5000 0.5000  plane waves:   10776

 maximum and minimum number of plane-waves per node :     10924    10776

 maximum number of plane-waves:     10924
 maximum index in each direction: 
   IXMAX=    7   IYMAX=    8   IZMAX=   42
   IXMIN=   -7   IYMIN=   -8   IZMIN=  -43


 serial   3D FFT for wavefunctions
 parallel 3D FFT for charge:
    minimum data exchange during FFTs selected (reduces bandwidth)


 total amount of memory used by VASP MPI-rank0   290679. kBytes
=======================================================================

   base      :      30000. kBytes
   nonl-proj :      74135. kBytes
   fftplans  :       4229. kBytes
   grid      :      23917. kBytes
   one-center:        129. kBytes
   wavefun   :     158269. kBytes
 
     INWAV:  cpu time      0.0000: real time      0.0001
 Broyden mixing: mesh for mixing (old mesh)
   NGX = 15   NGY = 17   NGZ = 85
  (NGX  = 60   NGY  = 72   NGZ  =360)
  gives a total of  21675 points

 initial charge density was supplied:
 charge density of overlapping atoms calculated
 number of electron      40.0000000 magnetization       8.0000000
 keeping initial charge density in first step


--------------------------------------------------------------------------------------------------------


 Maximum index for augmentation-charges          1861 (set IRDMAX)


--------------------------------------------------------------------------------------------------------


 First call to EWALD:  gamma=   0.240
 Maximum number of real-space cells 5x 4x 1
 Maximum number of reciprocal cells 2x 2x 8

    FEWALD:  cpu time      0.0062: real time      0.0063


--------------------------------------- Ionic step        1  -------------------------------------------




--------------------------------------- Iteration      1(   1)  ---------------------------------------


    POTLOK:  cpu time      0.2066: real time      0.2081
    SETDIJ:  cpu time      1.1454: real time      1.1479
     EDDAV:  cpu time     26.4838: real time     26.7079
       DOS:  cpu time      0.0026: real time      0.0026
    --------------------------------------------
      LOOP:  cpu time     27.8384: real time     28.0665

 eigenvalue-minimisations  : 28672
 total energy-change (2. order) : 0.1779939E+03  (-0.9415604E+03)
 number of electron      40.0000000 magnetization       8.0000000
 augmentation part       40.0000000 magnetization       8.0000000

 Free energy of the ion-electron system (eV)
  ---------------------------------------------------
  alpha Z        PSCENC =        42.02918147
  Ewald energy   TEWEN  =        48.47002043
  -Hartree energ DENC   =     -1370.48790653
  -exchange      EXHF   =         0.00000000
  -V(xc)+E(xc)   XCENC  =       -34.02477117
  PAW double counting   =      1193.15788873    -1079.99237720
  entropy T*S    EENTRO =        -0.00348389
  eigenvalues    EBANDS =       -69.64922173
  atomic energy  EATOM  =      1448.49460871
  Solvation  Ediel_sol  =         0.00000000
  ---------------------------------------------------
  free energy    TOTEN  =       177.99393883 eV

  energy without entropy =      177.99742272  energy(sigma->0) =      177.99568077


--------------------------------------------------------------------------------------------------------




--------------------------------------- Iteration      1(   2)  ---------------------------------------


     EDDAV:  cpu time     30.6770: real time     30.9142
       DOS:  cpu time      0.0020: real time      0.0020
    --------------------------------------------
      LOOP:  cpu time     30.6790: real time     30.9162

 eigenvalue-minimisations  : 34640
 total energy-change (2. order) :-0.1993160E+03  (-0.1779367E+03)
 number of electron      40.0000000 magnetization       8.0000000
 augmentation part       40.0000000 magnetization       8.0000000

 Free energy of the ion-electron system (eV)
  ---------------------------------------------------
  alpha Z        PSCENC =        42.02918147
  Ewald energy   TEWEN  =        48.47002043
  -Hartree energ DENC   =     -1370.48790653
  -exchange      EXHF   =         0.00000000
  -V(xc)+E(xc)   XCENC  =       -34.02477117
  PAW double counting   =      1193.15788873    -1079.99237720
  entropy T*S    EENTRO =        -0.00000000
  eigenvalues    EBANDS =      -268.96867789
  atomic energy  EATOM  =      1448.49460871
  Solvation  Ediel_sol  =         0.00000000
  ---------------------------------------------------
  free energy    TOTEN  =       -21.32203344 eV

  energy without entropy =      -21.32203344  energy(sigma->0) =      -21.32203344


--------------------------------------------------------------------------------------------------------




--------------------------------------- Iteration      1(   3)  ---------------------------------------


     EDDAV:  cpu time     30.6184: real time     30.8990
       DOS:  cpu time      0.0020: real time      0.0020
    --------------------------------------------
      LOOP:  cpu time     30.6204: real time     30.9009

 eigenvalue-minimisations  : 34512
 total energy-change (2. order) :-0.1108617E+02  (-0.1091234E+02)
 number of electron      40.0000000 magnetization       8.0000000
 augmentation part       40.0000000 magnetization       8.0000000

 Free energy of the ion-electron system (eV)
  ---------------------------------------------------
  alpha Z        PSCENC =        42.02918147
  Ewald energy   TEWEN  =        48.47002043
  -Hartree energ DENC   =     -1370.48790653
  -exchange      EXHF   =         0.00000000
  -V(xc)+E(xc)   XCENC  =       -34.02477117
  PAW double counting   =      1193.15788873    -1079.99237720
  entropy T*S    EENTRO =        -0.00000000
  eigenvalues    EBANDS =      -280.05485185
  atomic energy  EATOM  =      1448.49460871
  Solvation  Ediel_sol  =         0.00000000
  ---------------------------------------------------
  free energy    TOTEN  =       -32.40820740 eV

  energy without entropy =      -32.40820740  energy(sigma->0) =      -32.40820740


--------------------------------------------------------------------------------------------------------




--------------------------------------- Iteration      1(   4)  ---------------------------------------


     EDDAV:  cpu time     30.1351: real time     30.4056
       DOS:  cpu time      0.0020: real time      0.0020
    --------------------------------------------
      LOOP:  cpu time     30.1371: real time     30.4076

 eigenvalue-minimisations  : 33776
 total energy-change (2. order) :-0.6784944E-01  (-0.6783258E-01)
 number of electron      40.0000000 magnetization       8.0000000
 augmentation part       40.0000000 magnetization       8.0000000

 Free energy of the ion-electron system (eV)
  ---------------------------------------------------
  alpha Z        PSCENC =        42.02918147
  Ewald energy   TEWEN  =        48.47002043
  -Hartree energ DENC   =     -1370.48790653
  -exchange      EXHF   =         0.00000000
  -V(xc)+E(xc)   XCENC  =       -34.02477117
  PAW double counting   =      1193.15788873    -1079.99237720
  entropy T*S    EENTRO =        -0.00000000
  eigenvalues    EBANDS =      -280.12270129
  atomic energy  EATOM  =      1448.49460871
  Solvation  Ediel_sol  =         0.00000000
  ---------------------------------------------------
  free energy    TOTEN  =       -32.47605685 eV

  energy without entropy =      -32.47605685  energy(sigma->0) =      -32.47605685


--------------------------------------------------------------------------------------------------------




--------------------------------------- Iteration      1(   5)  ---------------------------------------


     EDDAV:  cpu time     29.7016: real time     29.9596
       DOS:  cpu time      0.0020: real time      0.0020
    CHARGE:  cpu time      0.3422: real time      0.3441
    MIXING:  cpu time      0.0088: real time      0.0088
    --------------------------------------------
      LOOP:  cpu time     30.0545: real time     30.3145

 eigenvalue-minimisations  : 33264
 total energy-change (2. order) :-0.2995912E-03  (-0.2995845E-03)
 number of electron      40.0000003 magnetization       7.1171901
 augmentation part       -7.4658663 magnetization       7.1346697

 Broyden mixing:
  rms(total) = 0.96720E+00    rms(broyden)= 0.96720E+00
  rms(prec ) = 0.98625E+00
  weight for this iteration     100.00

 Free energy of the ion-electron system (eV)
  ---------------------------------------------------
  alpha Z        PSCENC =        42.02918147
  Ewald energy   TEWEN  =        48.47002043
  -Hartree energ DENC   =     -1370.48790653
  -exchange      EXHF   =         0.00000000
  -V(xc)+E(xc)   XCENC  =       -34.02477117
  PAW double counting   =      1193.15788873    -1079.99237720
  entropy T*S    EENTRO =        -0.00000000
  eigenvalues    EBANDS =      -280.12300089
  atomic energy  EATOM  =      1448.49460871
  Solvation  Ediel_sol  =         0.00000000
  ---------------------------------------------------
  free energy    TOTEN  =       -32.47635644 eV

  energy without entropy =      -32.47635644  energy(sigma->0) =      -32.47635644


--------------------------------------------------------------------------------------------------------




--------------------------------------- Iteration      1(   6)  ---------------------------------------


    POTLOK:  cpu time      0.1980: real time      0.2004
    SETDIJ:  cpu time      1.1392: real time      1.1416
     EDDAV:  cpu time     28.6727: real time     28.9061
       DOS:  cpu time      0.0020: real time      0.0020
    CHARGE:  cpu time      0.3346: real time      0.3360
    MIXING:  cpu time      0.0084: real time      0.0084
    --------------------------------------------
      LOOP:  cpu time     30.3548: real time     30.5944

 eigenvalue-minimisations  : 31760
 total energy-change (2. order) : 0.7060672E+01  (-0.3754953E+00)
 number of electron      40.0000003 magnetization       6.0699970
 augmentation part       -7.4536314 magnetization       6.2722479

 Broyden mixing:
  rms(total) = 0.61695E+00    rms(broyden)= 0.61695E+00
  rms(prec ) = 0.62786E+00
  weight for this iteration     100.00

 eigenvalues of (default mixing * dielectric matrix)
  average eigenvalue GAMMA=   1.0435
  1.0435

 Free energy of the ion-electron system (eV)
  ---------------------------------------------------
  alpha Z        PSCENC =        42.02918147
  Ewald energy   TEWEN  =        48.47002043
  -Hartree energ DENC   =     -1381.03622167
  -exchange      EXHF   =         0.00000000
  -V(xc)+E(xc)   XCENC  =       -28.37123687
  PAW double counting   =      1450.26967319    -1337.52208570
  entropy T*S    EENTRO =        -0.00000000
  eigenvalues    EBANDS =      -267.74962415
  atomic energy  EATOM  =      1448.49460871
  Solvation  Ediel_sol  =         0.00000000
  ---------------------------------------------------
  free energy    TOTEN  =       -25.41568460 eV

  energy without entropy =      -25.41568460  energy(sigma->0) =      -25.41568460


--------------------------------------------------------------------------------------------------------




--------------------------------------- Iteration      1(   7)  ---------------------------------------


    POTLOK:  cpu time      0.1985: real time      0.1996
    SETDIJ:  cpu time      1.1422: real time      1.1445
     EDDAV:  cpu time     29.4367: real time     29.6686
       DOS:  cpu time      0.0020: real time      0.0020
    CHARGE:  cpu time      0.3316: real time      0.3332
    MIXING:  cpu time      0.0084: real time      0.0085
    --------------------------------------------
      LOOP:  cpu time     31.1194: real time     31.3563

 eigenvalue-minimisations  : 32992
 total energy-change (2. order) : 0.5189110E+00  (-0.5783093E-01)
 number of electron      40.0000003 magnetization       4.6096857
 augmentation part       -7.4317419 magnetization       4.8126208

 Broyden mixing:
  rms(total) = 0.40125E+00    rms(broyden)= 0.40125E+00
  rms(prec ) = 0.40809E+00
  weight for this iteration     100.00

 eigenvalues of (default mixing * dielectric matrix)
  average eigenvalue GAMMA=   1.4391
  0.8561  2.0222

 Free energy of the ion-electron system (eV)
  ---------------------------------------------------
  alpha Z        PSCENC =        42.02918147
  Ewald energy   TEWEN  =        48.47002043
  -Hartree energ DENC   =     -1391.16358592
  -exchange      EXHF   =         0.00000000
  -V(xc)+E(xc)   XCENC  =       -27.58955590
  PAW double counting   =      1708.17093385    -1595.66886657
  entropy T*S    EENTRO =        -0.00000000
  eigenvalues    EBANDS =      -257.63950964
  atomic energy  EATOM  =      1448.49460871
  Solvation  Ediel_sol  =         0.00000000
  ---------------------------------------------------
  free energy    TOTEN  =       -24.89677358 eV

  energy without entropy =      -24.89677358  energy(sigma->0) =      -24.89677358


--------------------------------------------------------------------------------------------------------




--------------------------------------- Iteration      1(   8)  ---------------------------------------


    POTLOK:  cpu time      0.1976: real time      0.1994
    SETDIJ:  cpu time      1.1303: real time      1.1326
     EDDAV:  cpu time     29.2963: real time     29.5485
       DOS:  cpu time      0.0020: real time      0.0020
    CHARGE:  cpu time      0.3350: real time      0.3369
    MIXING:  cpu time      0.0086: real time      0.0086
    --------------------------------------------
      LOOP:  cpu time     30.9698: real time     31.2280

 eigenvalue-minimisations  : 32656
 total energy-change (2. order) :-0.1568573E+01  (-0.2126333E-01)
 number of electron      40.0000003 magnetization       3.8656136
 augmentation part       -7.3980654 magnetization       4.0528006

 Broyden mixing:
  rms(total) = 0.24372E+00    rms(broyden)= 0.24372E+00
  rms(prec ) = 0.24637E+00
  weight for this iteration     100.00

 eigenvalues of (default mixing * dielectric matrix)
  average eigenvalue GAMMA=   1.4422
  2.5831  1.0526  0.6908

 Free energy of the ion-electron system (eV)
  ---------------------------------------------------
  alpha Z        PSCENC =        42.02918147
  Ewald energy   TEWEN  =        48.47002043
  -Hartree energ DENC   =     -1401.90316557
  -exchange      EXHF   =         0.00000000
  -V(xc)+E(xc)   XCENC  =       -28.25904051
  PAW double counting   =      1959.24558964    -1846.87549776
  entropy T*S    EENTRO =        -0.00000000
  eigenvalues    EBANDS =      -247.66704296
  atomic energy  EATOM  =      1448.49460871
  Solvation  Ediel_sol  =         0.00000000
  ---------------------------------------------------
  free energy    TOTEN  =       -26.46534655 eV

  energy without entropy =      -26.46534655  energy(sigma->0) =      -26.46534655


--------------------------------------------------------------------------------------------------------




--------------------------------------- Iteration      1(   9)  ---------------------------------------


    POTLOK:  cpu time      0.1943: real time      0.1952
    SETDIJ:  cpu time      1.1295: real time      1.1319
     EDDAV:  cpu time     29.4309: real time     29.6821
       DOS:  cpu time      0.0020: real time      0.0020
    CHARGE:  cpu time      0.3331: real time      0.3353
    MIXING:  cpu time      0.0085: real time      0.0086
    --------------------------------------------
      LOOP:  cpu time     31.0983: real time     31.3550

 eigenvalue-minimisations  : 33024
 total energy-change (2. order) :-0.1488491E+01  (-0.1523206E-01)
 number of electron      40.0000003 magnetization       2.6529267
 augmentation part       -7.3795822 magnetization       2.8041522

 Broyden mixing:
  rms(total) = 0.19952E+00    rms(broyden)= 0.19952E+00
  rms(prec ) = 0.20119E+00
  weight for this iteration     100.00

 eigenvalues of (default mixing * dielectric matrix)
  average eigenvalue GAMMA=   1.4366
  2.6041  1.6002  0.8849  0.6571

 Free energy of the ion-electron system (eV)
  ---------------------------------------------------
  alpha Z        PSCENC =        42.02918147
  Ewald energy   TEWEN  =        48.47002043
  -Hartree energ DENC   =     -1404.89284433
  -exchange      EXHF   =         0.00000000
  -V(xc)+E(xc)   XCENC  =       -29.13819737
  PAW double counting   =      1985.44310258    -1873.11632863
  entropy T*S    EENTRO =        -0.00000000
  eigenvalues    EBANDS =      -245.24338069
  atomic energy  EATOM  =      1448.49460871
  Solvation  Ediel_sol  =         0.00000000
  ---------------------------------------------------
  free energy    TOTEN  =       -27.95383784 eV

  energy without entropy =      -27.95383784  energy(sigma->0) =      -27.95383784


--------------------------------------------------------------------------------------------------------




--------------------------------------- Iteration      1(  10)  ---------------------------------------


    POTLOK:  cpu time      0.1938: real time      0.2184
    SETDIJ:  cpu time      1.1280: real time      1.1302
     EDDAV:  cpu time     27.9765: real time     28.2147
       DOS:  cpu time      0.0020: real time      0.0020
    CHARGE:  cpu time      0.3352: real time      0.3370
    MIXING:  cpu time      0.0088: real time      0.0088
    --------------------------------------------
      LOOP:  cpu time     29.6443: real time     29.9112

 eigenvalue-minimisations  : 31088
 total energy-change (2. order) :-0.2333352E+01  (-0.4184051E-01)
 number of electron      40.0000003 magnetization       0.9454056
 augmentation part       -7.3607310 magnetization       1.0383327

 Broyden mixing:
  rms(total) = 0.13954E+00    rms(broyden)= 0.13954E+00
  rms(prec ) = 0.14053E+00
  weight for this iteration     100.00

 eigenvalues of (default mixing * dielectric matrix)
  average eigenvalue GAMMA=   1.8517
  4.1485  2.6222  1.0594  0.7999  0.6284

 Free energy of the ion-electron system (eV)
  ---------------------------------------------------
  alpha Z        PSCENC =        42.02918147
  Ewald energy   TEWEN  =        48.47002043
  -Hartree energ DENC   =     -1407.43162269
  -exchange      EXHF   =         0.00000000
  -V(xc)+E(xc)   XCENC  =       -30.57131007
  PAW double counting   =      1955.11156551    -1842.72441323
  entropy T*S    EENTRO =        -0.00000000
  eigenvalues    EBANDS =      -243.66521951
  atomic energy  EATOM  =      1448.49460871
  Solvation  Ediel_sol  =         0.00000000
  ---------------------------------------------------
  free energy    TOTEN  =       -30.28718939 eV

  energy without entropy =      -30.28718939  energy(sigma->0) =      -30.28718939


--------------------------------------------------------------------------------------------------------




--------------------------------------- Iteration      1(  11)  ---------------------------------------


    POTLOK:  cpu time      0.1928: real time      0.1937
    SETDIJ:  cpu time      1.1271: real time      1.1294
     EDDAV:  cpu time     28.5724: real time     28.8156
       DOS:  cpu time      0.0020: real time      0.0020
    CHARGE:  cpu time      0.3321: real time      0.3335
    MIXING:  cpu time      0.0087: real time      0.0088
    --------------------------------------------
      LOOP:  cpu time     30.2350: real time     30.4830

 eigenvalue-minimisations  : 31664
 total energy-change (2. order) :-0.2253895E+01  (-0.4255839E-01)
 number of electron      40.0000003 magnetization       0.4447217
 augmentation part       -7.3417057 magnetization       0.4801833

 Broyden mixing:
  rms(total) = 0.63963E-01    rms(broyden)= 0.63963E-01
  rms(prec ) = 0.67787E-01
  weight for this iteration     100.00

 eigenvalues of (default mixing * dielectric matrix)
  average eigenvalue GAMMA=   2.0841
  6.2502  2.6136  1.2950  0.9552  0.7665  0.6239

 Free energy of the ion-electron system (eV)
  ---------------------------------------------------
  alpha Z        PSCENC =        42.02918147
  Ewald energy   TEWEN  =        48.47002043
  -Hartree energ DENC   =     -1409.82233183
  -exchange      EXHF   =         0.00000000
  -V(xc)+E(xc)   XCENC  =       -31.98047193
  PAW double counting   =      1916.58609070    -1804.15064666
  entropy T*S    EENTRO =        -0.00000000
  eigenvalues    EBANDS =      -242.16753564
  atomic energy  EATOM  =      1448.49460871
  Solvation  Ediel_sol  =         0.00000000
  ---------------------------------------------------
  free energy    TOTEN  =       -32.54108476 eV

  energy without entropy =      -32.54108476  energy(sigma->0) =      -32.54108476


--------------------------------------------------------------------------------------------------------




--------------------------------------- Iteration      1(  12)  ---------------------------------------


    POTLOK:  cpu time      0.1926: real time      0.1939
    SETDIJ:  cpu time      1.1236: real time      1.1261
     EDDAV:  cpu time     29.2291: real time     29.4832
       DOS:  cpu time      0.0020: real time      0.0020
    CHARGE:  cpu time      0.3338: real time      0.3355
    MIXING:  cpu time      0.0092: real time      0.0092
    --------------------------------------------
      LOOP:  cpu time     30.8904: real time     31.1500

 eigenvalue-minimisations  : 32688
 total energy-change (2. order) :-0.4869515E+00  (-0.7535563E-02)
 number of electron      40.0000003 magnetization       0.2054567
 augmentation part       -7.3355324 magnetization       0.2210672

 Broyden mixing:
  rms(total) = 0.37278E-01    rms(broyden)= 0.37277E-01
  rms(prec ) = 0.43453E-01
  weight for this iteration     100.00

 eigenvalues of (default mixing * dielectric matrix)
  average eigenvalue GAMMA=   2.1578
  7.6478  2.6719  1.5734  1.0638  0.8101  0.7189  0.6184

 Free energy of the ion-electron system (eV)
  ---------------------------------------------------
  alpha Z        PSCENC =        42.02918147
  Ewald energy   TEWEN  =        48.47002043
  -Hartree energ DENC   =     -1408.77815373
  -exchange      EXHF   =         0.00000000
  -V(xc)+E(xc)   XCENC  =       -32.31951095
  PAW double counting   =      1907.63777638    -1795.19926579
  entropy T*S    EENTRO =        -0.00000000
  eigenvalues    EBANDS =      -243.36269278
  atomic energy  EATOM  =      1448.49460871
  Solvation  Ediel_sol  =         0.00000000
  ---------------------------------------------------
  free energy    TOTEN  =       -33.02803627 eV

  energy without entropy =      -33.02803627  energy(sigma->0) =      -33.02803627


--------------------------------------------------------------------------------------------------------




--------------------------------------- Iteration      1(  13)  ---------------------------------------


    POTLOK:  cpu time      0.1923: real time      0.1934
    SETDIJ:  cpu time      1.1223: real time      1.1247
     EDDAV:  cpu time     28.4644: real time     28.7027
       DOS:  cpu time      0.0020: real time      0.0020
    CHARGE:  cpu time      0.3357: real time      0.3372
    MIXING:  cpu time      0.0092: real time      0.0093
    --------------------------------------------
      LOOP:  cpu time     30.1259: real time     30.3692

 eigenvalue-minimisations  : 31680
 total energy-change (2. order) :-0.2346857E+00  (-0.2298112E-02)
 number of electron      40.0000003 magnetization       0.1001569
 augmentation part       -7.3379228 magnetization       0.1070314

 Broyden mixing:
  rms(total) = 0.21044E-01    rms(broyden)= 0.21044E-01
  rms(prec ) = 0.27354E-01
  weight for this iteration     100.00

 eigenvalues of (default mixing * dielectric matrix)
  average eigenvalue GAMMA=   2.1712
  8.5342  2.6964  1.9999  1.1961  0.9188  0.7687  0.6278  0.6278

 Free energy of the ion-electron system (eV)
  ---------------------------------------------------
  alpha Z        PSCENC =        42.02918147
  Ewald energy   TEWEN  =        48.47002043
  -Hartree energ DENC   =     -1406.69037498
  -exchange      EXHF   =         0.00000000
  -V(xc)+E(xc)   XCENC  =       -32.57934768
  PAW double counting   =      1902.55922762    -1790.11945266
  entropy T*S    EENTRO =        -0.00000000
  eigenvalues    EBANDS =      -245.42658483
  atomic energy  EATOM  =      1448.49460871
  Solvation  Ediel_sol  =         0.00000000
  ---------------------------------------------------
  free energy    TOTEN  =       -33.26272193 eV

  energy without entropy =      -33.26272193  energy(sigma->0) =      -33.26272193


--------------------------------------------------------------------------------------------------------




--------------------------------------- Iteration      1(  14)  ---------------------------------------


    POTLOK:  cpu time      0.1921: real time      0.1942
    SETDIJ:  cpu time      1.1219: real time      1.1242
     EDDAV:  cpu time     27.7917: real time     28.0105
       DOS:  cpu time      0.0020: real time      0.0020
    CHARGE:  cpu time      0.3309: real time      0.3383
    MIXING:  cpu time      0.0094: real time      0.0094
    --------------------------------------------
      LOOP:  cpu time     29.4480: real time     29.6785

 eigenvalue-minimisations  : 30688
 total energy-change (2. order) :-0.2140504E+00  (-0.3225495E-03)
 number of electron      40.0000003 magnetization       0.0574305
 augmentation part       -7.3401629 magnetization       0.0609095

 Broyden mixing:
  rms(total) = 0.11768E-01    rms(broyden)= 0.11768E-01
  rms(prec ) = 0.18479E-01
  weight for this iteration     100.00

 eigenvalues of (default mixing * dielectric matrix)
  average eigenvalue GAMMA=   2.1662
  8.8249  2.7117  2.7117  1.3789  1.0341  0.8120  0.7468  0.6379  0.6379

 Free energy of the ion-electron system (eV)
  ---------------------------------------------------
  alpha Z        PSCENC =        42.02918147
  Ewald energy   TEWEN  =        48.47002043
  -Hartree energ DENC   =     -1404.98139371
  -exchange      EXHF   =         0.00000000
  -V(xc)+E(xc)   XCENC  =       -32.82415068
  PAW double counting   =      1906.75789768    -1794.32241017
  entropy T*S    EENTRO =        -0.00000000
  eigenvalues    EBANDS =      -247.10052608
  atomic energy  EATOM  =      1448.49460871
  Solvation  Ediel_sol  =         0.00000000
  ---------------------------------------------------
  free energy    TOTEN  =       -33.47677235 eV

  energy without entropy =      -33.47677235  energy(sigma->0) =      -33.47677235


--------------------------------------------------------------------------------------------------------




--------------------------------------- Iteration      1(  15)  ---------------------------------------


    POTLOK:  cpu time      0.1845: real time      0.1859
    SETDIJ:  cpu time      1.1209: real time      1.1231
     EDDAV:  cpu time     29.1119: real time     29.3543
       DOS:  cpu time      0.0020: real time      0.0020
    CHARGE:  cpu time      0.3350: real time      0.3368
    MIXING:  cpu time      0.0094: real time      0.0094
    --------------------------------------------
      LOOP:  cpu time     30.7637: real time     31.0115

 eigenvalue-minimisations  : 32560
 total energy-change (2. order) :-0.3170723E-01  (-0.1625272E-03)
 number of electron      40.0000003 magnetization       0.0323921
 augmentation part       -7.3423828 magnetization       0.0341325

 Broyden mixing:
  rms(total) = 0.70910E-02    rms(broyden)= 0.70910E-02
  rms(prec ) = 0.12402E-01
  weight for this iteration     100.00

 eigenvalues of (default mixing * dielectric matrix)
  average eigenvalue GAMMA=   2.1112
  8.8854  2.9333  2.9333  1.4880  1.1083  0.9678  0.7970  0.7487  0.6253  0.6253

 Free energy of the ion-electron system (eV)
  ---------------------------------------------------
  alpha Z        PSCENC =        42.02918147
  Ewald energy   TEWEN  =        48.47002043
  -Hartree energ DENC   =     -1403.16937140
  -exchange      EXHF   =         0.00000000
  -V(xc)+E(xc)   XCENC  =       -32.90031930
  PAW double counting   =      1911.08591244    -1798.65504550
  entropy T*S    EENTRO =        -0.00000000
  eigenvalues    EBANDS =      -248.86346642
  atomic energy  EATOM  =      1448.49460871
  Solvation  Ediel_sol  =         0.00000000
  ---------------------------------------------------
  free energy    TOTEN  =       -33.50847958 eV

  energy without entropy =      -33.50847958  energy(sigma->0) =      -33.50847958


--------------------------------------------------------------------------------------------------------




--------------------------------------- Iteration      1(  16)  ---------------------------------------


    POTLOK:  cpu time      0.1847: real time      0.2125
    SETDIJ:  cpu time      1.1170: real time      1.1196
     EDDAV:  cpu time     28.8276: real time     29.0792
       DOS:  cpu time      0.0020: real time      0.0020
    CHARGE:  cpu time      0.3374: real time      0.3394
    MIXING:  cpu time      0.0094: real time      0.0095
    --------------------------------------------
      LOOP:  cpu time     30.4780: real time     30.7622

 eigenvalue-minimisations  : 32016
 total energy-change (2. order) :-0.6048329E-02  (-0.6983912E-04)
 number of electron      40.0000003 magnetization       0.0130235
 augmentation part       -7.3445405 magnetization       0.0136231

 Broyden mixing:
  rms(total) = 0.49042E-02    rms(broyden)= 0.49042E-02
  rms(prec ) = 0.80542E-02
  weight for this iteration     100.00

 eigenvalues of (default mixing * dielectric matrix)
  average eigenvalue GAMMA=   2.1471
  8.9423  3.5867  2.8955  2.1451  1.3628  1.0692  0.8976  0.7809  0.6903  0.6240
  0.6240

 Free energy of the ion-electron system (eV)
  ---------------------------------------------------
  alpha Z        PSCENC =        42.02918147
  Ewald energy   TEWEN  =        48.47002043
  -Hartree energ DENC   =     -1401.51492316
  -exchange      EXHF   =         0.00000000
  -V(xc)+E(xc)   XCENC  =       -32.94723678
  PAW double counting   =      1911.40292991    -1798.97321022
  entropy T*S    EENTRO =        -0.00000000
  eigenvalues    EBANDS =      -250.47589826
  atomic energy  EATOM  =      1448.49460871
  Solvation  Ediel_sol  =         0.00000000
  ---------------------------------------------------
  free energy    TOTEN  =       -33.51452791 eV

  energy without entropy =      -33.51452791  energy(sigma->0) =      -33.51452791


--------------------------------------------------------------------------------------------------------




--------------------------------------- Iteration      1(  17)  ---------------------------------------


    POTLOK:  cpu time      0.1846: real time      0.1857
    SETDIJ:  cpu time      1.1189: real time      1.1213
     EDDAV:  cpu time     28.5779: real time     28.8132
       DOS:  cpu time      0.0020: real time      0.0020
    CHARGE:  cpu time      0.3303: real time      0.3320
    MIXING:  cpu time      0.0097: real time      0.0097
    --------------------------------------------
      LOOP:  cpu time     30.2233: real time     30.4640

 eigenvalue-minimisations  : 31840
 total energy-change (2. order) :-0.2151552E-02  (-0.2629127E-04)
 number of electron      40.0000003 magnetization       0.0034357
 augmentation part       -7.3457547 magnetization       0.0037440

 Broyden mixing:
  rms(total) = 0.28495E-02    rms(broyden)= 0.28495E-02
  rms(prec ) = 0.45501E-02
  weight for this iteration     100.00

 eigenvalues of (default mixing * dielectric matrix)
  average eigenvalue GAMMA=   2.1682
  8.9847  4.1185  3.1634  2.4958  1.5062  1.1650  1.0201  0.8500  0.7860  0.6849
  0.6218  0.6218

 Free energy of the ion-electron system (eV)
  ---------------------------------------------------
  alpha Z        PSCENC =        42.02918147
  Ewald energy   TEWEN  =        48.47002043
  -Hartree energ DENC   =     -1400.34165269
  -exchange      EXHF   =         0.00000000
  -V(xc)+E(xc)   XCENC  =       -32.97489821
  PAW double counting   =      1910.64571143    -1798.21601942
  entropy T*S    EENTRO =        -0.00000000
  eigenvalues    EBANDS =      -251.62363117
  atomic energy  EATOM  =      1448.49460871
  Solvation  Ediel_sol  =         0.00000000
  ---------------------------------------------------
  free energy    TOTEN  =       -33.51667946 eV

  energy without entropy =      -33.51667946  energy(sigma->0) =      -33.51667946


--------------------------------------------------------------------------------------------------------




--------------------------------------- Iteration      1(  18)  ---------------------------------------


    POTLOK:  cpu time      0.1882: real time      0.1898
    SETDIJ:  cpu time      1.1171: real time      1.1193
     EDDAV:  cpu time     28.7268: real time     28.9550
       DOS:  cpu time      0.0020: real time      0.0020
    CHARGE:  cpu time      0.3289: real time      0.3308
    MIXING:  cpu time      0.0100: real time      0.0101
    --------------------------------------------
      LOOP:  cpu time     30.3730: real time     30.6070

 eigenvalue-minimisations  : 32016
 total energy-change (2. order) :-0.1457355E-02  (-0.1536600E-04)
 number of electron      40.0000003 magnetization       0.0007473
 augmentation part       -7.3461645 magnetization       0.0009620

 Broyden mixing:
  rms(total) = 0.16903E-02    rms(broyden)= 0.16903E-02
  rms(prec ) = 0.22263E-02
  weight for this iteration     100.00

 eigenvalues of (default mixing * dielectric matrix)
  average eigenvalue GAMMA=   2.1947
  9.0216  4.9632  3.3216  2.6575  1.7674  1.3268  1.0520  0.9436  0.7801  0.7801
  0.6743  0.6213  0.6213

 Free energy of the ion-electron system (eV)
  ---------------------------------------------------
  alpha Z        PSCENC =        42.02918147
  Ewald energy   TEWEN  =        48.47002043
  -Hartree energ DENC   =     -1399.62452082
  -exchange      EXHF   =         0.00000000
  -V(xc)+E(xc)   XCENC  =       -32.98799552
  PAW double counting   =      1910.67506871    -1798.24630803
  entropy T*S    EENTRO =        -0.00000000
  eigenvalues    EBANDS =      -252.32819175
  atomic energy  EATOM  =      1448.49460871
  Solvation  Ediel_sol  =         0.00000000
  ---------------------------------------------------
  free energy    TOTEN  =       -33.51813681 eV

  energy without entropy =      -33.51813681  energy(sigma->0) =      -33.51813681


--------------------------------------------------------------------------------------------------------




--------------------------------------- Iteration      1(  19)  ---------------------------------------


    POTLOK:  cpu time      0.1857: real time      0.1868
    SETDIJ:  cpu time      1.1177: real time      1.1199
     EDDAV:  cpu time     29.3328: real time     29.5915
       DOS:  cpu time      0.0020: real time      0.0020
    CHARGE:  cpu time      0.3316: real time      0.3336
    MIXING:  cpu time      0.0097: real time      0.0098
    --------------------------------------------
      LOOP:  cpu time     30.9795: real time     31.2435

 eigenvalue-minimisations  : 33008
 total energy-change (2. order) :-0.7280897E-03  (-0.6199364E-05)
 number of electron      40.0000003 magnetization       0.0000402
 augmentation part       -7.3464765 magnetization       0.0001118

 Broyden mixing:
  rms(total) = 0.90429E-03    rms(broyden)= 0.90429E-03
  rms(prec ) = 0.10909E-02
  weight for this iteration     100.00

 eigenvalues of (default mixing * dielectric matrix)
  average eigenvalue GAMMA=   2.2405
  9.0436  6.0918  3.3958  2.7347  2.1397  1.4616  1.1553  1.0139  0.9104  0.7937
  0.7284  0.6588  0.6201  0.6201

 Free energy of the ion-electron system (eV)
  ---------------------------------------------------
  alpha Z        PSCENC =        42.02918147
  Ewald energy   TEWEN  =        48.47002043
  -Hartree energ DENC   =     -1399.30141224
  -exchange      EXHF   =         0.00000000
  -V(xc)+E(xc)   XCENC  =       -32.99436338
  PAW double counting   =      1910.53378073    -1798.10545934
  entropy T*S    EENTRO =        -0.00000000
  eigenvalues    EBANDS =      -252.64522127
  atomic energy  EATOM  =      1448.49460871
  Solvation  Ediel_sol  =         0.00000000
  ---------------------------------------------------
  free energy    TOTEN  =       -33.51886490 eV

  energy without entropy =      -33.51886490  energy(sigma->0) =      -33.51886490


--------------------------------------------------------------------------------------------------------




--------------------------------------- Iteration      1(  20)  ---------------------------------------


    POTLOK:  cpu time      0.1874: real time      0.2113
    SETDIJ:  cpu time      1.1181: real time      1.1204
     EDDAV:  cpu time     29.2578: real time     29.5021
       DOS:  cpu time      0.0020: real time      0.0020
    CHARGE:  cpu time      0.3287: real time      0.3301
    MIXING:  cpu time      0.0101: real time      0.0102
    --------------------------------------------
      LOOP:  cpu time     30.9042: real time     31.1762

 eigenvalue-minimisations  : 32672
 total energy-change (2. order) :-0.3580819E-03  (-0.2722068E-05)
 number of electron      40.0000003 magnetization       0.0000533
 augmentation part       -7.3466163 magnetization       0.0000611

 Broyden mixing:
  rms(total) = 0.39452E-03    rms(broyden)= 0.39452E-03
  rms(prec ) = 0.44744E-03
  weight for this iteration     100.00

 eigenvalues of (default mixing * dielectric matrix)
  average eigenvalue GAMMA=   2.2578
  9.0450  7.1891  3.4177  2.7400  2.4780  1.5240  1.2520  1.0072  1.0072  0.8156
  0.7974  0.7156  0.6443  0.6172  0.6172

 Free energy of the ion-electron system (eV)
  ---------------------------------------------------
  alpha Z        PSCENC =        42.02918147
  Ewald energy   TEWEN  =        48.47002043
  -Hartree energ DENC   =     -1399.18073990
  -exchange      EXHF   =         0.00000000
  -V(xc)+E(xc)   XCENC  =       -32.99601426
  PAW double counting   =      1910.74276965    -1798.31484235
  entropy T*S    EENTRO =        -0.00000000
  eigenvalues    EBANDS =      -252.76420673
  atomic energy  EATOM  =      1448.49460871
  Solvation  Ediel_sol  =         0.00000000
  ---------------------------------------------------
  free energy    TOTEN  =       -33.51922298 eV

  energy without entropy =      -33.51922298  energy(sigma->0) =      -33.51922298


--------------------------------------------------------------------------------------------------------




--------------------------------------- Iteration      1(  21)  ---------------------------------------


    POTLOK:  cpu time      0.1886: real time      0.1899
    SETDIJ:  cpu time      1.1153: real time      1.1177
     EDDAV:  cpu time     29.2735: real time     29.5216
       DOS:  cpu time      0.0020: real time      0.0020
    CHARGE:  cpu time      0.3320: real time      0.3340
    MIXING:  cpu time      0.0103: real time      0.0103
    --------------------------------------------
      LOOP:  cpu time     30.9217: real time     31.1755

 eigenvalue-minimisations  : 32832
 total energy-change (2. order) :-0.1725182E-03  (-0.9651777E-06)
 number of electron      40.0000003 magnetization      -0.0000059
 augmentation part       -7.3466325 magnetization      -0.0000083

 Broyden mixing:
  rms(total) = 0.18251E-03    rms(broyden)= 0.18251E-03
  rms(prec ) = 0.20597E-03
  weight for this iteration     100.00

 eigenvalues of (default mixing * dielectric matrix)
  average eigenvalue GAMMA=   2.2433
  9.0556  7.6906  3.3618  2.8902  2.6233  1.6216  1.4036  1.1644  0.9619  0.9619
  0.8162  0.7699  0.7018  0.6386  0.6161  0.6161

 Free energy of the ion-electron system (eV)
  ---------------------------------------------------
  alpha Z        PSCENC =        42.02918147
  Ewald energy   TEWEN  =        48.47002043
  -Hartree energ DENC   =     -1399.15192996
  -exchange      EXHF   =         0.00000000
  -V(xc)+E(xc)   XCENC  =       -32.99628095
  PAW double counting   =      1910.83982387    -1798.41200824
  entropy T*S    EENTRO =        -0.00000000
  eigenvalues    EBANDS =      -252.79281083
  atomic energy  EATOM  =      1448.49460871
  Solvation  Ediel_sol  =         0.00000000
  ---------------------------------------------------
  free energy    TOTEN  =       -33.51939550 eV

  energy without entropy =      -33.51939550  energy(sigma->0) =      -33.51939550


--------------------------------------------------------------------------------------------------------




--------------------------------------- Iteration      1(  22)  ---------------------------------------


    POTLOK:  cpu time      0.1876: real time      0.1887
    SETDIJ:  cpu time      1.1083: real time      1.1180
     EDDAV:  cpu time     29.3671: real time     29.6036
       DOS:  cpu time      0.0020: real time      0.0020
    CHARGE:  cpu time      0.3286: real time      0.3305
    MIXING:  cpu time      0.0105: real time      0.0105
    --------------------------------------------
      LOOP:  cpu time     31.0041: real time     31.2531

 eigenvalue-minimisations  : 32768
 total energy-change (2. order) :-0.9979736E-04  (-0.4522062E-06)
 number of electron      40.0000003 magnetization      -0.0000249
 augmentation part       -7.3466583 magnetization      -0.0000235

 Broyden mixing:
  rms(total) = 0.82770E-04    rms(broyden)= 0.82770E-04
  rms(prec ) = 0.88630E-04
  weight for this iteration     100.00

 eigenvalues of (default mixing * dielectric matrix)
  average eigenvalue GAMMA=   2.2227
  9.0724  7.8667  3.2718  3.2718  2.5817  1.9569  1.5035  1.2677  1.0092  1.0092
  0.8741  0.7792  0.7667  0.6949  0.6150  0.6150  0.6306

 Free energy of the ion-electron system (eV)
  ---------------------------------------------------
  alpha Z        PSCENC =        42.02918147
  Ewald energy   TEWEN  =        48.47002043
  -Hartree energ DENC   =     -1399.12807962
  -exchange      EXHF   =         0.00000000
  -V(xc)+E(xc)   XCENC  =       -32.99679023
  PAW double counting   =      1910.79334601    -1798.36548783
  entropy T*S    EENTRO =        -0.00000000
  eigenvalues    EBANDS =      -252.81629423
  atomic energy  EATOM  =      1448.49460871
  Solvation  Ediel_sol  =         0.00000000
  ---------------------------------------------------
  free energy    TOTEN  =       -33.51949530 eV

  energy without entropy =      -33.51949530  energy(sigma->0) =      -33.51949530


--------------------------------------------------------------------------------------------------------




[...]
     50       9.0634      0.00000
     51       9.0635      0.00000
     52       9.0635      0.00000
     53       9.3923      0.00000
     54       9.3923      0.00000
     55       9.3924      0.00000
     56       9.3924      0.00000
     57      10.3641      0.00000
     58      10.3641      0.00000
     59      10.3645      0.00000
     60      10.3645      0.00000
     61      11.1206      0.00000
     62      11.1206      0.00000
     63      11.1207      0.00000
     64      11.1207      0.00000
     65      12.6017      0.00000
     66      12.6017      0.00000
     67      12.6018      0.00000
     68      12.6018      0.00000
     69      13.0253      0.00000
     70      13.0253      0.00000
     71      13.0254      0.00000
     72      13.0254      0.00000
     73      13.4274      0.00000
     74      13.4275      0.00000
     75      13.4275      0.00000
     76      13.4275      0.00000
     77      13.6694      0.00000
     78      13.6694      0.00000
     79      13.6694      0.00000
     80      13.6694      0.00000
     81      15.3602      0.00000
     82      15.3602      0.00000
     83      15.3603      0.00000
     84      15.3603      0.00000
     85      15.8029      0.00000
     86      15.8029      0.00000
     87      15.8029      0.00000
     88      15.8029      0.00000
     89      16.6149      0.00000
     90      16.6149      0.00000
     91      16.6149      0.00000
     92      16.6149      0.00000
     93      16.9904      0.00000
     94      16.9904      0.00000
     95      16.9906      0.00000
     96      16.9906      0.00000
     97      17.5744      0.00000
     98      17.5744      0.00000
     99      17.5744      0.00000
    100      17.5745      0.00000
    101      17.9554      0.00000
    102      17.9554      0.00000
    103      17.9555      0.00000
    104      17.9555      0.00000
    105      19.5407      0.00000
    106      19.5407      0.00000
    107      19.5407      0.00000
    108      19.5407      0.00000
    109      19.9787      0.00000
    110      19.9787      0.00000
    111      19.9790      0.00000
    112      19.9790      0.00000
    113      20.8363      0.00000
    114      20.8363      0.00000
    115      20.8365      0.00000
    116      20.8365      0.00000
    117      21.2426      0.00000
    118      21.2426      0.00000
    119      21.2430      0.00000
    120      21.2430      0.00000
    121      21.8588      0.00000
    122      21.8588      0.00000
    123      21.8588      0.00000
    124      21.8588      0.00000
    125      22.2933      0.00000
    126      22.2933      0.00000
    127      22.2934      0.00000
    128      22.2934      0.00000
    129      22.7559      0.00000
    130      22.7559      0.00000
    131      22.7559      0.00000
    132      22.7559      0.00000
    133      23.1312      0.00000
    134      23.1312      0.00000
    135      23.1314      0.00000
    136      23.1314      0.00000
    137      23.9703      0.00000
    138      23.9703      0.00000
    139      23.9704      0.00000
    140      23.9704      0.00000
    141      24.3566      0.00000
    142      24.3566      0.00000
    143      24.3567      0.00000
    144      24.3567      0.00000
    145      25.0560      0.00000
    146      25.0560      0.00000
    147      25.0560      0.00000
    148      25.0560      0.00000
    149      25.3724      0.00000
    150      25.3724      0.00000
    151      25.3725      0.00000
    152      25.3725      0.00000
    153      25.9225      0.00000
    154      25.9225      0.00000
    155      25.9226      0.00000
    156      25.9226      0.00000
    157      26.0414      0.00000
    158      26.0414      0.00000
    159      26.0417      0.00000
    160      26.0417      0.00000
    161      26.5671      0.00000
    162      26.5671      0.00000
    163      26.5671      0.00000
    164      26.5671      0.00000
    165      27.0170      0.00000
    166      27.0170      0.00000
    167      27.0170      0.00000
    168      27.0170      0.00000
    169      27.1787      0.00000
    170      27.1787      0.00000
    171      27.1788      0.00000
    172      27.1788      0.00000
    173      27.6611      0.00000
    174      27.6611      0.00000
    175      27.6613      0.00000
    176      27.6613      0.00000
    177      28.1642      0.00000
    178      28.1642      0.00000
    179      28.1643      0.00000
    180      28.1643      0.00000
    181      28.3153      0.00000
    182      28.3153      0.00000
    183      28.3153      0.00000
    184      28.3153      0.00000
    185      29.1945      0.00000
    186      29.1945      0.00000
    187      29.1948      0.00000
    188      29.1948      0.00000
    189      29.8498      0.00000
    190      29.8498      0.00000
    191      29.8498      0.00000
    192      29.8498      0.00000
    193      30.0728      0.00000
    194      30.0728      0.00000
    195      30.0729      0.00000
    196      30.0729      0.00000
    197      30.3518      0.00000
    198      30.3518      0.00000
    199      30.3519      0.00000
    200      30.3519      0.00000
    201      30.7023      0.00000
    202      30.7023      0.00000
    203      30.7026      0.00000
    204      30.7026      0.00000
    205      31.2056      0.00000
    206      31.2056      0.00000
    207      31.2057      0.00000
    208      31.2057      0.00000
    209      31.7355      0.00000
    210      31.7355      0.00000
    211      31.7355      0.00000
    212      31.7355      0.00000
    213      32.3788      0.00000
    214      32.3788      0.00000
    215      32.3789      0.00000
    216      32.3789      0.00000
    217      33.0045      0.00000
    218      33.0045      0.00000
    219      33.0049      0.00000
    220      33.0049      0.00000
    221      33.4401      0.00000
    222      33.4401      0.00000
    223      33.4401      0.00000
    224      33.4401      0.00000


--------------------------------------------------------------------------------------------------------


 soft charge-density along one line, spin component            1
         0         1         2         3         4         5         6         7         8         9
 total charge-density along one line
 
 soft charge-density along one line, spin component            2
         0         1         2         3         4         5         6         7         8         9
 total charge-density along one line
 
 pseudopotential strength for first ion, spin component:            1
 15.744  19.679   0.042   0.053  -0.000   0.076   0.095  -0.000
 19.679  24.615   0.053   0.066  -0.000   0.096   0.119  -0.000
  0.042   0.053   3.429  -0.003  -0.000   5.854  -0.005  -0.000
  0.053   0.066  -0.003   3.426  -0.000  -0.005   5.851  -0.000
 -0.000  -0.000  -0.000  -0.000   3.430  -0.000  -0.000   5.857
  0.076   0.096   5.854  -0.005  -0.000  10.058  -0.009  -0.000
  0.095   0.119  -0.005   5.851  -0.000  -0.009  10.051  -0.000
 -0.000  -0.000  -0.000  -0.000   5.857  -0.000  -0.000  10.062
 -0.000  -0.000  -0.000  -0.000   0.007  -0.000  -0.000   0.013
 -0.007  -0.008   0.013   0.013  -0.000   0.024   0.024  -0.000
 -0.003  -0.004  -0.004   0.013   0.000  -0.007   0.025   0.000
 -0.000  -0.000  -0.000  -0.000   0.013  -0.000  -0.000   0.024
  0.001   0.002  -0.013   0.000  -0.000  -0.023   0.000  -0.000
 pseudopotential strength for first ion, spin component:            2
 15.744  19.679   0.042   0.053  -0.000   0.076   0.095  -0.000
 19.679  24.615   0.053   0.066  -0.000   0.096   0.119  -0.000
  0.042   0.053   3.429  -0.003  -0.000   5.854  -0.005  -0.000
  0.053   0.066  -0.003   3.426  -0.000  -0.005   5.851  -0.000
 -0.000  -0.000  -0.000  -0.000   3.430  -0.000  -0.000   5.857
  0.076   0.096   5.854  -0.005  -0.000  10.058  -0.009  -0.000
  0.095   0.119  -0.005   5.851  -0.000  -0.009  10.051  -0.000
 -0.000  -0.000  -0.000  -0.000   5.857  -0.000  -0.000  10.062
 -0.000  -0.000  -0.000  -0.000   0.007  -0.000  -0.000   0.013
 -0.007  -0.008   0.013   0.013  -0.000   0.024   0.024  -0.000
 -0.003  -0.004  -0.004   0.013   0.000  -0.007   0.025   0.000
 -0.000  -0.000  -0.000  -0.000   0.013  -0.000  -0.000   0.024
  0.001   0.002  -0.013   0.000  -0.000  -0.023   0.000  -0.000
 total augmentation occupancy for first ion, spin component:            1
  2.687  -0.651   0.352   0.400   0.000  -0.066  -0.073   0.000  -0.000  -0.009  -0.014   0.000   0.009
 -0.651   0.614  -0.445  -0.550   0.000   0.071   0.087   0.000  -0.000   0.002   0.017   0.000  -0.005
  0.352  -0.445   1.226   0.076   0.000  -0.198   0.000  -0.000   0.000   0.051  -0.099   0.000   0.001
  0.400  -0.550   0.076   1.275   0.000   0.000  -0.199   0.000  -0.000  -0.016   0.111   0.000  -0.003
  0.000  -0.000   0.000   0.000   1.240   0.000  -0.000  -0.211   0.148  -0.000   0.000   0.045   0.000
 -0.066   0.071  -0.198   0.000   0.000   0.036  -0.002   0.000  -0.000  -0.009   0.017  -0.000   0.000
 -0.073   0.087   0.000  -0.199   0.000  -0.002   0.035   0.000   0.000   0.003  -0.020   0.000   0.001
  0.000   0.000  -0.000   0.000  -0.211  -0.000   0.000   0.040  -0.026   0.000  -0.000  -0.008   0.000
  0.000   0.000   0.000   0.000   0.148   0.000  -0.000  -0.026   0.030   0.000   0.000   0.003   0.000
 -0.009   0.002   0.051  -0.016   0.000  -0.009   0.003  -0.000   0.000   0.010  -0.007   0.000   0.001
 -0.014   0.017  -0.099   0.111   0.000   0.017  -0.020   0.000   0.000  -0.007   0.028  -0.000  -0.002
 -0.000  -0.000   0.000   0.000   0.045  -0.000   0.000  -0.008   0.003  -0.000   0.000   0.009   0.000
  0.009  -0.005   0.001  -0.003  -0.000   0.000   0.001  -0.000   0.000   0.001  -0.002   0.000   0.008
 total augmentation occupancy for first ion, spin component:            2
 -0.000   0.000   0.000   0.000   0.000  -0.000  -0.000   0.000  -0.000   0.000  -0.000   0.000   0.000
  0.000   0.000  -0.000  -0.000   0.000   0.000   0.000   0.000   0.000   0.000  -0.000   0.000  -0.000
  0.000  -0.000   0.000   0.000   0.000  -0.000  -0.000   0.000  -0.000  -0.000   0.000   0.000  -0.000
  0.000  -0.000   0.000   0.000   0.000  -0.000  -0.000  -0.000  -0.000  -0.000   0.000  -0.000  -0.000
  0.000   0.000   0.000   0.000   0.000   0.000  -0.000  -0.000  -0.000   0.000   0.000  -0.000   0.000
 -0.000   0.000  -0.000  -0.000   0.000   0.000   0.000   0.000   0.000  -0.000  -0.000   0.000   0.000
 -0.000   0.000  -0.000  -0.000  -0.000   0.000   0.000   0.000  -0.000   0.000  -0.000   0.000  -0.000
  0.000   0.000   0.000  -0.000  -0.000   0.000   0.000   0.000   0.000  -0.000   0.000  -0.000  -0.000
 -0.000   0.000  -0.000  -0.000  -0.000   0.000  -0.000   0.000  -0.000  -0.000  -0.000  -0.000   0.000
  0.000   0.000  -0.000  -0.000   0.000  -0.000   0.000  -0.000  -0.000   0.000   0.000   0.000  -0.000
 -0.000  -0.000   0.000   0.000   0.000  -0.000  -0.000   0.000  -0.000   0.000  -0.000  -0.000   0.000
  0.000   0.000   0.000  -0.000  -0.000   0.000   0.000  -0.000  -0.000   0.000  -0.000  -0.000   0.000
  0.000  -0.000  -0.000  -0.000   0.000   0.000  -0.000  -0.000   0.000  -0.000   0.000   0.000   0.000


------------------------ aborting loop because EDIFF is reached ----------------------------------------





 total charge

# of ion       s       p       d       tot
------------------------------------------
    1        1.318   0.790   0.051   2.158
    2        1.318   0.790   0.051   2.158
    3        1.318   0.790   0.051   2.158
    4        1.318   0.790   0.051   2.158
    5        1.472   2.313   0.029   3.813
    6        1.472   2.313   0.029   3.813
    7        1.472   2.313   0.029   3.813
    8        1.472   2.313   0.029   3.813
--------------------------------------------------
tot         11.157  12.410   0.319  23.886



 magnetization (x)

# of ion       s       p       d       tot
------------------------------------------
    1        0.000  -0.000   0.000   0.000
    2        0.000  -0.000   0.000   0.000
    3        0.000  -0.000   0.000   0.000
    4        0.000  -0.000   0.000   0.000
    5       -0.000   0.000   0.000   0.000
    6       -0.000   0.000   0.000   0.000
    7       -0.000   0.000   0.000   0.000
    8       -0.000   0.000   0.000   0.000
--------------------------------------------------
tot          0.000   0.000   0.000   0.000
 
    CHARGE:  cpu time      0.3240: real time      0.3252
    FORLOC:  cpu time      0.0074: real time      0.0074
    FORNL :  cpu time      3.3701: real time      3.3906
    STRESS:  cpu time      8.2236: real time      8.3000
    FORCOR:  cpu time      0.1829: real time      0.1835
    FORHAR:  cpu time      0.0226: real time      0.0226
    MIXING:  cpu time      0.0109: real time      0.0109
    OFIELD:  cpu time      0.0000: real time      0.0000

  FORCE on cell =-STRESS in cart. coord.  units (eV):
  Direction    XX          YY          ZZ          XY          YZ          ZX
  --------------------------------------------------------------------------------------
  Alpha Z    42.02918    42.02918    42.02918
  Ewald    1026.08309   969.72420 -1947.33818     0.00000     0.00000    -0.00000
  Hartree  1323.22131  1299.93693 -1224.03372    -0.00000    -0.00000    -0.00000
  E(xc)    -140.51299  -140.54838  -141.78266     0.00000    -0.00000     0.00000
  Local   -2867.80531 -2794.80896  2641.84462    -0.00000    -0.00000    -0.00000
  n-local   240.24375   239.63037   241.75450     0.86172     0.00000     0.00000
  augment   -11.30464   -11.74961   -12.16254     0.00000     0.00000     0.00000
  Kinetic   388.85998   396.48710   398.05110     6.68816    -0.00000    -0.00000
  Fock        0.00000     0.00000     0.00000     0.00000     0.00000     0.00000
  -------------------------------------------------------------------------------------
  Total       0.81437     0.70083    -1.63770     0.00000     0.00000     0.00000
  in kB       3.23635     2.78515    -6.50829     0.00000     0.00000     0.00000
  external pressure =       -0.16 kB  Pullay stress =        0.00 kB


 VOLUME and BASIS-vectors are now :
 -----------------------------------------------------------------------------
  energy-cutoff  :      520.00
  volume of cell :      403.16
      direct lattice vectors                 reciprocal lattice vectors
     3.858100176  0.000000000  0.000000000     0.259194929  0.000000000  0.000000000
     0.000000000  4.526575088  0.000000000     0.000000000  0.220917577  0.000000000
     0.000000000  0.000000000 23.085176468     0.000000000  0.000000000  0.043317841

  length of vectors
     3.858100176  4.526575088 23.085176468     0.259194929  0.220917577  0.043317841


 FORCES acting on ions
    electron-ion (+dipol)            ewald-force                    non-local-force                 convergence-correction
 -----------------------------------------------------------------------------------------------
   0.384E-09 0.159E+02 0.132E+03   0.206E-08 -.186E+02 -.135E+03   -.278E-16 0.254E+01 0.364E+01   0.145E-13 -.109E-04 0.523E-04
   -.408E-08 -.159E+02 -.132E+03   -.206E-08 0.186E+02 0.135E+03   0.278E-16 -.254E+01 -.364E+01   -.989E-14 0.109E-04 -.523E-04
   -.408E-08 0.159E+02 -.132E+03   -.206E-08 -.186E+02 0.135E+03   -.139E-16 0.254E+01 -.364E+01   -.113E-13 -.109E-04 -.523E-04
   0.384E-09 -.159E+02 0.132E+03   0.206E-08 0.186E+02 -.135E+03   0.139E-16 -.254E+01 0.364E+01   0.151E-13 0.109E-04 0.523E-04
   0.417E-09 0.170E+02 -.157E+03   0.238E-08 -.186E+02 0.159E+03   -.416E-16 0.149E+01 -.185E+01   0.388E-13 -.517E-04 -.336E-04
   -.197E-07 -.170E+02 0.157E+03   -.238E-08 0.186E+02 -.159E+03   -.139E-16 -.149E+01 0.185E+01   -.220E-14 0.517E-04 0.336E-04
   -.197E-07 0.170E+02 0.157E+03   -.238E-08 -.186E+02 -.159E+03   0.000E+00 0.149E+01 0.185E+01   -.156E-14 -.517E-04 0.336E-04
   0.417E-09 -.170E+02 -.157E+03   0.238E-08 0.186E+02 0.159E+03   -.278E-16 -.149E+01 -.185E+01   0.374E-13 0.517E-04 -.336E-04
 -----------------------------------------------------------------------------------------------
   -.461E-07 0.795E-04 -.166E-03   0.855E-14 0.355E-14 0.284E-13   -.833E-16 0.000E+00 0.444E-15   0.808E-13 -.790E-10 0.580E-07
 
 
 POSITION                                       TOTAL-FORCE (eV/Angst)
 -----------------------------------------------------------------------------------
      0.96453      0.52346      1.36947         0.000000     -0.082551      0.271919
      2.89358      4.00311     15.71571        -0.000000      0.082551     -0.271919
      2.89358      2.78675      4.17312        -0.000000     -0.082551     -0.271919
      0.96453      1.73983     12.91205        -0.000000      0.082551      0.271919
      0.96453      2.28569     15.45155        -0.000000     -0.082505     -0.023445
      2.89358      2.24089      1.63362        -0.000000      0.082505      0.023445
      2.89358      0.02240     13.17621         0.000000     -0.082505      0.023445
      0.96453      4.50417      3.90897        -0.000000      0.082505     -0.023445
 -----------------------------------------------------------------------------------
    total drift:                               -0.000000      0.000079     -0.000166


--------------------------------------------------------------------------------------------------------



  FREE ENERGIE OF THE ION-ELECTRON SYSTEM (eV)
  ---------------------------------------------------
  free  energy   TOTEN  =       -33.51949874 eV

  energy  without entropy=      -33.51949874  energy(sigma->0) =      -33.51949874
 


--------------------------------------------------------------------------------------------------------


    POTLOK:  cpu time      1.2979: real time      1.3015


--------------------------------------------------------------------------------------------------------


 writing wavefunctions
     LOOP+:  cpu time    749.9690: real time    766.4270
    4ORBIT:  cpu time      0.0000: real time      0.0000



 total charge

# of ion       s       p       d       tot
------------------------------------------
    1        1.318   0.790   0.051   2.158
    2        1.318   0.790   0.051   2.158
    3        1.318   0.790   0.051   2.158
    4        1.318   0.790   0.051   2.158
    5        1.472   2.313   0.029   3.813
    6        1.472   2.313   0.029   3.813
    7        1.472   2.313   0.029   3.813
    8        1.472   2.313   0.029   3.813
--------------------------------------------------
tot         11.157  12.410   0.319  23.886



 magnetization (x)

# of ion       s       p       d       tot
------------------------------------------
    1        0.000  -0.000   0.000   0.000
    2        0.000  -0.000   0.000   0.000
    3        0.000  -0.000   0.000   0.000
    4        0.000  -0.000   0.000   0.000
    5       -0.000   0.000   0.000   0.000
    6       -0.000   0.000   0.000   0.000
    7       -0.000   0.000   0.000   0.000
    8       -0.000   0.000   0.000   0.000
--------------------------------------------------
tot          0.000   0.000   0.000   0.000
 

 total amount of memory used by VASP MPI-rank0   290679. kBytes
=======================================================================

   base      :      30000. kBytes
   nonl-proj :      74135. kBytes
   fftplans  :       4229. kBytes
   grid      :      23917. kBytes
   one-center:        129. kBytes
   wavefun   :     158269. kBytes
 
  
  
 General timing and accounting informations for this job:
 ========================================================
  
                  Total CPU time used (sec):      764.024
                            User time (sec):      749.354
                          System time (sec):       14.670
                         Elapsed time (sec):      781.340
  
                   Maximum memory used (kb):      453084.
                   Average memory used (kb):          N/A
  
                          Minor page faults:       408073
                          Major page faults:           56
                 Voluntary context switches:       159678
