 vasp.6.4.2 20Jul23 (build Oct 12 2023 10:31:02) complex                         
 executed on              LinuxNV date 2024.11.02  00:59:44
 running  128 mpi-ranks, with    1 threads/rank, on    2 nodes
 distrk:  each k-point on   64 cores,    2 groups
 distr:  one band on NCORE=   8 cores,    8 groups


--------------------------------------------------------------------------------------------------------


 INCAR:
   ENCUT = 520.000000
   SIGMA = 0.050000
   EDIFF = 1.00e-06
   ALGO = N
   GGA = PE
   PREC = Accurate
   SYSTEM = 01_AOPT
   ICHARG = 0
   ISMEAR = 0
   ISPIN = 2
   ISTART = 1
   ISYM = -1
   KPAR = 2
   LORBIT = 11
   NBANDS = 220
   NELM = 100
   NELMIN = 5
   NPAR = 8
   LASPH = .TRUE.
   LCHARG = .FALSE.
   LWAVE = .FALSE.
   LREAL = .FALSE.

 POTCAR:    PAW_PBE Ge 05Jan2001                  
 POTCAR:    PAW_PBE Se 06Sep2000                  
 -----------------------------------------------------------------------------
|                                                                             |
|           W    W    AA    RRRRR   N    N  II  N    N   GGGG   !!!           |
|           W    W   A  A   R    R  NN   N  II  NN   N  G    G  !!!           |
|           W    W  A    A  R    R  N N  N  II  N N  N  G       !!!           |
|           W WW W  AAAAAA  RRRRR   N  N N  II  N  N N  G  GGG   !            |
|           WW  WW  A    A  R   R   N   NN  II  N   NN  G    G                |
|           W    W  A    A  R    R  N    N  II  N    N   GGGG   !!!           |
|                                                                             |
|     You use a magnetic or noncollinear calculation, but did not specify     |
|     the initial magnetic moment with the MAGMOM tag. Note that a            |
|     default of 1 will be used for all atoms. This ferromagnetic setup       |
|     may break the symmetry of the crystal, in particular it may rule        |
|     out finding an antiferromagnetic solution. Thence, we recommend         |
|     setting the initial magnetic moment manually or verifying carefully     |
|     that this magnetic setup is desired.                                    |
|                                                                             |
 -----------------------------------------------------------------------------

 POTCAR:    PAW_PBE Ge 05Jan2001                  
   VRHFIN =Ge: s2p2                                                                                 
   LEXCH  = PE                                                                                      
   EATOM  =   104.9960 eV,    7.7170 Ry                                                             
                                                                                                    
   TITEL  = PAW_PBE Ge 05Jan2001                                                                    
   LULTRA =        F    use ultrasoft PP ?                                                          
   IUNSCR =        1    unscreen: 0-lin 1-nonlin 2-no                                               
   RPACOR =    2.170    partial core radius                                                         
   POMASS =   72.610; ZVAL   =    4.000    mass and valenz                                          
   RCORE  =    2.300    outmost cutoff radius                                                       
   RWIGS  =    2.300; RWIGS  =    1.217    wigner-seitz radius (au A)                               
   ENMAX  =  173.807; ENMIN  =  130.355 eV                                                          
   ICORE  =        3    local potential                                                             
   LCOR   =        T    correct aug charges                                                         
   LPAW   =        T    paw PP                                                                      
   EAUG   =  385.843                                                                                
   DEXC   =    0.000                                                                                
   RMAX   =    2.342    core radius for proj-oper                                                   
   RAUG   =    1.300    factor for augmentation sphere                                              
   RDEP   =    2.318    radius for radial grids                                                     
   RDEPT  =    2.103    core radius for aug-charge                                                  
                                                                                                    
   Atomic configuration                                                                             
   10 entries                                                                                       
     n  l   j            E        occ.                                                              
     1  0  0.50    -10959.8463   2.0000                                                             
     2  0  0.50     -1371.6056   2.0000                                                             
     2  1  1.50     -1198.4791   6.0000                                                             
     3  0  0.50      -168.4733   2.0000                                                             
     3  1  1.50      -115.6019   6.0000                                                             
     3  2  2.50       -29.3106  10.0000                                                             
     4  0  0.50       -11.7309   2.0000                                                             
     4  1  0.50        -3.8952   2.0000                                                             
     4  2  1.50        -4.0817   0.0000                                                             
     4  3  2.50        -4.0817   0.0000                                                             
   Description                                                                                      
     l       E           TYP  RCUT    TYP  RCUT                                                     
     0    -11.7309493     23  2.300                                                                 
     0     -7.4578696     23  2.300                                                                 
     1     -3.8952261     23  2.300                                                                 
     1      6.1178114     23  2.300                                                                 
     2     -4.0817478     23  2.300                                                                 
     3     -1.3605826      7  2.300                                                                 
  local pseudopotential read in
  partial core-charges read in
  partial kinetic energy density read in
  atomic valenz-charges read in
  non local Contribution for L=            0  read in
    real space projection operators read in
  non local Contribution for L=            0  read in
    real space projection operators read in
  non local Contribution for L=            1  read in
    real space projection operators read in
  non local Contribution for L=            1  read in
    real space projection operators read in
  non local Contribution for L=            2  read in
    real space projection operators read in
    PAW grid and wavefunctions read in
 
   number of l-projection  operators is LMAX  =            5
   number of lm-projection operators is LMMAX =           13
 
 POTCAR:    PAW_PBE Se 06Sep2000                  
   VRHFIN =Se: s2p4                                                                                 
   LEXCH  = PE                                                                                      
   EATOM  =   257.1286 eV,   18.8984 Ry                                                             
                                                                                                    
   TITEL  = PAW_PBE Se 06Sep2000                                                                    
   LULTRA =        F    use ultrasoft PP ?                                                          
   IUNSCR =        1    unscreen: 0-lin 1-nonlin 2-no                                               
   RPACOR =    1.900    partial core radius                                                         
   POMASS =   78.960; ZVAL   =    6.000    mass and valenz                                          
   RCORE  =    2.100    outmost cutoff radius                                                       
   RWIGS  =    2.200; RWIGS  =    1.164    wigner-seitz radius (au A)                               
   ENMAX  =  211.555; ENMIN  =  158.666 eV                                                          
   ICORE  =        3    local potential                                                             
   LCOR   =        T    correct aug charges                                                         
   LPAW   =        T    paw PP                                                                      
   EAUG   =  446.842                                                                                
   DEXC   =    0.000                                                                                
   RMAX   =    2.147    core radius for proj-oper                                                   
   RAUG   =    1.300    factor for augmentation sphere                                              
   RDEP   =    2.177    radius for radial grids                                                     
   RDEPT  =    1.928    core radius for aug-charge                                                  
                                                                                                    
   Atomic configuration                                                                             
   10 entries                                                                                       
     n  l   j            E        occ.                                                              
     1  0  0.50    -12503.4787   2.0000                                                             
     2  0  0.50     -1606.9547   2.0000                                                             
     2  1  1.50     -1413.3140   6.0000                                                             
     3  0  0.50      -213.4885   2.0000                                                             
     3  1  1.50      -152.9538   6.0000                                                             
     3  2  2.50       -53.1221  10.0000                                                             
     4  0  0.50       -17.2865   2.0000                                                             
     4  1  0.50        -6.5110   4.0000                                                             
     4  2  2.50        -6.8029   0.0000                                                             
     4  3  2.50        -6.8029   0.0000                                                             
   Description                                                                                      
     l       E           TYP  RCUT    TYP  RCUT                                                     
     0    -17.2865377     23  2.100                                                                 
     0    -15.3094411     23  2.100                                                                 
     1     -6.5110275     23  2.100                                                                 
     1     -0.0695192     23  2.100                                                                 
     2     -6.8029130     23  2.100                                                                 
     3     -1.3605826      7  2.100                                                                 
  local pseudopotential read in
  partial core-charges read in
  partial kinetic energy density read in
  atomic valenz-charges read in
  non local Contribution for L=            0  read in
    real space projection operators read in
  non local Contribution for L=            0  read in
    real space projection operators read in
  non local Contribution for L=            1  read in
    real space projection operators read in
  non local Contribution for L=            1  read in
    real space projection operators read in
  non local Contribution for L=            2  read in
    real space projection operators read in
    PAW grid and wavefunctions read in
 
   number of l-projection  operators is LMAX  =            5
   number of lm-projection operators is LMMAX =           13
 
 -----------------------------------------------------------------------------
|                                                                             |
|               ----> ADVICE to this user running VASP <----                  |
|                                                                             |
|     You have a (more or less) 'large supercell' and for larger cells it     |
|     might be more efficient to use real-space projection operators.         |
|     Therefore, try LREAL= Auto in the INCAR file.                           |
|     Mind: For very accurate calculation, you might also keep the            |
|     reciprocal projection scheme (i.e. LREAL=.FALSE.).                      |
|                                                                             |
 -----------------------------------------------------------------------------

  PAW_PBE Ge 05Jan2001                  :
 energy of atom  1       EATOM= -104.9960
 kinetic energy error for atom=    0.0002 (will be added to EATOM!!)
  PAW_PBE Se 06Sep2000                  :
 energy of atom  2       EATOM= -257.1286
 kinetic energy error for atom=    0.0007 (will be added to EATOM!!)
 
 
 POSCAR: Ge Se
  positions in cartesian coordinates
  No initial velocities read in
 exchange correlation table for  LEXCH =        8
   RHO(1)=    0.500       N(1)  =     2000
   RHO(2)=  100.500       N(2)  =     4000
 


--------------------------------------------------------------------------------------------------------


 ion  position               nearest neighbor table
   1  0.050  0.032  0.138-  45 2.53  55 2.59  54 2.81
   2  0.243  0.884  0.381-  48 2.55  67 2.64  45 2.67
   3  0.584  0.197  0.365-  56 2.52  68 2.61  44 2.63
   4  0.576  0.520  0.362-  69 2.64  50 2.66  72 2.70
   5  0.561  0.892  0.384-  44 2.57  70 2.65  48 2.71
   6  0.907  0.221  0.383-  46 2.53  56 2.62  55 2.67
   7  0.891  0.559  0.384-  72 2.54  71 2.60  47 2.64
   8  0.925  0.854  0.362-  53 2.42  45 2.63  47 2.65
   9  0.105  0.176  0.630-  57 2.56  38 2.58  51 2.59
  10  0.041  0.480  0.645-  58 2.42  43 2.57
  11  0.076  0.814  0.625-  39 2.51  52 2.54  59 2.60
  12  0.402  0.155  0.607-  51 2.67  40 2.68  60 2.78
  13  0.430  0.504  0.631-  42 2.53  61 2.57  41 2.77
  14  0.398  0.793  0.622-  39 2.53  42 2.57  62 2.66
  15  0.712  0.140  0.634-  40 2.44  63 2.58  37 2.70
  16  0.740  0.467  0.614-  41 2.54  43 2.63  64 2.73
  17  0.269  0.536  0.386-  50 2.59  66 2.60  49 2.70
  18  0.231  0.207  0.362-  54 2.63  49 2.70  46 2.73
  19  0.770  0.841  0.613-  65 2.58  37 2.59  52 2.68
  20  0.901  0.662  0.885-  52 2.54  64 2.60  58 2.81
  21  0.931  0.005  0.880-  59 2.54  37 2.57  57 2.81
  22  0.072  0.394  0.153-  66 2.53  46 2.53  71 2.55
  23  0.100  0.683  0.120-  47 2.61  66 2.62  67 2.70
  24  0.381  0.053  0.111-  54 2.54  48 2.65
  25  0.418  0.353  0.136-  49 2.55  69 2.74  68 2.76
  26  0.751  0.031  0.115-  44 2.55  55 2.62  53 2.77
  27  0.748  0.377  0.134-  71 2.52  69 2.55  56 2.67
  28  0.405  0.700  0.113-  67 2.50  50 2.64  70 2.82
  29  0.256  0.334  0.872-  38 2.52  60 2.69  61 2.77
  30  0.251  0.645  0.865-  61 2.48  39 2.50  58 2.71
  31  0.239  0.982  0.876-  62 2.55  59 2.61  51 2.66
  32  0.582  0.315  0.881-  41 2.55  60 2.64  63 2.64
  33  0.601  0.667  0.874-  42 2.55  65 2.56  64 2.58
  34  0.557  0.972  0.874-  62 2.56  40 2.65  65 2.80
  35  0.894  0.313  0.890-  43 2.53  57 2.66  63 2.68
  36  0.719  0.714  0.145-  72 2.45  70 2.65  53 2.76
  37  0.884  0.010  0.654-  21 2.57  19 2.59  15 2.70
  38  0.228  0.341  0.647-  29 2.52   9 2.58
  39  0.228  0.684  0.645-  30 2.50  11 2.51  14 2.53
  40  0.562  0.015  0.640-  15 2.44  34 2.65  12 2.68
  41  0.582  0.343  0.653-  16 2.54  32 2.55  13 2.77
  42  0.555  0.662  0.650-  13 2.53  33 2.55  14 2.57
  43  0.897  0.333  0.663-  35 2.53  10 2.57  16 2.63
  44  0.708  0.029  0.340-  26 2.55   5 2.57   3 2.63
  45  0.068  0.008  0.364-   1 2.53   8 2.63   2 2.67
  46  0.064  0.348  0.374-   6 2.53  22 2.53  18 2.73
  47  0.056  0.688  0.350-  23 2.61   7 2.64   8 2.65
  48  0.390  0.021  0.346-   2 2.55  24 2.65   5 2.71
  49  0.388  0.356  0.364-  25 2.55  18 2.70  17 2.70
  50  0.425  0.669  0.347-  17 2.59  28 2.64   4 2.66
  51  0.240  0.019  0.640-   9 2.59  31 2.66  12 2.67
  52  0.917  0.690  0.658-  11 2.54  20 2.54  19 2.68
  53  0.886  0.858  0.148-   8 2.42  36 2.76  26 2.77
  54  0.221  0.177  0.128-  24 2.54  18 2.63   1 2.81
  55  0.900  0.175  0.147-   1 2.59  26 2.62   6 2.67
  56  0.731  0.336  0.370-   3 2.52   6 2.62  27 2.67
  57  0.062  0.186  0.856-   9 2.56  35 2.66  21 2.81
  58  0.073  0.520  0.855-  10 2.42  30 2.71  20 2.81
  59  0.071  0.859  0.854-  21 2.54  11 2.60  31 2.61
  60  0.414  0.188  0.855-  32 2.64  29 2.69  12 2.78
  61  0.394  0.507  0.859-  30 2.48  13 2.57  29 2.77
  62  0.394  0.850  0.853-  31 2.55  34 2.56  14 2.66
  63  0.736  0.170  0.862-  15 2.58  32 2.64  35 2.68
  64  0.748  0.524  0.851-  33 2.58  20 2.60  16 2.73
  65  0.725  0.827  0.840-  33 2.56  19 2.58  34 2.80
  66  0.229  0.521  0.157-  22 2.53  17 2.60  23 2.62
  67  0.256  0.830  0.151-  28 2.50   2 2.64  23 2.70
  68  0.569  0.192  0.131-   3 2.61  25 2.76
  69  0.583  0.497  0.126-  27 2.55   4 2.64  25 2.74
  70  0.563  0.859  0.148-   5 2.65  36 2.65  28 2.82
  71  0.902  0.507  0.157-  27 2.52  22 2.55   7 2.60
  72  0.726  0.676  0.362-  36 2.45   7 2.54   4 2.70
 

IMPORTANT INFORMATION: All symmetrisations will be switched off!
NOSYMM: (Re-)initialisation of all symmetry stuff for point group C_1.


----------------------------------------------------------------------------------------

                                     Primitive cell                                     

  volume of cell :    1729.3635

  direct lattice vectors                    reciprocal lattice vectors
    12.453855857 -0.000005291 -0.000004276     0.080296417  0.000000034  0.000000035
    -0.000005321 12.525645020  0.000001840     0.000000034  0.079836208 -0.000000015
    -0.000004900  0.000002097 11.086190721     0.000000031 -0.000000013  0.090202309

  length of vectors
    12.453855857 12.525645020 11.086190721     0.080296417  0.079836208  0.090202309

  position of ions in fractional coordinates (direct lattice)
     0.049777375  0.031706240  0.137682252
     0.242688795  0.883918507  0.380797426
     0.583561453  0.197322402  0.365055171
     0.576238301  0.519882796  0.362333844
     0.560792268  0.891680225  0.384033996
     0.906534282  0.221431912  0.382609321
     0.890779630  0.559098181  0.383639939
     0.925009655  0.853814578  0.361568689
     0.104902793  0.175915240  0.630275968
     0.041248162  0.479596884  0.644795791
     0.075771912  0.813634566  0.625320109
     0.401525532  0.155251766  0.606798696
     0.430333045  0.503907157  0.630998129
     0.398304567  0.792952163  0.622302799
     0.712400267  0.140339658  0.633576137
     0.740489169  0.466599641  0.613772134
     0.269358486  0.536258067  0.386016143
     0.231444120  0.207286285  0.362397395
     0.770084783  0.841179741  0.613220368
     0.901354111  0.661783932  0.884953390
     0.930940592  0.004698920  0.880025285
     0.071848620  0.393569808  0.152512909
     0.100245434  0.682595452  0.119734152
     0.381013578  0.053084593  0.110613997
     0.417825069  0.352783778  0.136320087
     0.751203568  0.030957523  0.114972521
     0.748255773  0.377063578  0.134208354
     0.405488103  0.700397651  0.112734681
     0.255992933  0.334158782  0.871996924
     0.250715868  0.645079039  0.865192697
     0.238852872  0.981724640  0.876231592
     0.582410641  0.314649015  0.880707294
     0.600557648  0.666862108  0.874365809
     0.557173518  0.972183361  0.874084553
     0.893846515  0.313044505  0.890340047
     0.718688030  0.714040409  0.144719243
     0.883714105  0.010008665  0.654370566
     0.227915435  0.341141291  0.647462388
     0.228498663  0.683888963  0.645326945
     0.562140126  0.015407676  0.640072096
     0.581924213  0.343451351  0.653178555
     0.555489963  0.661947137  0.650206114
     0.897337635  0.333085917  0.663016121
     0.708409240  0.029210771  0.339505717
     0.068334387  0.007562832  0.363606180
     0.064191399  0.348090329  0.374457889
     0.056358215  0.687637018  0.349673691
     0.390261568  0.021368705  0.346484388
     0.387889200  0.356404558  0.364185276
     0.424811341  0.668753916  0.347150173
     0.239978803  0.018561453  0.639791514
     0.916641453  0.690020300  0.658403971
     0.886438376  0.858095997  0.147618973
     0.220951225  0.177435944  0.128299393
     0.900388028  0.175462958  0.147365860
     0.730730151  0.335837525  0.369895117
     0.061949481  0.185722002  0.855886953
     0.073478666  0.519573972  0.855122709
     0.070797335  0.858815933  0.854427347
     0.414290867  0.188448855  0.854745374
     0.393847300  0.507418091  0.859396576
     0.393593864  0.850368540  0.852988627
     0.735816138  0.169815487  0.862287792
     0.748473680  0.524282874  0.850736901
     0.725100813  0.826738382  0.839724221
     0.229160242  0.520723055  0.156778046
     0.256454272  0.829932294  0.151014421
     0.569212798  0.192313345  0.130562795
     0.582867751  0.496752692  0.125569036
     0.563413840  0.859041951  0.148118952
     0.901507248  0.506960147  0.157215994
     0.725625872  0.676357342  0.361516056

  ion indices of the primitive-cell ions
   primitive index   ion index
                 1           1
                 2           2
                 3           3
                 4           4
                 5           5
                 6           6
                 7           7
                 8           8
                 9           9
                10          10
                11          11
                12          12
                13          13
                14          14
                15          15
                16          16
                17          17
                18          18
                19          19
                20          20
                21          21
                22          22
                23          23
                24          24
                25          25
                26          26
                27          27
                28          28
                29          29
                30          30
                31          31
                32          32
                33          33
                34          34
                35          35
                36          36
                37          37
                38          38
                39          39
                40          40
                41          41
                42          42
                43          43
                44          44
                45          45
                46          46
                47          47
                48          48
                49          49
                50          50
                51          51
                52          52
                53          53
                54          54
                55          55
                56          56
                57          57
                58          58
                59          59
                60          60
                61          61
                62          62
                63          63
                64          64
                65          65
                66          66
                67          67
                68          68
                69          69
                70          70
                71          71
                72          72

----------------------------------------------------------------------------------------

 
 
 KPOINTS: KPOINTS created by Atomic Simulation Env

Automatic generation of k-mesh.
 Grid dimensions read from file:
 generate k-points for:    2    2    2

 Generating k-lattice:

  Cartesian coordinates                     Fractional coordinates (reciprocal lattice)
     0.040148208  0.000000017  0.000000018     0.500000000  0.000000000  0.000000000
     0.000000017  0.039918104 -0.000000008     0.000000000  0.500000000  0.000000000
     0.000000015 -0.000000007  0.045101154     0.000000000  0.000000000  0.500000000

  Length of vectors
     0.040148208  0.039918104  0.045101154

  Shift w.r.t. Gamma in fractional coordinates (k-lattice)
     0.000000000  0.000000000  0.000000000

 
 Subroutine IBZKPT returns following result:
 ===========================================
 
 Found      8 irreducible k-points:
 
 Following reciprocal coordinates:
            Coordinates               Weight
  0.000000  0.000000  0.000000      1.000000
  0.500000  0.000000  0.000000      1.000000
  0.000000  0.500000  0.000000      1.000000
  0.500000  0.500000  0.000000      1.000000
  0.000000  0.000000  0.500000      1.000000
  0.500000  0.000000  0.500000      1.000000
  0.000000  0.500000  0.500000      1.000000
  0.500000  0.500000  0.500000      1.000000
 
 Following cartesian coordinates:
            Coordinates               Weight
  0.000000  0.000000  0.000000      1.000000
  0.040148  0.000000  0.000000      1.000000
  0.000000  0.039918 -0.000000      1.000000
  0.040148  0.039918  0.000000      1.000000
  0.000000 -0.000000  0.045101      1.000000
  0.040148  0.000000  0.045101      1.000000
  0.000000  0.039918  0.045101      1.000000
  0.040148  0.039918  0.045101      1.000000
 
 -----------------------------------------------------------------------------
|                                                                             |
|           W    W    AA    RRRRR   N    N  II  N    N   GGGG   !!!           |
|           W    W   A  A   R    R  NN   N  II  NN   N  G    G  !!!           |
|           W    W  A    A  R    R  N N  N  II  N N  N  G       !!!           |
|           W WW W  AAAAAA  RRRRR   N  N N  II  N  N N  G  GGG   !            |
|           WW  WW  A    A  R   R   N   NN  II  N   NN  G    G                |
|           W    W  A    A  R    R  N    N  II  N    N   GGGG   !!!           |
|                                                                             |
|     The number of bands has been changed from the values supplied in        |
|     the INCAR file. This is a result of running the parallel version.       |
|     The orbitals not found in the WAVECAR file will be initialized with     |
|     random numbers, which is usually adequate. For correlated               |
|     calculations, however, you should redo the groundstate calculation.     |
|     I found NBANDS = 220. Now, NBANDS = 224.                                |
|                                                                             |
 -----------------------------------------------------------------------------



--------------------------------------------------------------------------------------------------------




 Dimension of arrays:
   k-points           NKPTS =      8   k-points in BZ     NKDIM =      8   number of bands    NBANDS=    224
   number of dos      NEDOS =    301   number of ions     NIONS =     72
   non local maximal  LDIM  =      5   non local SUM 2l+1 LMDIM =     13
   total plane-waves  NPLWV = 774144
   max r-space proj   IRMAX =      1   max aug-charges    IRDMAX=  24526
   dimension x,y,z NGX =    96 NGY =   96 NGZ =   84
   dimension x,y,z NGXF=   192 NGYF=  192 NGZF=  168
   support grid    NGXF=   192 NGYF=  192 NGZF=  168
   ions per type =              36  36
   NGX,Y,Z   is equivalent  to a cutoff of  12.81, 12.74, 12.60 a.u.
   NGXF,Y,Z  is equivalent  to a cutoff of  25.63, 25.48, 25.19 a.u.

 SYSTEM =  01_AOPT                                 
 POSCAR =  Ge Se                                   

 Startparameter for this run:
   NWRITE =      2    write-flag & timer
   PREC   = accura    normal or accurate (medium, high low for compatibility)
   ISTART =      0    job   : 0-new  1-cont  2-samecut
   ICHARG =      2    charge: 1-file 2-atom 10-const
   ISPIN  =      2    spin polarized calculation?
   LNONCOLLINEAR =      F non collinear calculations
   LSORBIT =      F    spin-orbit coupling
   INIWAV =      1    electr: 0-lowe 1-rand  2-diag
   LASPH  =      T    aspherical Exc in radial PAW
 Electronic Relaxation 1
   ENCUT  =  520.0 eV  38.22 Ry    6.18 a.u.  23.16 23.29 20.61*2*pi/ulx,y,z
   ENINI  =  520.0     initial cutoff
   ENAUG  =  446.8 eV  augmentation charge cutoff
   NELM   =    100;   NELMIN=  5; NELMDL=  0     # of ELM steps 
   EDIFF  = 0.1E-05   stopping-criterion for ELM
   LREAL  =      F    real-space projection
   NLSPLINE    = F    spline interpolate recip. space projectors
   LCOMPAT=      F    compatible to vasp.4.4
   GGA_COMPAT  = T    GGA compatible to vasp.4.4-vasp.4.6
   LMAXPAW     = -100 max onsite density
   LMAXMIX     =    2 max onsite mixed and CHGCAR
   VOSKOWN=      0    Vosko Wilk Nusair interpolation
   ROPT   =    0.00000   0.00000
 Ionic relaxation
   EDIFFG = 0.1E-04   stopping-criterion for IOM
   NSW    =      0    number of steps for IOM
   NBLOCK =      1;   KBLOCK =      1    inner block; outer block 
   IBRION =     -1    ionic relax: 0-MD 1-quasi-New 2-CG
   NFREE  =      0    steps in history (QN), initial steepest desc. (CG)
   ISIF   =      2    stress and relaxation
   IWAVPR =     10    prediction:  0-non 1-charg 2-wave 3-comb
   ISYM   =     -1    0-nonsym 1-usesym 2-fastsym
   LCORR  =      T    Harris-Foulkes like correction to forces

   POTIM  = 0.5000    time-step for ionic-motion
   TEIN   =    0.0    initial temperature
   TEBEG  =    0.0;   TEEND  =   0.0 temperature during run
   SMASS  =  -3.00    Nose mass-parameter (am)
   estimated Nose-frequenzy (Omega)   =  0.10E-29 period in steps = 0.13E+47 mass=  -0.354E-26a.u.
   SCALEE = 1.0000    scale energy and forces
   NPACO  =    256;   APACO  = 10.0  distance and # of slots for P.C.
   PSTRESS=    0.0 pullay stress

  Mass of Ions in am
   POMASS =  72.61 78.96
  Ionic Valenz
   ZVAL   =   4.00  6.00
  Atomic Wigner-Seitz radii
   RWIGS  =  -1.00 -1.00
  virtual crystal weights 
   VCA    =   1.00  1.00
   NELECT =     360.0000    total number of electrons
   NUPDOWN=      -1.0000    fix difference up-down

 DOS related values:
   EMIN   =  10.00;   EMAX   =-10.00  energy-range for DOS
   EFERMI =   0.00;   METHOD = LEGACY      
   ISMEAR =     0;   SIGMA  =   0.05  broadening in eV -4-tet -1-fermi 0-gaus

 Electronic relaxation 2 (details)
   IALGO  =     38    algorithm
   LDIAG  =      T    sub-space diagonalisation (order eigenvalues)
   LSUBROT=      F    optimize rotation matrix (better conditioning)
   TURBO    =      0    0=normal 1=particle mesh
   IRESTART =      0    0=no restart 2=restart with 2 vectors
   NREBOOT  =      0    no. of reboots
   NMIN     =      0    reboot dimension
   EREF     =   0.00    reference energy to select bands
   IMIX   =      4    mixing-type and parameters
     AMIX     =   0.40;   BMIX     =  1.00
     AMIX_MAG =   1.60;   BMIX_MAG =  1.00
     AMIN     =   0.10
     WC   =   100.;   INIMIX=   1;  MIXPRE=   1;  MAXMIX= -45

 Intra band minimization:
   WEIMIN = 0.0000     energy-eigenvalue tresh-hold
   EBREAK =  0.11E-08  absolut break condition
   DEPER  =   0.30     relativ break condition  

   TIME   =   0.40     timestep for ELM

  volume/ion in A,a.u.               =      24.02       162.09
  Fermi-wavevector in a.u.,A,eV,Ry     =   0.970242  1.833492 12.808120  0.941370
  Thomas-Fermi vector in A             =   2.100361
 
 Write flags
   LWAVE        =      F    write WAVECAR
   LDOWNSAMPLE  =      F    k-point downsampling of WAVECAR
   LCHARG       =      F    write CHGCAR
   LVTOT        =      F    write LOCPOT, total local potential
   LVHAR        =      F    write LOCPOT, Hartree potential only
   LELF         =      F    write electronic localiz. function (ELF)
   LORBIT       =     11    0 simple, 1 ext, 2 COOP (PROOUT), +10 PAW based schemes


 Dipole corrections
   LMONO  =      F    monopole corrections only (constant potential shift)
   LDIPOL =      F    correct potential (dipole corrections)
   IDIPOL =      0    1-x, 2-y, 3-z, 4-all directions 
   EPSILON=  1.0000000 bulk dielectric constant

 Exchange correlation treatment:
   GGA     =    PE    GGA type
   LEXCH   =     8    internal setting for exchange type
   LIBXC   =     F    Libxc                    
   VOSKOWN =     0    Vosko Wilk Nusair interpolation
   LHFCALC =     F    Hartree Fock is set to
   LHFONE  =     F    Hartree Fock one center treatment
   AEXX    =    0.0000 exact exchange contribution

 Linear response parameters
   LEPSILON=     F    determine dielectric tensor
   LRPA    =     F    only Hartree local field effects (RPA)
   LNABLA  =     F    use nabla operator in PAW spheres
   LVEL    =     F    velocity operator in full k-point grid
   CSHIFT  =0.1000    complex shift for real part using Kramers Kronig
   OMEGAMAX=  -1.0    maximum frequency
   DEG_THRESHOLD= 0.2000000E-02 threshold for treating states as degnerate
   RTIME   =   -0.100 relaxation time in fs
  (WPLASMAI=    0.000 imaginary part of plasma frequency in eV, 0.658/RTIME)
   DFIELD  = 0.0000000 0.0000000 0.0000000 field for delta impulse in time
 
  Optional k-point grid parameters
   LKPOINTS_OPT  =     F    use optional k-point grid
   KPOINTS_OPT_MODE=     1    mode for optional k-point grid
 
 Orbital magnetization related:
   ORBITALMAG=     F  switch on orbital magnetization
   LCHIMAG   =     F  perturbation theory with respect to B field
   DQ        =  0.001000  dq finite difference perturbation B field
   LLRAUG    =     F  two centre corrections for induced B field
   LBONE     =     F  B-component reconstruction in AE one-centre
   LVGVCALC  =     T  calculate vGv susceptibility
   LVGVAPPL  =     F  apply vGv susceptibility instead of pGv for G=0

 Random number generation:
   RANDOM_GENERATOR = DEFAULT
   PCG_SEED         = not used


--------------------------------------------------------------------------------------------------------


 Static calculation
 charge density and potential will be updated during run
 spin polarized calculation
 Variant of blocked Davidson
 Davidson routine will perform the subspace rotation
 perform sub-space diagonalisation
    after iterative eigenvector-optimisation
 modified Broyden-mixing scheme, WC =      100.0
 initial mixing is a Kerker type mixing with AMIX =  0.4000 and BMIX =      1.0000
 Hartree-type preconditioning will be used
 using additional bands            44
 reciprocal scheme for non local part
 use partial core corrections
 calculate Harris-corrections to forces 
   (improved forces if not selfconsistent)
 use gradient corrections 
 use of overlap-Matrix (Vanderbilt PP)
 Gauss-broadening in eV      SIGMA  =   0.05


--------------------------------------------------------------------------------------------------------


  energy-cutoff  :      520.00
  volume of cell :     1729.36
      direct lattice vectors                 reciprocal lattice vectors
    12.453855857 -0.000005291 -0.000004276     0.080296417  0.000000034  0.000000035
    -0.000005321 12.525645020  0.000001840     0.000000034  0.079836208 -0.000000015
    -0.000004900  0.000002097 11.086190721     0.000000031 -0.000000013  0.090202309

  length of vectors
    12.453855857 12.525645020 11.086190721     0.080296417  0.079836208  0.090202309


 
 k-points in units of 2pi/SCALE and weight: KPOINTS created by Atomic Simulation Env
   0.00000000  0.00000000  0.00000000       0.125
   0.04014821  0.00000002  0.00000002       0.125
   0.00000002  0.03991810 -0.00000001       0.125
   0.04014823  0.03991812  0.00000001       0.125
   0.00000002 -0.00000001  0.04510115       0.125
   0.04014822  0.00000001  0.04510117       0.125
   0.00000003  0.03991810  0.04510115       0.125
   0.04014824  0.03991811  0.04510116       0.125
 
 k-points in reciprocal lattice and weights: KPOINTS created by Atomic Simulation Env
   0.00000000  0.00000000  0.00000000       0.125
   0.50000000  0.00000000  0.00000000       0.125
   0.00000000  0.50000000  0.00000000       0.125
   0.50000000  0.50000000  0.00000000       0.125
   0.00000000  0.00000000  0.50000000       0.125
   0.50000000  0.00000000  0.50000000       0.125
   0.00000000  0.50000000  0.50000000       0.125
   0.50000000  0.50000000  0.50000000       0.125
 
 position of ions in fractional coordinates (direct lattice) 
   0.04977738  0.03170624  0.13768225
   0.24268879  0.88391851  0.38079743
   0.58356145  0.19732240  0.36505517
   0.57623830  0.51988280  0.36233384
   0.56079227  0.89168022  0.38403400
   0.90653428  0.22143191  0.38260932
   0.89077963  0.55909818  0.38363994
   0.92500965  0.85381458  0.36156869
   0.10490279  0.17591524  0.63027597
   0.04124816  0.47959688  0.64479579
   0.07577191  0.81363457  0.62532011
   0.40152553  0.15525177  0.60679870
   0.43033304  0.50390716  0.63099813
   0.39830457  0.79295216  0.62230280
   0.71240027  0.14033966  0.63357614
   0.74048917  0.46659964  0.61377213
   0.26935849  0.53625807  0.38601614
   0.23144412  0.20728629  0.36239740
   0.77008478  0.84117974  0.61322037
   0.90135411  0.66178393  0.88495339
   0.93094059  0.00469892  0.88002528
   0.07184862  0.39356981  0.15251291
   0.10024543  0.68259545  0.11973415
   0.38101358  0.05308459  0.11061400
   0.41782507  0.35278378  0.13632009
   0.75120357  0.03095752  0.11497252
   0.74825577  0.37706358  0.13420835
   0.40548810  0.70039765  0.11273468
   0.25599293  0.33415878  0.87199692
   0.25071587  0.64507904  0.86519270
   0.23885287  0.98172464  0.87623159
   0.58241064  0.31464901  0.88070729
   0.60055765  0.66686211  0.87436581
   0.55717352  0.97218336  0.87408455
   0.89384651  0.31304451  0.89034005
   0.71868803  0.71404041  0.14471924
   0.88371410  0.01000866  0.65437057
   0.22791544  0.34114129  0.64746239
   0.22849866  0.68388896  0.64532695
   0.56214013  0.01540768  0.64007210
   0.58192421  0.34345135  0.65317856
   0.55548996  0.66194714  0.65020611
   0.89733763  0.33308592  0.66301612
   0.70840924  0.02921077  0.33950572
   0.06833439  0.00756283  0.36360618
   0.06419140  0.34809033  0.37445789
   0.05635821  0.68763702  0.34967369
   0.39026157  0.02136870  0.34648439
   0.38788920  0.35640456  0.36418528
   0.42481134  0.66875392  0.34715017
   0.23997880  0.01856145  0.63979151
   0.91664145  0.69002030  0.65840397
   0.88643838  0.85809600  0.14761897
   0.22095122  0.17743594  0.12829939
   0.90038803  0.17546296  0.14736586
   0.73073015  0.33583752  0.36989512
   0.06194948  0.18572200  0.85588695
   0.07347867  0.51957397  0.85512271
   0.07079733  0.85881593  0.85442735
   0.41429087  0.18844886  0.85474537
   0.39384730  0.50741809  0.85939658
   0.39359386  0.85036854  0.85298863
   0.73581614  0.16981549  0.86228779
   0.74847368  0.52428287  0.85073690
   0.72510081  0.82673838  0.83972422
   0.22916024  0.52072306  0.15677805
   0.25645427  0.82993229  0.15101442
   0.56921280  0.19231334  0.13056279
   0.58286775  0.49675269  0.12556904
   0.56341384  0.85904195  0.14811895
   0.90150725  0.50696015  0.15721599
   0.72562587  0.67635734  0.36151606
 
 position of ions in cartesian coordinates  (Angst):
   0.61991941  0.39714114  1.52637155
   3.02240470 11.07164896  4.22159347
   7.26758738  2.47158804  4.04706912
   7.17638420  6.51186507  4.01690059
   6.98401945 11.16886781  4.25747337
  11.28984422  2.77357354  4.24167643
  11.09363625  7.00306143  4.25310275
  11.51993059 10.69457418  4.00841706
   1.30644024  2.20345262  6.98735946
   0.51369295  6.00726145  7.14832982
   0.94364508 10.19129866  6.93241917
   5.00053730  1.94462765  6.72708464
   5.35929994  6.31176121  6.99536469
   4.96042039  9.93223651  6.89896727
   8.87212638  1.75784230  7.02394311
   9.22193989  5.84445884  6.80439263
   3.35454701  6.71697757  4.27944842
   2.88236883  2.59639396  4.01760603
   9.59051741 10.53631605  6.79827621
  11.22532631  8.28926769  9.81075942
  11.59379561  0.05885392  9.75612418
   0.89478952  4.92971565  1.69078762
   1.24843796  8.54994805  1.32739647
   4.74508736  0.66491699  1.22628634
   5.20353063  4.41884245  1.51126934
   9.35538023  0.38775921  1.27460414
   9.31866688  4.72296085  1.48785691
   5.04988610  8.77293044  1.24979773
   3.18809303  4.18555475  9.66712373
   3.12237161  8.08003154  9.59169137
   2.97462972 12.29673492  9.71407133
   7.25325218  3.94118063  9.76368711
   7.47925055  8.35287670  9.69338478
   6.93894923 12.17722256  9.69026747
  11.13182963  3.92108149  9.87047632
   8.95043262  8.94381320  1.60438337
  11.00564482  0.12536168  7.25447314
   2.83842099  4.27301486  7.17789117
   2.84568262  8.56615052  7.15421787
   7.00080888  0.19298944  7.09595896
   7.24719524  4.30194800  7.24126018
   6.91798523  8.29131328  7.20830783
  11.17530854  4.17211260  7.35031995
   8.82242474  0.36588072  3.76382215
   0.85102478  0.09472975  4.03100718
   0.79942674  4.36005634  4.15131194
   0.70187171  8.61309762  3.87655026
   4.86025950  0.26765547  3.84119038
   4.83071250  4.46419569  4.03742643
   5.29053395  8.37657263  3.84857244
   2.98865818  0.23249424  7.09284976
  11.41571363  8.64294586  7.29918934
  11.03957047 10.74820147  1.63652987
   2.75169313  2.22249875  1.42235093
  11.21330106  2.19778227  1.63372250
   9.10040437  4.20657853  4.10072531
   0.77150473  2.32628934  9.48852608
   0.91508576  6.50800054  9.48005409
   0.88169105 10.75722494  9.47234580
   5.15951355  2.36044307  9.47586881
   4.90491059  6.35573860  9.52743359
   4.90175254 10.65141418  9.45639448
   9.16374299  2.12704643  9.55948408
   9.32137636  6.56697899  9.43142930
   9.03029250 10.35542942  9.30934129
   2.85392508  6.52239126  1.73807130
   3.19383939 10.39543626  1.67417510
   7.08889247  2.40884595  1.44744196
   7.25894770  6.22214506  1.39208070
   7.01666946 10.76005186  1.64207412
  11.22723785  6.34999841  1.74292358
   9.03683464  8.47180889  4.00783408
 


--------------------------------------------------------------------------------------------------------


 k-point   1 :   0.0000 0.0000 0.0000  plane waves:   46517
 k-point   2 :   0.5000 0.0000 0.0000  plane waves:   46598
 k-point   3 :   0.0000 0.5000 0.0000  plane waves:   46594
 k-point   4 :   0.5000 0.5000 0.0000  plane waves:   46584
 k-point   5 :   0.0000 0.0000 0.5000  plane waves:   46662
 k-point   6 :   0.5000 0.0000 0.5000  plane waves:   46528
 k-point   7 :   0.0000 0.5000 0.5000  plane waves:   46588
 k-point   8 :   0.5000 0.5000 0.5000  plane waves:   46528

 maximum and minimum number of plane-waves per node :      5879     5782

 maximum number of plane-waves:     46662
 maximum index in each direction: 
   IXMAX=   23   IYMAX=   23   IZMAX=   20
   IXMIN=  -23   IYMIN=  -23   IZMIN=  -21


 parallel 3D FFT for wavefunctions:
    minimum data exchange during FFTs selected (reduces bandwidth)
 parallel 3D FFT for charge:
    minimum data exchange during FFTs selected (reduces bandwidth)


 total amount of memory used by VASP MPI-rank0   111164. kBytes
=======================================================================

   base      :      30000. kBytes
   nonl-proj :      16467. kBytes
   fftplans  :       6180. kBytes
   grid      :      15593. kBytes
   one-center:        146. kBytes
   wavefun   :      42778. kBytes
 
     INWAV:  cpu time      0.0000: real time      0.0001
 Broyden mixing: mesh for mixing (old mesh)
   NGX = 47   NGY = 47   NGZ = 41
  (NGX  =192   NGY  =192   NGZ  =168)
  gives a total of  90569 points

 initial charge density was supplied:
 charge density of overlapping atoms calculated
 number of electron     360.0000000 magnetization      72.0000000
 keeping initial charge density in first step


--------------------------------------------------------------------------------------------------------


 Maximum index for augmentation-charges           795 (set IRDMAX)


--------------------------------------------------------------------------------------------------------


 First call to EWALD:  gamma=   0.148
 Maximum number of real-space cells 3x 3x 3
 Maximum number of reciprocal cells 3x 3x 3

    FEWALD:  cpu time      0.0026: real time      0.0026


--------------------------------------- Ionic step        1  -------------------------------------------




--------------------------------------- Iteration      1(   1)  ---------------------------------------


    POTLOK:  cpu time      0.1401: real time      0.1411
    SETDIJ:  cpu time      0.6704: real time      0.6721
     EDDAV:  cpu time      8.8273: real time      8.8721
       DOS:  cpu time      0.0020: real time      0.0020
    --------------------------------------------
      LOOP:  cpu time      9.6398: real time      9.6873

 eigenvalue-minimisations  :  7168
 total energy-change (2. order) : 0.1822574E+04  (-0.1416465E+05)
 number of electron     360.0000000 magnetization      72.0000000
 augmentation part      360.0000000 magnetization      72.0000000

 Free energy of the ion-electron system (eV)
  ---------------------------------------------------
  alpha Z        PSCENC =       793.64466025
  Ewald energy   TEWEN  =    -12811.29134659
  -Hartree energ DENC   =     -1141.69390090
  -exchange      EXHF   =         0.00000000
  -V(xc)+E(xc)   XCENC  =      -293.53604179
  PAW double counting   =     10738.42099860    -9719.93139476
  entropy T*S    EENTRO =        -0.02364597
  eigenvalues    EBANDS =      1220.53329573
  atomic energy  EATOM  =     13036.45147835
  Solvation  Ediel_sol  =         0.00000000
  ---------------------------------------------------
  free energy    TOTEN  =      1822.57410291 eV

  energy without entropy =     1822.59774889  energy(sigma->0) =     1822.58592590


--------------------------------------------------------------------------------------------------------




--------------------------------------- Iteration      1(   2)  ---------------------------------------


     EDDAV:  cpu time      9.9912: real time     10.0400
       DOS:  cpu time      0.0013: real time      0.0013
    --------------------------------------------
      LOOP:  cpu time      9.9925: real time     10.0412

 eigenvalue-minimisations  :  8480
 total energy-change (2. order) :-0.1886663E+04  (-0.1812002E+04)
 number of electron     360.0000000 magnetization      72.0000000
 augmentation part      360.0000000 magnetization      72.0000000

 Free energy of the ion-electron system (eV)
  ---------------------------------------------------
  alpha Z        PSCENC =       793.64466025
  Ewald energy   TEWEN  =    -12811.29134659
  -Hartree energ DENC   =     -1141.69390090
  -exchange      EXHF   =         0.00000000
  -V(xc)+E(xc)   XCENC  =      -293.53604179
  PAW double counting   =     10738.42099860    -9719.93139476
  entropy T*S    EENTRO =        -0.01424845
  eigenvalues    EBANDS =      -666.13880521
  atomic energy  EATOM  =     13036.45147835
  Solvation  Ediel_sol  =         0.00000000
  ---------------------------------------------------
  free energy    TOTEN  =       -64.08860050 eV

  energy without entropy =      -64.07435206  energy(sigma->0) =      -64.08147628


--------------------------------------------------------------------------------------------------------




--------------------------------------- Iteration      1(   3)  ---------------------------------------


     EDDAV:  cpu time      9.9862: real time     10.0326
       DOS:  cpu time      0.0012: real time      0.0012
    --------------------------------------------
      LOOP:  cpu time      9.9874: real time     10.0338

 eigenvalue-minimisations  :  8528
 total energy-change (2. order) :-0.2177601E+03  (-0.2118343E+03)
 number of electron     360.0000000 magnetization      72.0000000
 augmentation part      360.0000000 magnetization      72.0000000

 Free energy of the ion-electron system (eV)
  ---------------------------------------------------
  alpha Z        PSCENC =       793.64466025
  Ewald energy   TEWEN  =    -12811.29134659
  -Hartree energ DENC   =     -1141.69390090
  -exchange      EXHF   =         0.00000000
  -V(xc)+E(xc)   XCENC  =      -293.53604179
  PAW double counting   =     10738.42099860    -9719.93139476
  entropy T*S    EENTRO =        -0.00033445
  eigenvalues    EBANDS =      -883.91278974
  atomic energy  EATOM  =     13036.45147835
  Solvation  Ediel_sol  =         0.00000000
  ---------------------------------------------------
  free energy    TOTEN  =      -281.84867103 eV

  energy without entropy =     -281.84833658  energy(sigma->0) =     -281.84850381


--------------------------------------------------------------------------------------------------------




--------------------------------------- Iteration      1(   4)  ---------------------------------------


     EDDAV:  cpu time     10.3661: real time     10.4142
       DOS:  cpu time      0.0013: real time      0.0013
    --------------------------------------------
      LOOP:  cpu time     10.3674: real time     10.4155

 eigenvalue-minimisations  :  8848
 total energy-change (2. order) :-0.8071880E+01  (-0.7980269E+01)
 number of electron     360.0000000 magnetization      72.0000000
 augmentation part      360.0000000 magnetization      72.0000000

 Free energy of the ion-electron system (eV)
  ---------------------------------------------------
  alpha Z        PSCENC =       793.64466025
  Ewald energy   TEWEN  =    -12811.29134659
  -Hartree energ DENC   =     -1141.69390090
  -exchange      EXHF   =         0.00000000
  -V(xc)+E(xc)   XCENC  =      -293.53604179
  PAW double counting   =     10738.42099860    -9719.93139476
  entropy T*S    EENTRO =        -0.00007205
  eigenvalues    EBANDS =      -891.98493218
  atomic energy  EATOM  =     13036.45147835
  Solvation  Ediel_sol  =         0.00000000
  ---------------------------------------------------
  free energy    TOTEN  =      -289.92055107 eV

  energy without entropy =     -289.92047902  energy(sigma->0) =     -289.92051505


--------------------------------------------------------------------------------------------------------




--------------------------------------- Iteration      1(   5)  ---------------------------------------


     EDDAV:  cpu time     10.4118: real time     10.4601
       DOS:  cpu time      0.0011: real time      0.0011
    CHARGE:  cpu time      0.4312: real time      0.4331
    MIXING:  cpu time      0.0083: real time      0.0084
    --------------------------------------------
      LOOP:  cpu time     10.8525: real time     10.9028

 eigenvalue-minimisations  :  9040
 total energy-change (2. order) :-0.2762708E+00  (-0.2754956E+00)
 number of electron     360.0000003 magnetization      48.8403113
 augmentation part      -66.7864263 magnetization      49.0509460

 Broyden mixing:
  rms(total) = 0.29281E+01    rms(broyden)= 0.29280E+01
  rms(prec ) = 0.30781E+01
  weight for this iteration     100.00

 Free energy of the ion-electron system (eV)
  ---------------------------------------------------
  alpha Z        PSCENC =       793.64466025
  Ewald energy   TEWEN  =    -12811.29134659
  -Hartree energ DENC   =     -1141.69390090
  -exchange      EXHF   =         0.00000000
  -V(xc)+E(xc)   XCENC  =      -293.53604179
  PAW double counting   =     10738.42099860    -9719.93139476
  entropy T*S    EENTRO =        -0.00007100
  eigenvalues    EBANDS =      -892.26120403
  atomic energy  EATOM  =     13036.45147835
  Solvation  Ediel_sol  =         0.00000000
  ---------------------------------------------------
  free energy    TOTEN  =      -290.19682186 eV

  energy without entropy =     -290.19675087  energy(sigma->0) =     -290.19678637


--------------------------------------------------------------------------------------------------------




--------------------------------------- Iteration      1(   6)  ---------------------------------------


    POTLOK:  cpu time      0.1360: real time      0.1375
    SETDIJ:  cpu time      0.6672: real time      0.6695
     EDDAV:  cpu time      9.2900: real time      9.3332
       DOS:  cpu time      0.0011: real time      0.0011
    CHARGE:  cpu time      0.4454: real time      0.4470
    MIXING:  cpu time      0.0071: real time      0.0072
    --------------------------------------------
      LOOP:  cpu time     10.5469: real time     10.5955

 eigenvalue-minimisations  :  7832
 total energy-change (2. order) : 0.2261213E+00  (-0.2596472E+01)
 number of electron     360.0000003 magnetization      27.9022103
 augmentation part      -66.1815441 magnetization      29.0811895

 Broyden mixing:
  rms(total) = 0.17351E+01    rms(broyden)= 0.17351E+01
  rms(prec ) = 0.17728E+01
  weight for this iteration     100.00

 eigenvalues of (default mixing * dielectric matrix)
  average eigenvalue GAMMA=   1.0095
  1.0095

 Free energy of the ion-electron system (eV)
  ---------------------------------------------------
  alpha Z        PSCENC =       793.64466025
  Ewald energy   TEWEN  =    -12811.29134659
  -Hartree energ DENC   =     -1194.68151763
  -exchange      EXHF   =         0.00000000
  -V(xc)+E(xc)   XCENC  =      -286.82621996
  PAW double counting   =     13067.90749726   -12053.00919821
  entropy T*S    EENTRO =        -0.00001051
  eigenvalues    EBANDS =      -842.16604350
  atomic energy  EATOM  =     13036.45147835
  Solvation  Ediel_sol  =         0.00000000
  ---------------------------------------------------
  free energy    TOTEN  =      -289.97070054 eV

  energy without entropy =     -289.97069002  energy(sigma->0) =     -289.97069528


--------------------------------------------------------------------------------------------------------




--------------------------------------- Iteration      1(   7)  ---------------------------------------


    POTLOK:  cpu time      0.1317: real time      0.1326
    SETDIJ:  cpu time      0.6684: real time      0.6704
     EDDAV:  cpu time      9.4711: real time      9.5202
       DOS:  cpu time      0.0012: real time      0.0012
    CHARGE:  cpu time      0.4382: real time      0.4398
    MIXING:  cpu time      0.0073: real time      0.0073
    --------------------------------------------
      LOOP:  cpu time     10.7179: real time     10.7715

 eigenvalue-minimisations  :  7976
 total energy-change (2. order) :-0.7369419E+01  (-0.8669819E+00)
 number of electron     360.0000003 magnetization       8.9583087
 augmentation part      -66.1625322 magnetization       9.6302433

 Broyden mixing:
  rms(total) = 0.91232E+00    rms(broyden)= 0.91232E+00
  rms(prec ) = 0.92890E+00
  weight for this iteration     100.00

 eigenvalues of (default mixing * dielectric matrix)
  average eigenvalue GAMMA=   1.4701
  0.8628  2.0774

 Free energy of the ion-electron system (eV)
  ---------------------------------------------------
  alpha Z        PSCENC =       793.64466025
  Ewald energy   TEWEN  =    -12811.29134659
  -Hartree energ DENC   =     -1212.24032257
  -exchange      EXHF   =         0.00000000
  -V(xc)+E(xc)   XCENC  =      -289.71475659
  PAW double counting   =     15217.76438286   -14204.57620759
  entropy T*S    EENTRO =        -0.00000000
  eigenvalues    EBANDS =      -827.37800793
  atomic energy  EATOM  =     13036.45147835
  Solvation  Ediel_sol  =         0.00000000
  ---------------------------------------------------
  free energy    TOTEN  =      -297.34011983 eV

  energy without entropy =     -297.34011982  energy(sigma->0) =     -297.34011983


--------------------------------------------------------------------------------------------------------




--------------------------------------- Iteration      1(   8)  ---------------------------------------


    POTLOK:  cpu time      0.1317: real time      0.1323
    SETDIJ:  cpu time      0.6691: real time      0.6713
     EDDAV:  cpu time      9.5834: real time      9.6285
       DOS:  cpu time      0.0008: real time      0.0008
    CHARGE:  cpu time      0.4273: real time      0.4288
    MIXING:  cpu time      0.0076: real time      0.0077
    --------------------------------------------
      LOOP:  cpu time     10.8199: real time     10.8694

 eigenvalue-minimisations  :  8208
 total energy-change (2. order) :-0.3211556E+01  (-0.1782782E+00)
 number of electron     360.0000003 magnetization       4.3052602
 augmentation part      -66.1646295 magnetization       4.6047425

 Broyden mixing:
  rms(total) = 0.32043E+00    rms(broyden)= 0.32043E+00
  rms(prec ) = 0.32602E+00
  weight for this iteration     100.00

 eigenvalues of (default mixing * dielectric matrix)
  average eigenvalue GAMMA=   1.3662
  2.5130  0.9265  0.6591

 Free energy of the ion-electron system (eV)
  ---------------------------------------------------
  alpha Z        PSCENC =       793.64466025
  Ewald energy   TEWEN  =    -12811.29134659
  -Hartree energ DENC   =     -1217.83895102
  -exchange      EXHF   =         0.00000000
  -V(xc)+E(xc)   XCENC  =      -289.29014494
  PAW double counting   =     17068.82227594   -16056.64978339
  entropy T*S    EENTRO =        -0.00000000
  eigenvalues    EBANDS =      -824.39986430
  atomic energy  EATOM  =     13036.45147835
  Solvation  Ediel_sol  =         0.00000000
  ---------------------------------------------------
  free energy    TOTEN  =      -300.55167569 eV

  energy without entropy =     -300.55167569  energy(sigma->0) =     -300.55167569


--------------------------------------------------------------------------------------------------------




--------------------------------------- Iteration      1(   9)  ---------------------------------------


    POTLOK:  cpu time      0.1317: real time      0.1323
    SETDIJ:  cpu time      0.6672: real time      0.6694
     EDDAV:  cpu time     10.4332: real time     10.4817
       DOS:  cpu time      0.0010: real time      0.0010
    CHARGE:  cpu time      0.4347: real time      0.4366
    MIXING:  cpu time      0.0080: real time      0.0081
    --------------------------------------------
      LOOP:  cpu time     11.6758: real time     11.7291

 eigenvalue-minimisations  :  9024
 total energy-change (2. order) :-0.3565976E+00  (-0.4101476E-01)
 number of electron     360.0000003 magnetization       2.3148579
 augmentation part      -66.2005942 magnetization       2.4649508

 Broyden mixing:
  rms(total) = 0.14688E+00    rms(broyden)= 0.14688E+00
  rms(prec ) = 0.14863E+00
  weight for this iteration     100.00

 eigenvalues of (default mixing * dielectric matrix)
  average eigenvalue GAMMA=   1.3277
  2.6352  1.2233  0.8307  0.6214

 Free energy of the ion-electron system (eV)
  ---------------------------------------------------
  alpha Z        PSCENC =       793.64466025
  Ewald energy   TEWEN  =    -12811.29134659
  -Hartree energ DENC   =     -1216.95429277
  -exchange      EXHF   =         0.00000000
  -V(xc)+E(xc)   XCENC  =      -289.32018465
  PAW double counting   =     17346.41993824   -16334.58375724
  entropy T*S    EENTRO =        -0.00000000
  eigenvalues    EBANDS =      -825.27476885
  atomic energy  EATOM  =     13036.45147835
  Solvation  Ediel_sol  =         0.00000000
  ---------------------------------------------------
  free energy    TOTEN  =      -300.90827326 eV

  energy without entropy =     -300.90827326  energy(sigma->0) =     -300.90827326


--------------------------------------------------------------------------------------------------------




--------------------------------------- Iteration      1(  10)  ---------------------------------------


    POTLOK:  cpu time      0.1325: real time      0.1331
    SETDIJ:  cpu time      0.6671: real time      0.6694
     EDDAV:  cpu time      9.5751: real time      9.6269
       DOS:  cpu time      0.0007: real time      0.0007
    CHARGE:  cpu time      0.4415: real time      0.4432
    MIXING:  cpu time      0.0077: real time      0.0077
    --------------------------------------------
      LOOP:  cpu time     10.8247: real time     10.8812

 eigenvalue-minimisations  :  8168
 total energy-change (2. order) :-0.9714408E-01  (-0.8929600E-02)
 number of electron     360.0000003 magnetization       0.7760899
 augmentation part      -66.2011726 magnetization       0.8439146

 Broyden mixing:
  rms(total) = 0.73652E-01    rms(broyden)= 0.73652E-01
  rms(prec ) = 0.74736E-01
  weight for this iteration     100.00

 eigenvalues of (default mixing * dielectric matrix)
  average eigenvalue GAMMA=   1.3768
  2.6949  1.7749  0.9669  0.8211  0.6262

 Free energy of the ion-electron system (eV)
  ---------------------------------------------------
  alpha Z        PSCENC =       793.64466025
  Ewald energy   TEWEN  =    -12811.29134659
  -Hartree energ DENC   =     -1217.22356913
  -exchange      EXHF   =         0.00000000
  -V(xc)+E(xc)   XCENC  =      -289.31380088
  PAW double counting   =     17350.26355413   -16338.43943413
  entropy T*S    EENTRO =        -0.00000000
  eigenvalues    EBANDS =      -825.09695934
  atomic energy  EATOM  =     13036.45147835
  Solvation  Ediel_sol  =         0.00000000
  ---------------------------------------------------
  free energy    TOTEN  =      -301.00541734 eV

  energy without entropy =     -301.00541734  energy(sigma->0) =     -301.00541734


--------------------------------------------------------------------------------------------------------




--------------------------------------- Iteration      1(  11)  ---------------------------------------


    POTLOK:  cpu time      0.1332: real time      0.1339
    SETDIJ:  cpu time      0.6645: real time      0.6696
     EDDAV:  cpu time     10.1958: real time     10.2462
       DOS:  cpu time      0.0010: real time      0.0010
    CHARGE:  cpu time      0.4267: real time      0.4282
    MIXING:  cpu time      0.0077: real time      0.0077
    --------------------------------------------
      LOOP:  cpu time     11.4289: real time     11.4866

 eigenvalue-minimisations  :  8720
 total energy-change (2. order) :-0.3204019E-01  (-0.3482222E-02)
 number of electron     360.0000003 magnetization       0.1895394
 augmentation part      -66.1866374 magnetization       0.2092642

 Broyden mixing:
  rms(total) = 0.28980E-01    rms(broyden)= 0.28980E-01
  rms(prec ) = 0.29435E-01
  weight for this iteration     100.00

 eigenvalues of (default mixing * dielectric matrix)
  average eigenvalue GAMMA=   1.4047
  2.8984  2.1850  1.1641  0.8554  0.7015  0.6238

 Free energy of the ion-electron system (eV)
  ---------------------------------------------------
  alpha Z        PSCENC =       793.64466025
  Ewald energy   TEWEN  =    -12811.29134659
  -Hartree energ DENC   =     -1218.35103682
  -exchange      EXHF   =         0.00000000
  -V(xc)+E(xc)   XCENC  =      -289.26973095
  PAW double counting   =     17273.85419196   -16262.00106852
  entropy T*S    EENTRO =        -0.00000000
  eigenvalues    EBANDS =      -824.07460520
  atomic energy  EATOM  =     13036.45147835
  Solvation  Ediel_sol  =         0.00000000
  ---------------------------------------------------
  free energy    TOTEN  =      -301.03745753 eV

  energy without entropy =     -301.03745753  energy(sigma->0) =     -301.03745753


--------------------------------------------------------------------------------------------------------




--------------------------------------- Iteration      1(  12)  ---------------------------------------


    POTLOK:  cpu time      0.1314: real time      0.1330
    SETDIJ:  cpu time      0.6702: real time      0.6724
     EDDAV:  cpu time      9.9635: real time     10.0131
       DOS:  cpu time      0.0008: real time      0.0008
    CHARGE:  cpu time      0.4284: real time      0.4300
    MIXING:  cpu time      0.0077: real time      0.0078
    --------------------------------------------
      LOOP:  cpu time     11.2021: real time     11.2570

 eigenvalue-minimisations  :  8624
 total energy-change (2. order) :-0.3671968E-02  (-0.4754181E-03)
 number of electron     360.0000003 magnetization       0.0599986
 augmentation part      -66.1864066 magnetization       0.0647192

 Broyden mixing:
  rms(total) = 0.10809E-01    rms(broyden)= 0.10809E-01
  rms(prec ) = 0.11354E-01
  weight for this iteration     100.00

 eigenvalues of (default mixing * dielectric matrix)
  average eigenvalue GAMMA=   1.3698
  3.0119  2.3330  1.2111  0.8848  0.8848  0.6086  0.6544

 Free energy of the ion-electron system (eV)
  ---------------------------------------------------
  alpha Z        PSCENC =       793.64466025
  Ewald energy   TEWEN  =    -12811.29134659
  -Hartree energ DENC   =     -1218.46823919
  -exchange      EXHF   =         0.00000000
  -V(xc)+E(xc)   XCENC  =      -289.26806962
  PAW double counting   =     17238.58984592   -16226.71398753
  entropy T*S    EENTRO =        -0.00000000
  eigenvalues    EBANDS =      -823.98547107
  atomic energy  EATOM  =     13036.45147835
  Solvation  Ediel_sol  =         0.00000000
  ---------------------------------------------------
  free energy    TOTEN  =      -301.04112949 eV

  energy without entropy =     -301.04112949  energy(sigma->0) =     -301.04112949


--------------------------------------------------------------------------------------------------------




--------------------------------------- Iteration      1(  13)  ---------------------------------------


    POTLOK:  cpu time      0.1308: real time      0.1316
    SETDIJ:  cpu time      0.6706: real time      0.6726
     EDDAV:  cpu time     10.8997: real time     10.9537
       DOS:  cpu time      0.0008: real time      0.0008
    CHARGE:  cpu time      0.4288: real time      0.4307
    MIXING:  cpu time      0.0077: real time      0.0077
    --------------------------------------------
      LOOP:  cpu time     12.1383: real time     12.1972

 eigenvalue-minimisations  :  9680
 total energy-change (2. order) :-0.1532997E-03  (-0.6025508E-04)
 number of electron     360.0000003 magnetization       0.0149466
 augmentation part      -66.1879687 magnetization       0.0157842

 Broyden mixing:
  rms(total) = 0.43330E-02    rms(broyden)= 0.43330E-02
  rms(prec ) = 0.45503E-02
  weight for this iteration     100.00

 eigenvalues of (default mixing * dielectric matrix)
  average eigenvalue GAMMA=   1.3532
  3.0635  2.4332  1.1275  1.1275  0.9547  0.8626  0.6482  0.6082

 Free energy of the ion-electron system (eV)
  ---------------------------------------------------
  alpha Z        PSCENC =       793.64466025
  Ewald energy   TEWEN  =    -12811.29134659
  -Hartree energ DENC   =     -1218.36941060
  -exchange      EXHF   =         0.00000000
  -V(xc)+E(xc)   XCENC  =      -289.27712555
  PAW double counting   =     17225.27401579   -16213.38696405
  entropy T*S    EENTRO =        -0.00000000
  eigenvalues    EBANDS =      -824.08659039
  atomic energy  EATOM  =     13036.45147835
  Solvation  Ediel_sol  =         0.00000000
  ---------------------------------------------------
  free energy    TOTEN  =      -301.04128279 eV

  energy without entropy =     -301.04128279  energy(sigma->0) =     -301.04128279


--------------------------------------------------------------------------------------------------------




--------------------------------------- Iteration      1(  14)  ---------------------------------------


    POTLOK:  cpu time      0.1336: real time      0.1343
    SETDIJ:  cpu time      0.6683: real time      0.6701
     EDDAV:  cpu time      9.7141: real time      9.7642
       DOS:  cpu time      0.0033: real time      0.0033
    CHARGE:  cpu time      0.4339: real time      0.4358
    MIXING:  cpu time      0.0078: real time      0.0078
    --------------------------------------------
      LOOP:  cpu time     10.9609: real time     11.0156

 eigenvalue-minimisations  :  8264
 total energy-change (2. order) :-0.1717918E-04  (-0.8669143E-05)
 number of electron     360.0000003 magnetization       0.0046277
 augmentation part      -66.1875866 magnetization       0.0049735

 Broyden mixing:
  rms(total) = 0.15999E-02    rms(broyden)= 0.15999E-02
  rms(prec ) = 0.17121E-02
  weight for this iteration     100.00

 eigenvalues of (default mixing * dielectric matrix)
  average eigenvalue GAMMA=   1.3358
  3.0885  2.4558  1.4813  1.1874  0.8825  0.8825  0.7917  0.6101  0.6426

 Free energy of the ion-electron system (eV)
  ---------------------------------------------------
  alpha Z        PSCENC =       793.64466025
  Ewald energy   TEWEN  =    -12811.29134659
  -Hartree energ DENC   =     -1218.37395348
  -exchange      EXHF   =         0.00000000
  -V(xc)+E(xc)   XCENC  =      -289.27757036
  PAW double counting   =     17220.65515895   -16208.76503181
  entropy T*S    EENTRO =        -0.00000000
  eigenvalues    EBANDS =      -824.08469528
  atomic energy  EATOM  =     13036.45147835
  Solvation  Ediel_sol  =         0.00000000
  ---------------------------------------------------
  free energy    TOTEN  =      -301.04129997 eV

  energy without entropy =     -301.04129997  energy(sigma->0) =     -301.04129997


--------------------------------------------------------------------------------------------------------




--------------------------------------- Iteration      1(  15)  ---------------------------------------


    POTLOK:  cpu time      0.1333: real time      0.1340
    SETDIJ:  cpu time      0.6668: real time      0.6687
     EDDAV:  cpu time      9.9758: real time     10.0293
       DOS:  cpu time      0.0008: real time      0.0008
    CHARGE:  cpu time      0.4258: real time      0.4274
    MIXING:  cpu time      0.0082: real time      0.0082
    --------------------------------------------
      LOOP:  cpu time     11.2106: real time     11.2685

 eigenvalue-minimisations  :  8624
 total energy-change (2. order) :-0.3765011E-05  (-0.1724030E-05)
 number of electron     360.0000003 magnetization       0.0016475
 augmentation part      -66.1877143 magnetization       0.0018494

 Broyden mixing:
  rms(total) = 0.74034E-03    rms(broyden)= 0.74034E-03
  rms(prec ) = 0.78981E-03
  weight for this iteration     100.00

 eigenvalues of (default mixing * dielectric matrix)
  average eigenvalue GAMMA=   1.3039
  3.0981  2.4274  1.6930  1.1004  0.9729  0.9729  0.8222  0.7127  0.6198  0.6198

 Free energy of the ion-electron system (eV)
  ---------------------------------------------------
  alpha Z        PSCENC =       793.64466025
  Ewald energy   TEWEN  =    -12811.29134659
  -Hartree energ DENC   =     -1218.36392263
  -exchange      EXHF   =         0.00000000
  -V(xc)+E(xc)   XCENC  =      -289.27769723
  PAW double counting   =     17220.30110001   -16208.41029767
  entropy T*S    EENTRO =        -0.00000000
  eigenvalues    EBANDS =      -824.09527823
  atomic energy  EATOM  =     13036.45147835
  Solvation  Ediel_sol  =         0.00000000
  ---------------------------------------------------
  free energy    TOTEN  =      -301.04130374 eV

  energy without entropy =     -301.04130374  energy(sigma->0) =     -301.04130374


--------------------------------------------------------------------------------------------------------




--------------------------------------- Iteration      1(  16)  ---------------------------------------


    POTLOK:  cpu time      0.1312: real time      0.1319
    SETDIJ:  cpu time      0.6731: real time      0.6754
     EDDAV:  cpu time      6.7340: real time      6.7737
       DOS:  cpu time      0.0007: real time      0.0007
    --------------------------------------------
      LOOP:  cpu time      7.5390: real time      7.5817

 eigenvalue-minimisations  :  4920
 total energy-change (2. order) :-0.6084738E-06  (-0.1565795E-06)
 number of electron     360.0000003 magnetization       0.0016475
 augmentation part      -66.1877143 magnetization       0.0018494

 Free energy of the ion-electron system (eV)
  ---------------------------------------------------
  alpha Z        PSCENC =       793.64466025
  Ewald energy   TEWEN  =    -12811.29134659
  -Hartree energ DENC   =     -1218.35883885
  -exchange      EXHF   =         0.00000000
  -V(xc)+E(xc)   XCENC  =      -289.27794527
  PAW double counting   =     17220.19558077   -16208.30450275
  entropy T*S    EENTRO =        -0.00000000
  eigenvalues    EBANDS =      -824.10039025
  atomic energy  EATOM  =     13036.45147835
  Solvation  Ediel_sol  =         0.00000000
  ---------------------------------------------------
  free energy    TOTEN  =      -301.04130435 eV

  energy without entropy =     -301.04130435  energy(sigma->0) =     -301.04130435


--------------------------------------------------------------------------------------------------------




 average (electrostatic) potential at core
  the test charge radii are     1.1631  1.0808
  (the norm of the test charge is              1.0000)
       1 -33.5307       2 -33.5396       3 -33.3915       4 -33.6202       5 -33.5039
       6 -33.4718       7 -33.4995       8 -33.3808       9 -33.2411      10 -33.3168
      11 -33.4329      12 -33.6763      13 -33.5418      14 -33.5330      15 -33.2795
      16 -33.4984      17 -33.5219      18 -33.6554      19 -33.4435      20 -33.5087
      21 -33.4918      22 -33.2986      23 -33.5866      24 -33.6082      25 -33.5918
      26 -33.4433      27 -33.4573      28 -33.5670      29 -33.3763      30 -33.4495
      31 -33.5521      32 -33.3585      33 -33.3192      34 -33.6551      35 -33.5150
      36 -33.4657      37 -54.7393      38 -54.7045      39 -55.1444      40 -54.9479
      41 -54.9522      42 -54.9941      43 -54.9599      44 -54.7407      45 -54.9931
      46 -54.9117      47 -54.8817      48 -54.9678      49 -54.9634      50 -54.8403
      51 -54.8592      52 -54.9756      53 -54.8384      54 -54.8970      55 -54.8870
      56 -55.0569      57 -54.7610      58 -54.7105      59 -54.9369      60 -54.7146
      61 -54.8973      62 -55.0147      63 -54.8215      64 -54.7842      65 -54.8079
      66 -55.0389      67 -54.8860      68 -54.7414      69 -54.9094      70 -54.7328
      71 -54.9343      72 -55.0453
 
 
 
 E-fermi :   3.3914     XC(G=0):  -9.3421     alpha+bet : -8.7850

 Fermi energy:         3.3913832122

 spin component 1

 k-point     1 :       0.0000    0.0000    0.0000
  band No.  band energies     occupation 
      1     -10.9618      1.00000
      2     -10.6626      1.00000
      3     -10.4781      1.00000
      4     -10.3957      1.00000
      5     -10.3474      1.00000
      6     -10.3325      1.00000
      7     -10.1977      1.00000
      8     -10.1264      1.00000
      9     -10.0841      1.00000
     10     -10.0667      1.00000
     11      -9.9754      1.00000
     12      -9.9202      1.00000
     13      -9.8813      1.00000
     14      -9.8699      1.00000
     15      -9.7972      1.00000
     16      -9.7295      1.00000
     17      -9.6942      1.00000
     18      -9.6615      1.00000
     19      -9.6225      1.00000
     20      -9.5606      1.00000
     21      -9.5045      1.00000
     22      -9.4900      1.00000
     23      -9.4246      1.00000
     24      -9.3935      1.00000
     25      -9.3778      1.00000
     26      -9.3244      1.00000
     27      -9.3042      1.00000
     28      -9.2757      1.00000
     29      -9.2215      1.00000
     30      -9.1830      1.00000
     31      -9.1734      1.00000
     32      -9.1504      1.00000
     33      -9.1106      1.00000
     34      -9.0425      1.00000
     35      -9.0229      1.00000
     36      -8.9218      1.00000
     37      -5.4512      1.00000
     38      -5.4044      1.00000
     39      -5.3715      1.00000
     40      -5.3300      1.00000
     41      -5.1623      1.00000
     42      -5.1501      1.00000
     43      -5.1195      1.00000
     44      -5.0368      1.00000
     45      -4.8468      1.00000
     46      -4.8060      1.00000
     47      -4.6811      1.00000
     48      -4.5996      1.00000
     49      -4.5208      1.00000
     50      -4.5120      1.00000
     51      -4.4906      1.00000
     52      -4.4672      1.00000
     53      -4.4377      1.00000
     54      -4.3712      1.00000
     55      -4.3425      1.00000
     56      -4.3382      1.00000
     57      -4.3044      1.00000
     58      -4.2370      1.00000
     59      -4.2088      1.00000
     60      -4.1489      1.00000
     61      -4.1261      1.00000
     62      -4.0800      1.00000
     63      -4.0339      1.00000
     64      -4.0009      1.00000
     65      -3.9357      1.00000
     66      -3.9066      1.00000
     67      -3.7493      1.00000
     68      -3.6772      1.00000
     69      -3.5098      1.00000
     70      -3.4501      1.00000
     71      -2.4789      1.00000
     72      -2.3976      1.00000
     73      -1.8223      1.00000
     74      -1.6279      1.00000
     75      -1.6051      1.00000
     76      -1.5490      1.00000
     77      -1.4728      1.00000
     78      -1.4517      1.00000
     79      -1.2977      1.00000
     80      -1.2569      1.00000
     81      -1.2033      1.00000
     82      -1.1808      1.00000
     83      -1.1144      1.00000
     84      -1.0776      1.00000
     85      -1.0024      1.00000
     86      -0.8866      1.00000
     87      -0.8208      1.00000
     88      -0.7784      1.00000
     89      -0.7046      1.00000
     90      -0.6880      1.00000
     91      -0.6593      1.00000
     92      -0.5468      1.00000
     93      -0.5180      1.00000
     94      -0.3204      1.00000
     95      -0.2773      1.00000
     96      -0.2021      1.00000
     97      -0.1703      1.00000
     98      -0.0864      1.00000
     99      -0.0651      1.00000
    100      -0.0363      1.00000
    101       0.0119      1.00000
    102       0.0441      1.00000
    103       0.0899      1.00000
    104       0.1044      1.00000
    105       0.1760      1.00000
    106       0.2241      1.00000
    107       0.2672      1.00000
    108       0.2770      1.00000
    109       0.3045      1.00000
    110       0.3922      1.00000
    111       0.4195      1.00000
    112       0.4269      1.00000
    113       0.4977      1.00000
    114       0.5008      1.00000
    115       0.6008      1.00000
    116       0.6240      1.00000
    117       0.6463      1.00000
    118       0.6765      1.00000
    119       0.6967      1.00000
    120       0.7231      1.00000
    121       0.7777      1.00000
    122       0.8063      1.00000
    123       0.8219      1.00000
    124       0.8770      1.00000
    125       0.9106      1.00000
    126       0.9421      1.00000
    127       0.9450      1.00000
    128       0.9516      1.00000
    129       1.0158      1.00000
    130       1.0560      1.00000
    131       1.1040      1.00000
    132       1.1421      1.00000
    133       1.1706      1.00000
    134       1.2050      1.00000
    135       1.2579      1.00000
    136       1.2965      1.00000
    137       1.3403      1.00000
    138       1.3639      1.00000
    139       1.4117      1.00000
    140       1.4625      1.00000
    141       1.4694      1.00000
    142       1.5234      1.00000
    143       1.5386      1.00000
    144       1.5860      1.00000
    145       1.6533      1.00000
    146       1.6732      1.00000
    147       1.7417      1.00000
    148       1.8106      1.00000
[...]
   -.593E+01 -.159E+02 -.291E+02   0.598E+01 0.178E+02 0.317E+02   0.127E-02 -.226E+01 -.262E+01   0.203E-03 -.202E-03 -.682E-04
   -.615E+01 0.623E+01 0.266E+02   0.672E+01 -.802E+01 -.299E+02   -.551E+00 0.218E+01 0.261E+01   -.137E-04 0.735E-04 0.103E-03
   -.210E+02 -.667E+01 0.376E+02   0.224E+02 0.750E+01 -.394E+02   -.142E+01 -.908E+00 0.167E+01   0.298E-03 0.180E-03 -.496E-03
   -.114E+02 -.168E+02 0.287E+02   0.124E+02 0.179E+02 -.304E+02   -.111E+01 -.963E+00 0.152E+01   -.527E-03 -.111E-03 0.196E-03
   0.652E+01 0.170E+02 0.369E+02   -.680E+01 -.192E+02 -.387E+02   0.569E+00 0.131E+01 0.153E+01   0.815E-04 -.295E-03 -.228E-03
   0.865E+01 0.282E+02 0.202E+02   -.924E+01 -.298E+02 -.213E+02   -.735E-01 0.103E+01 0.128E+01   0.257E-03 -.184E-03 -.726E-05
   0.165E+02 0.519E+01 0.253E+02   -.172E+02 -.640E+01 -.268E+02   0.283E+00 0.155E+01 0.118E+01   -.234E-04 -.148E-04 0.516E-04
   -.248E+02 -.148E+02 0.299E+02   0.266E+02 0.154E+02 -.316E+02   -.158E+01 -.409E+00 0.147E+01   0.885E-05 0.263E-03 0.626E-04
   -.409E+01 0.142E+02 0.288E+02   0.416E+01 -.159E+02 -.301E+02   -.346E+00 0.199E+01 0.101E+01   0.469E-03 -.118E-03 -.347E-03
   -.284E+02 0.131E+02 -.318E+02   0.302E+02 -.132E+02 0.335E+02   -.147E+01 0.875E-01 -.103E+01   0.410E-03 0.262E-04 0.895E-04
   0.711E+01 -.118E+02 -.313E+02   -.739E+01 0.131E+02 0.333E+02   0.504E+00 -.141E+01 -.209E+01   -.493E-03 -.278E-05 0.526E-03
   -.523E+01 -.145E+02 -.250E+02   0.573E+01 0.158E+02 0.269E+02   -.148E+00 -.114E+01 -.194E+01   -.642E-04 0.520E-04 0.224E-05
   -.177E+02 0.321E+01 -.232E+02   0.190E+02 -.341E+01 0.247E+02   -.146E+01 0.308E+00 -.145E+01   -.122E-03 0.418E-04 0.472E-03
   -.224E+01 -.672E+01 -.183E+02   0.240E+01 0.798E+01 0.194E+02   0.222E-01 -.112E+01 -.108E+01   -.182E-03 0.106E-03 0.903E-05
   -.359E+01 0.554E+01 -.273E+02   0.453E+01 -.605E+01 0.292E+02   -.920E+00 0.375E+00 -.203E+01   -.110E-04 -.110E-03 0.256E-04
   0.148E+01 -.215E+02 -.221E+02   -.109E+01 0.230E+02 0.232E+02   -.499E+00 -.162E+01 -.111E+01   -.237E-03 0.621E-04 0.371E-03
   0.382E+01 0.166E+02 0.191E+02   -.405E+01 -.179E+02 -.204E+02   0.538E+00 0.147E+01 0.165E+01   -.714E-03 0.234E-03 -.859E-04
   0.976E+01 0.131E+02 0.305E+02   -.102E+02 -.145E+02 -.320E+02   0.173E+00 0.127E+01 0.998E+00   -.280E-04 0.368E-04 -.519E-03
   -.105E+02 0.154E+02 0.343E+02   0.113E+02 -.162E+02 -.367E+02   -.109E+01 0.598E+00 0.162E+01   0.824E-04 0.988E-04 0.140E-03
   0.127E+02 -.131E+02 0.245E+02   -.135E+02 0.144E+02 -.264E+02   0.701E+00 -.985E+00 0.241E+01   -.164E-03 0.144E-03 -.331E-03
   -.102E+02 -.149E+02 0.129E+02   0.103E+02 0.163E+02 -.144E+02   0.149E+00 -.131E+01 0.168E+01   0.148E-03 -.148E-03 -.143E-03
   -.807E+01 -.113E+02 -.218E+02   0.817E+01 0.126E+02 0.232E+02   0.404E+00 -.735E+00 -.167E+01   0.708E-04 -.910E-04 -.131E-04
   -.142E+02 0.231E+01 -.279E+02   0.154E+02 -.229E+01 0.298E+02   -.139E+01 -.576E+00 -.165E+01   0.263E-03 -.119E-03 -.287E-03
   0.126E+01 0.760E+01 -.367E+02   -.135E+01 -.850E+01 0.390E+02   -.134E+00 0.989E+00 -.111E+01   0.225E-03 -.154E-03 -.198E-03
   0.103E+01 0.145E+02 -.341E+02   -.110E+01 -.162E+02 0.357E+02   0.435E+00 0.146E+01 -.165E+01   -.125E-03 0.277E-03 0.463E-04
   0.120E+02 0.150E+02 -.151E+02   -.122E+02 -.161E+02 0.160E+02   0.371E-01 0.114E+01 -.130E+01   -.295E-03 0.922E-04 0.454E-03
   -.135E+02 0.490E+01 -.310E+02   0.151E+02 -.508E+01 0.328E+02   -.137E+01 -.266E+00 -.200E+01   -.145E-03 0.239E-03 -.371E-04
   -.319E+01 0.104E+02 -.197E+02   0.323E+01 -.119E+02 0.211E+02   0.114E+00 0.880E+00 -.159E+01   -.896E-04 -.259E-03 -.225E-04
   -.248E+01 0.185E+02 -.236E+02   0.231E+01 -.200E+02 0.252E+02   -.121E+00 0.175E+01 -.155E+01   0.765E-05 -.207E-03 0.108E-03
   -.195E+01 0.109E+02 -.205E+02   0.192E+01 -.125E+02 0.217E+02   0.111E-01 0.138E+01 -.135E+01   -.220E-03 0.276E-03 0.103E-03
   -.894E+01 -.143E+02 -.256E+02   0.998E+01 0.153E+02 0.269E+02   -.127E+01 -.423E+00 -.106E+01   -.305E-04 -.577E-04 0.102E-03
   -.128E+02 0.665E+01 0.239E+02   0.141E+02 -.718E+01 -.253E+02   -.118E+01 0.868E+00 0.138E+01   -.214E-03 -.364E-03 -.115E-03
   0.178E+02 -.172E+02 0.182E+02   -.184E+02 0.187E+02 -.196E+02   -.262E+00 -.121E+01 0.136E+01   -.294E-03 0.109E-03 -.129E-03
   0.841E+00 0.110E+02 0.208E+02   -.374E+00 -.115E+02 -.221E+02   -.141E+01 0.497E+00 0.182E+01   -.429E-04 -.634E-04 -.105E-03
   0.104E+02 -.218E+02 0.284E+02   -.110E+02 0.232E+02 -.301E+02   0.518E-01 -.104E+01 0.244E+01   0.163E-03 -.585E-04 -.249E-03
   0.296E+01 -.546E+01 0.248E+02   -.323E+01 0.642E+01 -.259E+02   0.130E+00 -.177E+01 0.113E+01   0.280E-03 -.780E-04 -.275E-03
   -.404E+01 -.210E+02 0.286E+02   0.399E+01 0.228E+02 -.301E+02   -.334E-01 -.945E+00 0.160E+01   0.136E-03 -.234E-04 0.656E-04
   0.343E+01 -.211E+02 -.353E+02   -.418E+01 0.226E+02 0.376E+02   0.482E+00 -.130E+01 -.176E+01   0.276E-03 0.249E-03 0.300E-03
 -----------------------------------------------------------------------------------------------
   -.906E+01 -.804E+00 -.102E+01   -.213E-13 0.711E-14 0.242E-12   0.906E+01 0.804E+00 0.102E+01   -.313E-03 -.324E-03 -.595E-03
 
 
 POSITION                                       TOTAL-FORCE (eV/Angst)
 -----------------------------------------------------------------------------------
      0.61992      0.39714      1.52637         0.201377      0.257758     -0.121418
      3.02240     11.07165      4.22159        -0.126259     -0.213849     -0.034054
      7.26759      2.47159      4.04707        -0.165495     -0.441753     -0.335581
      7.17638      6.51187      4.01690        -0.030405      0.359136     -0.465528
      6.98402     11.16887      4.25747        -0.123706      0.037311     -0.444560
     11.28984      2.77357      4.24168        -0.107334     -0.711389     -0.035323
     11.09364      7.00306      4.25310         0.425415     -0.312940     -0.077807
     11.51993     10.69457      4.00842         0.060379     -0.037520      0.814094
      1.30644      2.20345      6.98736        -0.379213     -0.004994     -0.189785
      0.51369      6.00726      7.14833         0.487972     -0.121775     -0.943716
      0.94365     10.19130      6.93242        -0.232002      0.770876      0.013637
      5.00054      1.94463      6.72708        -0.024543     -0.149781      0.678401
      5.35930      6.31176      6.99536        -0.001249     -0.578361      0.243175
      4.96042      9.93224      6.89897         0.167395      0.814226     -0.073268
      8.87213      1.75784      7.02394         1.005226      0.501450     -0.060743
      9.22194      5.84446      6.80439         0.305504      0.176080      0.331474
      3.35455      6.71698      4.27945         0.015951     -0.125800     -0.028409
      2.88237      2.59639      4.01761        -0.116057      0.160169     -0.248894
      9.59052     10.53632      6.79828         0.095632     -0.009640      0.078390
     11.22533      8.28927      9.81076         0.241889     -0.229233      0.116608
     11.59380      0.05885      9.75612         0.002463      0.410813     -0.232200
      0.89479      4.92972      1.69079        -0.223329     -0.901645     -0.457925
      1.24844      8.54995      1.32740         0.129547      0.327845      0.197494
      4.74509      0.66492      1.22629         0.526188      0.034569      0.122115
      5.20353      4.41884      1.51127         0.464364     -0.087134     -0.093333
      9.35538      0.38776      1.27460        -0.033021     -0.138055     -0.018385
      9.31867      4.72296      1.48786        -0.155085     -0.681538     -0.002332
      5.04989      8.77293      1.24980         0.680616      0.246861      0.366179
      3.18809      4.18555      9.66712         0.175824     -0.004173      0.118686
      3.12237      8.08003      9.59169        -0.638561      0.124875      0.477637
      2.97463     12.29673      9.71407        -0.088240      0.386214     -0.319185
      7.25325      3.94118      9.76369        -0.015510     -0.181901      0.138656
      7.47925      8.35288      9.69338        -0.102852     -0.123815      0.215731
      6.93895     12.17722      9.69027         0.366734      0.123210     -0.178548
     11.13183      3.92108      9.87048         0.048842     -0.286981     -0.021848
      8.95043      8.94381      1.60438         0.014872      0.391120     -0.715682
     11.00564      0.12536      7.25447         0.062714     -0.081200     -0.139011
      2.83842      4.27301      7.17789        -0.130334      0.184307     -0.201638
      2.84568      8.56615      7.15422         0.284753     -0.839174     -0.308260
      7.00081      0.19299      7.09596        -0.660056     -0.620107      0.177858
      7.24720      4.30195      7.24126        -0.446364      0.341983     -0.310404
      6.91799      8.29131      7.20831         0.181338      0.181050     -0.247686
     11.17531      4.17211      7.35032        -0.282743      0.261179     -0.331942
      8.82242      0.36588      3.76382         0.282545      0.000904      0.675406
      0.85102      0.09473      4.03101         0.233379     -0.077347     -0.062230
      0.79943      4.36006      4.15131         0.355588      0.175650     -0.010602
      0.70187      8.61310      3.87655        -0.152578      0.110260      0.041925
      4.86026      0.26766      3.84119         0.178249      0.136763      0.023917
      4.83071      4.46420      4.03743         0.024807     -0.140100     -0.118689
      5.29053      8.37657      3.84857        -0.109190     -0.154482     -0.014033
      2.98866      0.23249      7.09285         0.309781      0.181177      0.402435
     11.41571      8.64295      7.29919        -0.267927     -0.114031     -0.505812
     11.03957     10.74820      1.63653        -0.272881     -0.152712     -0.766222
      2.75169      2.22250      1.42235        -0.141981      0.264555      0.513608
     11.21330      2.19778      1.63372         0.215587      0.017394      0.174064
      9.10040      4.20658      4.10073         0.501203      0.525628     -0.287633
      0.77150      2.32629      9.48853        -0.215880     -0.564596      0.288797
      0.91509      6.50800      9.48005        -0.223446      0.083172      1.146695
      0.88169     10.75722      9.47235         0.372482     -0.232383     -0.009097
      5.15951      2.36044      9.47587        -0.142064      0.000101     -0.444584
      4.90491      6.35574      9.52743         0.164733     -0.449895     -0.211092
      4.90175     10.65141      9.45639         0.146563     -0.650646     -0.138109
      9.16374      2.12705      9.55948        -0.292592      0.295553      0.066388
      9.32138      6.56698      9.43143        -0.019844     -0.181528     -0.182251
      9.03029     10.35543      9.30934        -0.233840      0.555449      0.272003
      2.85393      6.52239      1.73807         0.150384      0.337151     -0.063128
      3.19384     10.39544      1.67418        -0.810480      0.301910     -0.028528
      7.08889      2.40885      1.44744        -0.941546     -0.012568      0.426618
      7.25895      6.22215      1.39208        -0.480323      0.347733      0.703020
      7.01667     10.76005      1.64207        -0.140771     -0.808854      0.017268
     11.22724      6.35000      1.74292        -0.085591      0.856116      0.089592
      9.03683      8.47181      4.00783        -0.267003      0.141346      0.547605
 -----------------------------------------------------------------------------------
    total drift:                                0.000959     -0.000126     -0.000424


--------------------------------------------------------------------------------------------------------



  FREE ENERGIE OF THE ION-ELECTRON SYSTEM (eV)
  ---------------------------------------------------
  free  energy   TOTEN  =      -301.04130435 eV

  energy  without entropy=     -301.04130435  energy(sigma->0) =     -301.04130435
 


--------------------------------------------------------------------------------------------------------


    POTLOK:  cpu time      0.7285: real time      0.7313


--------------------------------------------------------------------------------------------------------


     LOOP+:  cpu time    184.2778: real time    185.1742
    4ORBIT:  cpu time      0.0000: real time      0.0000



 total charge

# of ion       s       p       d       tot
------------------------------------------
    1        1.313   0.778   0.057   2.148
    2        1.317   0.769   0.053   2.140
    3        1.312   0.796   0.061   2.169
    4        1.323   0.748   0.055   2.126
    5        1.328   0.745   0.053   2.126
    6        1.330   0.763   0.054   2.146
    7        1.312   0.790   0.057   2.159
    8        1.297   0.834   0.063   2.193
    9        1.311   0.806   0.059   2.176
   10        1.321   0.798   0.060   2.179
   11        1.311   0.813   0.063   2.188
   12        1.339   0.699   0.047   2.085
   13        1.311   0.788   0.056   2.155
   14        1.315   0.793   0.057   2.166
   15        1.306   0.826   0.065   2.196
   16        1.315   0.775   0.054   2.144
   17        1.329   0.752   0.053   2.134
   18        1.325   0.738   0.050   2.113
   19        1.321   0.768   0.054   2.142
   20        1.330   0.745   0.056   2.130
   21        1.309   0.782   0.055   2.146
   22        1.316   0.823   0.063   2.203
   23        1.327   0.746   0.051   2.124
   24        1.325   0.736   0.051   2.113
   25        1.328   0.739   0.050   2.116
   26        1.332   0.745   0.058   2.135
   27        1.316   0.793   0.063   2.172
   28        1.323   0.748   0.055   2.127
   29        1.332   0.745   0.054   2.131
   30        1.300   0.831   0.064   2.195
   31        1.315   0.774   0.056   2.145
   32        1.319   0.779   0.057   2.156
   33        1.310   0.811   0.062   2.183
   34        1.336   0.723   0.050   2.110
   35        1.322   0.756   0.056   2.134
   36        1.310   0.794   0.056   2.159
   37        1.477   2.295   0.029   3.801
   38        1.476   2.303   0.031   3.810
   39        1.473   2.341   0.039   3.853
   40        1.473   2.324   0.033   3.831
   41        1.476   2.307   0.034   3.816
   42        1.478   2.322   0.036   3.835
   43        1.477   2.311   0.036   3.824
   44        1.471   2.323   0.032   3.827
   45        1.480   2.290   0.032   3.801
   46        1.477   2.310   0.033   3.820
   47        1.476   2.294   0.029   3.800
   48        1.473   2.306   0.032   3.811
   49        1.479   2.288   0.031   3.799
   50        1.476   2.302   0.030   3.808
   51        1.477   2.293   0.029   3.798
   52        1.475   2.319   0.035   3.828
   53        1.477   2.310   0.033   3.819
   54        1.481   2.279   0.030   3.790
   55        1.475   2.300   0.031   3.805
   56        1.476   2.311   0.035   3.823
   57        1.476   2.289   0.028   3.793
   58        1.472   2.320   0.030   3.822
   59        1.475   2.312   0.032   3.819
   60        1.475   2.280   0.025   3.780
   61        1.478   2.308   0.033   3.819
   62        1.473   2.319   0.033   3.826
   63        1.477   2.297   0.032   3.805
   64        1.474   2.305   0.029   3.808
   65        1.474   2.306   0.030   3.810
   66        1.477   2.317   0.036   3.830
   67        1.472   2.311   0.030   3.813
   68        1.480   2.266   0.028   3.773
   69        1.481   2.281   0.031   3.794
   70        1.477   2.277   0.026   3.780
   71        1.473   2.328   0.034   3.835
   72        1.477   2.320   0.036   3.833
--------------------------------------------------
tot        100.620 110.814   3.171 214.605



 magnetization (x)

# of ion       s       p       d       tot
------------------------------------------
    1       -0.000   0.000  -0.000  -0.000
    2       -0.000   0.000   0.000   0.000
    3       -0.000   0.000  -0.000   0.000
    4       -0.000   0.000   0.000   0.000
    5       -0.000   0.000   0.000   0.000
    6       -0.000  -0.000  -0.000  -0.000
    7       -0.000   0.000   0.000   0.000
    8       -0.000   0.000  -0.000   0.000
    9       -0.000   0.000  -0.000  -0.000
   10       -0.000   0.000   0.000   0.000
   11       -0.000   0.000   0.000   0.000
   12       -0.000   0.000   0.000   0.000
   13       -0.000   0.000   0.000   0.000
   14       -0.000   0.000   0.000   0.000
   15       -0.000  -0.000  -0.000  -0.000
   16       -0.000   0.000   0.000   0.000
   17       -0.000   0.000   0.000   0.000
   18       -0.000   0.000   0.000   0.000
   19       -0.000   0.000   0.000   0.000
   20       -0.000   0.000  -0.000   0.000
   21       -0.000  -0.000  -0.000  -0.000
   22       -0.000   0.000  -0.000  -0.000
   23       -0.000   0.000   0.000   0.000
   24       -0.000   0.000   0.000   0.000
   25       -0.000   0.000   0.000   0.000
   26       -0.000  -0.000  -0.000  -0.000
   27       -0.000  -0.000  -0.000  -0.000
   28       -0.000   0.000   0.000   0.000
   29       -0.000   0.000   0.000   0.000
   30       -0.000   0.000   0.000   0.000
   31       -0.000   0.000   0.000   0.000
   32       -0.000   0.000  -0.000   0.000
   33       -0.000   0.000   0.000   0.000
   34       -0.000  -0.000  -0.000  -0.000
   35       -0.000  -0.000  -0.000  -0.000
   36       -0.000   0.000   0.000   0.000
   37       -0.000  -0.000  -0.000  -0.000
   38       -0.000  -0.000  -0.000  -0.000
   39       -0.000  -0.000   0.000  -0.000
   40       -0.000  -0.000  -0.000  -0.000
   41       -0.000  -0.000   0.000  -0.000
   42       -0.000  -0.000   0.000  -0.000
   43       -0.000  -0.000  -0.000  -0.000
   44       -0.000  -0.000   0.000  -0.000
   45       -0.000  -0.000   0.000  -0.000
   46       -0.000  -0.000   0.000  -0.000
   47       -0.000  -0.000   0.000  -0.000
   48       -0.000  -0.000   0.000  -0.000
   49       -0.000  -0.000   0.000  -0.000
   50       -0.000  -0.000   0.000  -0.000
   51       -0.000  -0.000   0.000  -0.000
   52       -0.000  -0.000   0.000  -0.000
   53       -0.000  -0.000  -0.000  -0.000
   54       -0.000  -0.000   0.000  -0.000
   55       -0.000  -0.000  -0.000  -0.000
   56       -0.000  -0.000  -0.000  -0.000
   57       -0.000  -0.000  -0.000  -0.000
   58       -0.000  -0.000   0.000  -0.000
   59       -0.000  -0.000   0.000  -0.000
   60       -0.000  -0.000  -0.000  -0.000
   61       -0.000  -0.000   0.000  -0.000
   62       -0.000  -0.000   0.000  -0.000
   63       -0.000  -0.000  -0.000  -0.000
   64       -0.000  -0.000   0.000  -0.000
   65       -0.000  -0.000  -0.000  -0.000
   66       -0.000  -0.000   0.000  -0.000
   67       -0.000  -0.000   0.000  -0.000
   68       -0.000  -0.000   0.000  -0.000
   69       -0.000  -0.000   0.000  -0.000
   70       -0.000  -0.000   0.000  -0.000
   71       -0.000  -0.000   0.000  -0.000
   72       -0.000  -0.000   0.000  -0.000
--------------------------------------------------
tot         -0.000  -0.000   0.000  -0.000
 

 total amount of memory used by VASP MPI-rank0   111164. kBytes
=======================================================================

   base      :      30000. kBytes
   nonl-proj :      16467. kBytes
   fftplans  :       6180. kBytes
   grid      :      15593. kBytes
   one-center:        146. kBytes
   wavefun   :      42778. kBytes
 
  
  
 General timing and accounting informations for this job:
 ========================================================
  
                  Total CPU time used (sec):      195.994
                            User time (sec):      189.926
                          System time (sec):        6.069
                         Elapsed time (sec):      197.941
  
                   Maximum memory used (kb):      313228.
                   Average memory used (kb):          N/A
  
                          Minor page faults:        89820
                          Major page faults:           40
                 Voluntary context switches:         3229
