 running  128 mpi-ranks, with    1 threads/rank, on    2 nodes
 distrk:  each k-point on   64 cores,    2 groups
 distr:  one band on    8 cores,    8 groups
 vasp.6.4.2 20Jul23 (build Oct 12 2023 10:31:02) complex                         
 POSCAR found type information on POSCAR GeSe
 POSCAR found :  2 types and      72 ions
 Reading from existing POTCAR
 -----------------------------------------------------------------------------
|                                                                             |
|           W    W    AA    RRRRR   N    N  II  N    N   GGGG   !!!           |
|           W    W   A  A   R    R  NN   N  II  NN   N  G    G  !!!           |
|           W    W  A    A  R    R  N N  N  II  N N  N  G       !!!           |
|           W WW W  AAAAAA  RRRRR   N  N N  II  N  N N  G  GGG   !            |
|           WW  WW  A    A  R   R   N   NN  II  N   NN  G    G                |
|           W    W  A    A  R    R  N    N  II  N    N   GGGG   !!!           |
|                                                                             |
|     You use a magnetic or noncollinear calculation, but did not specify     |
|     the initial magnetic moment with the MAGMOM tag. Note that a            |
|     default of 1 will be used for all atoms. This ferromagnetic setup       |
|     may break the symmetry of the crystal, in particular it may rule        |
|     out finding an antiferromagnetic solution. Thence, we recommend         |
|     setting the initial magnetic moment manually or verifying carefully     |
|     that this magnetic setup is desired.                                    |
|                                                                             |
 -----------------------------------------------------------------------------

 scaLAPACK will be used
 Reading from existing POTCAR
 -----------------------------------------------------------------------------
|                                                                             |
|               ----> ADVICE to this user running VASP <----                  |
|                                                                             |
|     You have a (more or less) 'large supercell' and for larger cells it     |
|     might be more efficient to use real-space projection operators.         |
|     Therefore, try LREAL= Auto in the INCAR file.                           |
|     Mind: For very accurate calculation, you might also keep the            |
|     reciprocal projection scheme (i.e. LREAL=.FALSE.).                      |
|                                                                             |
 -----------------------------------------------------------------------------

 LDA part: xc-table for Pade appr. of Perdew
 -----------------------------------------------------------------------------
|                                                                             |
|           W    W    AA    RRRRR   N    N  II  N    N   GGGG   !!!           |
|           W    W   A  A   R    R  NN   N  II  NN   N  G    G  !!!           |
|           W    W  A    A  R    R  N N  N  II  N N  N  G       !!!           |
|           W WW W  AAAAAA  RRRRR   N  N N  II  N  N N  G  GGG   !            |
|           WW  WW  A    A  R   R   N   NN  II  N   NN  G    G                |
|           W    W  A    A  R    R  N    N  II  N    N   GGGG   !!!           |
|                                                                             |
|     The number of bands has been changed from the values supplied in        |
|     the INCAR file. This is a result of running the parallel version.       |
|     The orbitals not found in the WAVECAR file will be initialized with     |
|     random numbers, which is usually adequate. For correlated               |
|     calculations, however, you should redo the groundstate calculation.     |
|     I found NBANDS = 220. Now, NBANDS = 224.                                |
|                                                                             |
 -----------------------------------------------------------------------------

 POSCAR, INCAR and KPOINTS ok, starting setup
 FFT: planning ... GRIDC
 FFT: planning ... GRID_SOFT
 FFT: planning ... GRID
 WAVECAR not read
 WARNING: random wavefunctions but no delay for mixing, default for NELMDL
 entering main loop
       N       E                     dE             d eps       ncg     rms          rms(c)
DAV:   1     0.181920457054E+04    0.18192E+04   -0.14188E+05  7168   0.135E+03
DAV:   2    -0.628041924934E+02   -0.18820E+04   -0.18065E+04  8488   0.205E+02
DAV:   3    -0.281780942592E+03   -0.21898E+03   -0.21316E+03  8600   0.694E+01
DAV:   4    -0.289692886943E+03   -0.79119E+01   -0.78221E+01  8728   0.131E+01
DAV:   5    -0.289992580525E+03   -0.29969E+00   -0.29888E+00  9048   0.214E+00    0.291E+01
DAV:   6    -0.289365938604E+03    0.62664E+00   -0.27127E+01  7960   0.766E+00    0.173E+01
DAV:   7    -0.296842200563E+03   -0.74763E+01   -0.87045E+00  8048   0.446E+00    0.908E+00
DAV:   8    -0.300075597766E+03   -0.32334E+01   -0.17285E+00  8136   0.225E+00    0.333E+00
DAV:   9    -0.300457693996E+03   -0.38210E+00   -0.42740E-01  9104   0.101E+00    0.149E+00
DAV:  10    -0.300564535898E+03   -0.10684E+00   -0.95252E-02  8120   0.465E-01    0.732E-01
DAV:  11    -0.300596023895E+03   -0.31488E-01   -0.36083E-02  8896   0.283E-01    0.288E-01
DAV:  12    -0.300599411067E+03   -0.33872E-02   -0.47628E-03  8592   0.119E-01    0.105E-01
DAV:  13    -0.300599507406E+03   -0.96340E-04   -0.56578E-04  9880   0.373E-02    0.447E-02
DAV:  14    -0.300599522914E+03   -0.15508E-04   -0.97625E-05  8288   0.189E-02    0.169E-02
DAV:  15    -0.300599526307E+03   -0.33930E-05   -0.16081E-05  8544   0.905E-03    0.770E-03
DAV:  16    -0.300599526958E+03   -0.65041E-06   -0.13894E-06  4880   0.261E-03
   1 F= -.30059953E+03 E0= -.30059953E+03  d E =-.193193E-12  mag=     0.0004
