72
Lattice="12.425452204163111 -8.1407411895e-06 3.0604491855e-06 -8.1914165318e-06 12.502798218792801 8.16340415e-08 3.5069332039e-06 9.29648036e-08 11.060757054766281" Properties=species:S:1:pos:R:3:forces:R:3:magmoms:R:1 energy=-300.09919876 stress="0.004360992664161587 0.0006323423003726807 -0.0012604808382434237 0.0006323423003726807 -0.00958411984087791 0.0008727193692926468 -0.0012604808382434237 0.0008727193692926468 -0.004133419133711529" dipole="_JSON [[0.0, 0.0, 0.0]]" magmom=0.0017899 free_energy=-300.09919876 pbc="T T T"
Ge       0.66284695       0.24753351       1.51863919      -0.19211147       0.27673180      -0.12483640       0.00000000
Ge       2.50306692      10.88211500       4.18925051       0.99389011       0.19437297       0.09362505       0.00000000
Ge       6.68811518       2.40973991       4.09349804       0.58805576       0.43368993       0.13338625       0.00000000
Ge       7.02102752       6.74060582       4.20923021       0.15169908       0.02292104      -0.67904156      -0.00000000
Ge       7.19467492      10.96816495       4.02558951      -0.26774995       0.34315275      -0.04220009       0.00000000
Ge      11.16932788       2.70882428       4.18399723       0.05252251       0.41710328       0.21799095       0.00000000
Ge      11.25580714       6.62567045       4.44162968      -0.69993610      -0.01908774      -0.92754409       0.00000000
Ge      10.97478668      10.98585390       4.09743792       0.25433471      -0.19539288      -0.12123773       0.00000000
Ge       0.84005127       1.97812824       6.92149702       0.31484548      -0.00578515       0.30249755       0.00000000
Ge       0.56343204       5.99173917       6.97759868       0.72229985       0.31949139       0.28815205       0.00000000
Ge       0.86608499      10.20538669       6.89780874       0.39507668      -0.05839135       0.38262052       0.00000000
Ge       5.16566365       1.81013955       7.11369342      -0.36990667       0.53308360      -0.00426440      -0.00000000
Ge       5.01511959       5.92726114       6.98963210      -0.43987856       0.54652575      -0.10308274      -0.00000000
Ge       5.20780951      10.34047101       6.81145612      -0.57575348      -0.25278413       0.45646409       0.00000000
Ge       9.32195584       1.76051167       6.83924003      -0.31833122       0.26320325       0.28974487       0.00000000
Ge       9.09173203       5.94645382       6.95654581      -0.16855325       0.43017586       0.16288998       0.00000000
Ge       3.03009596       7.18162887       4.38389145       0.44880156      -0.73436020      -0.00265353       0.00000000
Ge       2.87892388       2.70067602       3.98090548       0.27488465      -0.43631894       0.70913221       0.00000000
Ge       9.18884001      10.31310796       6.80276630      -0.14482976      -0.41345706       0.65155441       0.00000000
Ge      11.37844557       8.25720524       9.72658487      -0.50820615      -0.02108652      -0.45888095       0.00000000
Ge      11.28068002      12.06685774       9.67184966      -0.51720468       0.59426103       0.12543286       0.00000000
Ge       0.96589520       4.90835581       1.43311725      -0.49825116      -0.32698477       0.03337202      -0.00000000
Ge       1.04242646       8.98482840       1.44308627      -0.29169556      -0.07291788      -0.34967121       0.00000000
Ge       5.36151127       0.59810324       1.45472438      -0.34712830       0.29528982      -0.78759629      -0.00000000
Ge       4.64544835       4.37771989       1.38132919      -0.08995550       0.13793206      -0.01247174      -0.00000000
Ge       9.37114758       0.50142937       1.37805121      -1.18204623      -0.61304624      -0.45298251       0.00000000
Ge       9.26991028       4.95620409       1.45920660       0.08337538       0.02269967       0.19930854       0.00000000
Ge       5.05977758       9.14186631       1.44614010       0.05645137      -0.49963305       0.07209798      -0.00000000
Ge       2.73002520       4.16291140       9.59105363       0.18784605      -0.42191143       0.01252629      -0.00000000
Ge       2.90789578       8.10017976       9.74706426       0.29001362       0.46462769      -0.20870005       0.00000000
Ge       2.96634424      12.27136430       9.77256427      -0.18964512       0.86271950       0.11836842      -0.00000000
Ge       7.17840738       3.90880362       9.69680229       0.07239383       0.37451458      -0.02847228      -0.00000000
Ge       7.12983303       8.27915301       9.62748727       0.07712307      -0.22458170      -0.05027881       0.00000000
Ge       7.00502142      12.30335703       9.71567964       0.09625278       0.02600945      -0.31628099       0.00000000
Ge      11.24556075       3.80497883       9.92459924       0.05345657       0.28539198       0.00985622       0.00000000
Ge       8.93629446       8.67358967       1.30625435       0.03069828      -0.15420739       0.42003505       0.00000000
Se      11.23875997       0.14315642       7.14478388       0.06865876      -0.37631558      -0.06957518      -0.00000000
Se       2.79663887       4.32641296       7.09883052      -0.19913811       0.11423064      -0.01842507      -0.00000000
Se       2.99114275       8.62072194       7.16738118      -0.23677192       0.16576557      -0.15477268      -0.00000000
Se       7.13561496       0.12289148       7.07561966       0.15122019       0.01305622       0.35569542      -0.00000000
Se       6.99319231       4.34927395       7.09926200       0.48736120      -0.28830464       0.27550960      -0.00000000
Se       7.00174626       8.51628133       7.10410804       0.31470519       0.17472197      -0.17882754      -0.00000000
Se      11.09901770       4.38715050       7.34238423       0.10880667      -0.42168408      -0.05550086      -0.00000000
Se       9.13005983       0.23242228       3.87761531      -0.02687898      -0.17075446       0.49241912      -0.00000000
Se       0.81789226       0.19717815       4.01609146      -0.49831589       0.10031785       0.08012622      -0.00000000
Se       0.96599532       4.35349722       3.98256397      -0.81820318       0.19208761      -0.10531481      -0.00000000
Se       1.13149018       8.75064110       3.95337098      -0.79913246      -0.10196898       0.19334537      -0.00000000
Se       5.05319216       0.52927660       3.85559982       0.12332365      -1.13081522       0.92183541      -0.00000000
Se       4.98529400       4.35273364       3.88394591      -0.01061892       0.06387897       0.11824191      -0.00000000
Se       5.19395307       8.60482471       4.04553256      -0.23670163       0.18543747      -0.32306577      -0.00000000
Se       2.93026029       0.42142660       7.29672596       0.02822269      -0.40756728      -0.38215451      -0.00000000
Se      11.24348497       8.57872120       7.06408977       0.10243822       0.04256096       0.38541307      -0.00000000
Se      11.17651533      10.57800567       1.54416871       0.49418995       0.08032496       0.19373892      -0.00000000
Se       2.95005489       2.21161076       1.57851432       0.17663093       0.15994415      -0.82210173      -0.00000000
Se      11.09663155       2.09050024       1.71643803       1.47910155       1.03956537      -0.25154814      -0.00000000
Se       9.28762807       4.58244928       4.05046180       0.63405894      -0.10354777      -0.22472577      -0.00000000
Se       0.75969089       2.17091548       9.48531560       0.12258404       0.37688651       0.03377100      -0.00000000
Se       0.88911955       6.54796145       9.67541189      -0.25743604      -0.57976627      -0.66183634      -0.00000000
Se       0.93746446      10.66217824       9.55227293      -0.08611763      -0.66092273      -0.49345684      -0.00000000
Se       5.08799709       2.43249872       9.61464508      -0.23471643      -0.37069667      -0.18636629      -0.00000000
Se       4.87661129       6.53054756       9.45636157       0.37208612      -0.44282338       0.18699002      -0.00000000
Se       4.88939743      10.72597448       9.49995560       0.78322730      -0.53752748      -0.44625251      -0.00000000
Se       9.25489433       2.29851672       9.44035694      -0.43982298      -0.50259919      -0.19560137      -0.00000000
Se       9.20422295       6.61719705       9.47186981      -0.09742789      -0.04521149       0.10312510      -0.00000000
Se       8.98102697      10.48823283       9.44910779       0.31539448       0.26806602      -0.38259848      -0.00000000
Se       2.92041839       6.39826632       1.68943112       0.54682845       0.45953188       0.13021504      -0.00000000
Se       3.08626521      10.74415504       1.60121967      -0.25255954       0.27486487       0.29092407      -0.00000000
Se       7.34986549       2.33427341       1.56584205      -0.12679869       0.08771164      -0.00885971      -0.00000000
Se       7.21453314       6.49207431       1.48862978      -0.02225624       0.07560689       0.60646189      -0.00000000
Se       7.13778391      10.73399115       1.47954341      -0.01506971      -0.25291101       0.20486196      -0.00000000
Se      11.50300871       6.70608429       1.78581746      -0.31563457      -0.21912190       0.29549893      -0.00000000
Se       9.15621507       8.38971647       3.90523188       0.02192432       0.34402758       0.08395064      -0.00000000
