72
Lattice="12.409921133296072 -8.1305657507e-06 3.0566238074e-06 -8.2000607104e-06 12.515992080976043 8.17201876e-08 3.5137195683e-06 9.31447024e-08 11.08216103470677" Properties=species:S:1:pos:R:3:forces:R:3:magmoms:R:1 energy=-300.82112028 stress="0.0019610145343596317 -0.000779121673474865 -0.000756628728856808 -0.000779121673474865 -0.009234628540898505 0.0010849066123134882 -0.000756628728856808 0.0010849066123134882 -0.010722890539634568" dipole="_JSON [[0.0, 0.0, 0.0]]" magmom=0.0017577 free_energy=-300.82112028 pbc="T T T"
Ge       0.81296699       0.54621571       1.61010466      -0.27116538      -0.32459312      -0.02424064      -0.00000000
Ge       2.73927849      10.94413009       4.04999658      -0.25213206       0.02278866      -0.14731288       0.00000000
Ge       7.09058604       2.64628792       4.24187612      -0.59844307      -0.02898076      -0.30498874       0.00000000
Ge       7.19109393       6.97584332       4.07571077      -0.15638787      -0.15740048      -0.08372171       0.00000000
Ge       6.88410514      10.88728607       4.13274981       0.18270370       0.05224255      -0.43586018       0.00000000
Ge      11.03480779       2.81975513       4.13306077       0.39252095      -0.37387577       0.01510787       0.00000000
Ge      11.07201964       6.74558364       4.19788177       0.14692655       0.07457356      -0.04791222       0.00000000
Ge      11.03120207      10.97327826       4.27410810       0.29018865       0.02845216      -0.43056235       0.00000000
Ge       0.62465244       2.09003273       7.01307980       0.09273415       0.15021342      -0.64886656       0.00000000
Ge       1.10507402       6.02968853       6.76099169      -0.23985507      -0.37934084       0.71968600       0.00000000
Ge       0.85149027      10.40579990       6.76923617      -0.01999447      -0.14321823       0.34788858       0.00000000
Ge       5.21912748       1.79710026       7.00098935       0.09315653       0.36199912       0.07883202       0.00000000
Ge       4.75165423       6.17046641       7.09238704       0.55264193       0.14277753      -0.08431497       0.00000000
Ge       4.76351362      10.33366816       7.01152980       0.40142754       0.22821915       0.19745234       0.00000000
Ge       9.10901347       1.76575108       6.81346528       0.49087003       0.48741599      -0.19227589       0.00000000
Ge       8.80355357       6.35514052       7.09667848       0.12988926      -0.38339572       0.01066148       0.00000000
Ge       2.88772035       6.87558974       4.18670486      -0.24003694       0.00256471       0.42520081       0.00000000
Ge       2.78882908       2.46549903       3.97002906       0.23598942       0.35805011       0.09707092       0.00000000
Ge       9.28375536      10.13255484       7.04093908      -0.25139702       0.33141330      -0.19182888       0.00000000
Ge      11.37529242       8.06338413       9.60152564       0.31192877       0.22510710       0.74761615      -0.00000000
Ge      11.25356212      12.46215832       9.71319729      -0.23942331      -0.29135968       0.34689474      -0.00000000
Ge       0.89358131       4.88152531       1.43614964      -0.32379985      -0.33769781      -0.60182151       0.00000000
Ge       0.75637721       8.95416282       1.33020892      -0.19048237      -0.22336436       0.18314267       0.00000000
Ge       5.07396395       0.57000810       1.48780621      -0.01050056      -0.23575156      -0.08107441       0.00000000
Ge       4.91964967       4.80731874       1.38941728       0.22409533      -0.08417039       0.04726925       0.00000000
Ge       9.16633599       0.56512732       1.51451392      -0.38339992      -0.31149082       0.02309478      -0.00000000
Ge       9.16467161       4.72983032       1.42572321       0.12119427       0.04641296      -0.22843773      -0.00000000
Ge       4.84794967       8.94644771       1.67829438       0.39533138      -0.08962063      -1.28397949       0.00000000
Ge       2.98460207       3.71050837       9.63439531       0.24087930       0.59885278      -0.03992484       0.00000000
Ge       3.04804786       8.37849132       9.68133096      -0.45810860      -0.30050270      -0.23675649       0.00000000
Ge       2.63822571      12.52389531       9.75020116       0.00150783      -0.25760412      -0.24676203       0.00000000
Ge       7.06045888       4.11559827       9.87834410       0.02917410      -0.32370821      -0.48994462       0.00000000
Ge       6.79056866       8.59655417       9.71418278       0.19988537      -0.32987457       0.60720140       0.00000000
Ge       7.37416409      12.48163580       9.78619377      -0.23751273      -0.08335182      -0.00734178       0.00000000
Ge      11.06195164       4.19207571       9.70002294      -0.06320672       0.11196941       0.20957626       0.00000000
Ge       9.26862875       8.87291163       1.47956395      -0.38198394      -0.05946615      -0.15386107       0.00000000
Se      11.28057014       0.18179113       7.23192529      -0.31747481       0.14728413      -0.64640997      -0.00000000
Se       3.07433797       4.29452194       7.04859650      -0.28893781      -0.20543982       0.27108641      -0.00000000
Se       2.83830168       8.58623448       7.07189249       0.17886975       0.28308432       0.35515734      -0.00000000
Se       7.22251016       0.20558250       7.24077607      -0.10714675      -0.51529505      -0.14516376      -0.00000000
Se       6.88434616       4.59842764       7.35679497       0.30921328      -0.14558201      -0.08463558      -0.00000000
Se       7.30724006       8.39470984       7.27087269      -0.08098223       0.32373380      -0.53368878      -0.00000000
Se      11.53774145       4.22296098       7.24826370       0.08632343       0.28083820      -0.63482045      -0.00000000
Se       9.09784464       0.08492603       4.05290004      -0.26750726       0.25363896      -0.12157047      -0.00000000
Se       0.75095842       0.25572165       4.14640272       0.32655278      -0.18563932      -0.30975090      -0.00000000
Se       0.93830793       4.37860117       3.84973216      -0.37438365      -0.37531990       0.78817959      -0.00000000
Se       0.65089655       8.35468675       3.91944314       0.74548835       0.54495908       0.04125189      -0.00000000
Se       4.78487107      -0.00032322       4.01366683       0.43869666       0.46685018      -0.10034222      -0.00000000
Se       4.99457503       4.27641117       3.84627124      -0.14338287      -0.10677529       0.37219253      -0.00000000
Se       5.02709991       8.66304619       4.05487458       0.01702100      -0.45941937       0.90783195      -0.00000000
Se       3.42241145       0.01654041       7.23672413      -0.87115335      -0.00320015       0.07264823      -0.00000000
Se      11.38070721       8.66323495       7.19469577      -0.16892320      -0.49942094      -0.68059461      -0.00000000
Se      11.14068145      10.60447206       1.62107380       0.35391351       0.35154313       0.27244430      -0.00000000
Se       2.86118248       2.12752559       1.44772230       0.27603818       0.34176174       0.12915782      -0.00000000
Se      11.11755505       2.18231216       1.62327705       0.28344823       0.53460062       0.09259523      -0.00000000
Se       8.94924276       4.32839063       3.92674937       0.54185155       0.55480983       0.30687215      -0.00000000
Se       0.98909031       2.10818534       9.44119518       0.26620502      -0.21068020       0.67587680      -0.00000000
Se       1.06360949       6.55682796       9.41434385       0.13268121      -0.18827714      -0.22131715      -0.00000000
Se       0.78815352      10.67888447       9.33092515       0.47687032       0.35589278       0.20160564      -0.00000000
Se       5.22835073       2.25993431       9.57122723      -0.20744769       0.03469480      -0.05506811      -0.00000000
Se       4.96151972       6.58075681       9.60749246      -0.11442338       0.27153379       0.00079429      -0.00000000
Se       5.36264374      10.71748327       9.57575209      -0.48265579      -0.38812825      -0.30442786      -0.00000000
Se       9.37625798       2.21842004       9.29636209      -0.62810731       0.62640653       0.49712091      -0.00000000
Se       9.44304229       6.37795224       9.58653128      -0.08347382      -0.37348578      -0.25389488      -0.00000000
Se       9.18816875      10.72116876       9.50905027       0.55040106      -0.20889610       0.30447637      -0.00000000
Se       2.83552666       6.47825235       1.73789616       0.66145825       0.33506334      -0.60643241      -0.00000000
Se       2.82392703      10.57700770       1.46405530      -0.10654931       0.32486513       0.50013804      -0.00000000
Se       7.08832456       2.27238872       1.68747679      -0.00586201      -0.22726257       0.10743214      -0.00000000
Se       7.18103094       6.35565860       1.55018096      -0.42016872       0.50797406       0.15808362      -0.00000000
Se       7.09284035      10.52251445       1.51536035      -0.18991306       0.11085713       0.59054783      -0.00000000
Se      11.26669961       6.54835428       1.64225715      -0.53659676      -0.51520621      -0.04366015      -0.00000000
Se       9.27363156       8.69314894       4.04366379      -0.46515801      -0.54664821       0.00137790      -0.00000000
