72
Lattice="12.460761079544346 -8.1638743851e-06 3.0691459329e-06 -8.1769055273e-06 12.480649648866358 8.14894277e-08 3.4915645529e-06 9.25573982e-08 11.012284812893316" Properties=species:S:1:pos:R:3:forces:R:3:magmoms:R:1 energy=-298.99736534 stress="0.004412464991824702 0.002344842448221549 0.003909658460046854 0.002344842448221549 -0.0036267499066979275 0.00025000210014299067 0.003909658460046854 0.00025000210014299067 -0.01203111391075917" dipole="_JSON [[0.0, 0.0, 0.0]]" magmom=0.0017881 free_energy=-298.99736534 pbc="T T T"
Ge       0.90650654       0.61892537       1.25594746       0.00894210       0.37451866       0.94327347       0.00000000
Ge       2.95263933      11.07390714       4.03171179       0.12914926      -0.04097044       0.58951019       0.00000000
Ge       7.16530076       2.48732512       4.22689269       0.13685462       0.03407496      -0.21122865      -0.00000000
Ge       6.81153862       6.92762185       4.41030960       0.19958642      -0.05138117      -0.65893260      -0.00000000
Ge       7.09691890      10.98317328       4.20508662      -0.31701209       0.18315473      -0.40978604       0.00000000
Ge      11.10662852       2.52370100       4.15277659       0.30674177       0.42863968      -0.25958332       0.00000000
Ge      11.11841184       6.93306740       3.97403943       0.08672228       0.13992699      -0.06042524       0.00000000
Ge      11.27406827      11.02190424       4.19506091       0.40467597      -0.64441996       0.16233741       0.00000000
Ge       0.92669771       1.95207059       6.88350324      -0.10385142       0.09418798       0.35981447       0.00000000
Ge       1.03860406       6.08733787       6.96498085      -0.53887294       0.24880136       0.00347248       0.00000000
Ge       0.92224691      10.24918947       7.12280292       0.07026036      -0.03093253      -0.44192456       0.00000000
Ge       4.97540093       1.80448143       6.88062756       0.20718387       0.15069997       0.11164105      -0.00000000
Ge       4.82263899       5.99282300       6.89452765       0.38493861      -0.11865241       0.22337235      -0.00000000
Ge       4.89676809      10.04814729       6.77368708       0.42325432       0.04329454       0.22538070       0.00000000
Ge       9.05143459       1.79021634       6.92084754       0.01277205       0.19595035       0.31924341      -0.00000000
Ge       9.28475472       6.24994770       6.97326705      -0.21430748      -0.21002943       0.35747918      -0.00000000
Ge       2.82564977       6.81692178       3.88643477      -0.13075687      -0.03469825       0.79560156      -0.00000000
Ge       2.91312647       2.77766161       4.19881908      -0.05893838      -0.15294072       1.03691783       0.00000000
Ge       9.34826334      10.20507569       6.82480153      -0.42540389       0.24356397       0.10293606       0.00000000
Ge      11.19564041       8.30423683       9.76566321       0.02589567      -0.57517166      -0.73730515       0.00000000
Ge      11.68165161      12.57819985       9.60334555      -0.29859746      -0.03071898      -0.33463446       0.00000000
Ge       0.85882433       4.64801080       1.54574090       0.15154716       0.33323728       0.32960983       0.00000000
Ge       0.73214290       8.40315166       1.34868620      -0.03973164      -0.06499014      -0.47634653       0.00000000
Ge       4.61568117       0.39587852       1.54096545       0.30744582       0.38883631      -0.18159941       0.00000000
Ge       5.39875391       4.29698140       1.60712610      -0.36229251       0.03529670      -0.01387095      -0.00000000
Ge       9.40183680       0.56376979       1.49644365      -0.34916803      -0.47826123      -0.22172301       0.00000000
Ge       8.94979458       4.59699144       1.61986479      -0.10725190      -0.10718642      -0.42857922       0.00000000
Ge       5.08358463       9.02749346       1.40943536      -0.15439853      -0.52532321      -0.73017704      -0.00000000
Ge       3.69682954       4.10137890       9.80288017      -0.53019519       0.11095692       0.48835355      -0.00000000
Ge       3.11244052       8.22768585       9.66047468       0.24825072      -0.20210441      -0.19090128       0.00000000
Ge       3.07222500      12.27948754       9.52769988       0.27675356       0.33724562       0.53079562       0.00000000
Ge       7.29320407       3.89812332       9.40573485      -0.35054853       0.40582388       0.32246546      -0.00000000
Ge       7.27678246       8.17090878       9.58532989       0.12038378       0.00990915       0.20403345       0.00000000
Ge       7.21842421      12.44105125       9.61473498       0.17149974      -0.29282125       0.01124397       0.00000000
Ge      11.66065421       4.28226662       9.63749686      -0.29415616      -0.06695454      -0.13276321       0.00000000
Ge       8.89953658       9.15513074       1.25739577       0.13812912       0.23831546       0.24044405      -0.00000000
Se      11.21575556       0.26843653       6.99902259       0.20888725      -0.36618372       0.48170681      -0.00000000
Se       2.76049308       4.30530188       7.38959721       0.60839073      -0.28209945      -0.32696393      -0.00000000
Se       2.93962831       8.35867556       7.06552872      -0.24597647       0.24160334       0.07655925      -0.00000000
Se       6.98050639       0.08564321       7.09810693       0.07465029       0.12561735      -0.29923032      -0.00000000
Se       7.02056590       4.39852695       6.94471857       0.28823013      -0.02110143       0.05016868      -0.00000000
Se       7.03938122       8.40543982       7.08244199      -0.08819997       0.26157092      -0.45249112      -0.00000000
Se      11.23027827       4.56856177       7.12044072       0.32571579      -0.46141472       0.09726263      -0.00000000
Se       9.22162106      -0.00899171       4.01354484      -0.47591570       1.11813750       0.08850942      -0.00000000
Se       0.98260074       0.20836695       4.03130823      -0.32242515       0.14992444      -0.79627411      -0.00000000
Se       0.77066749       4.36617806       4.18307633      -0.15366167       0.03426131      -0.60659600      -0.00000000
Se       0.89447695       8.63603374       3.75976156      -0.24317696      -0.14425607       0.92393769      -0.00000000
Se       5.21182443       0.53210359       3.99984956      -0.51008950      -0.89241838       0.38987716      -0.00000000
Se       5.27321815       4.21718739       4.19068771      -0.66047565       0.49457683      -0.33878461      -0.00000000
Se       4.82281104       8.51562967       3.82159910       0.49749116      -0.04662552       0.92674876      -0.00000000
Se       2.83870525       0.23088354       7.09173564       0.19957813      -0.20261787      -0.49550286      -0.00000000
Se      11.27863793       8.57759158       6.94493940       0.06168715      -0.28175135       0.87476764      -0.00000000
Se      11.04848244      10.63160664       1.69588076       0.37837336       0.12368135      -0.85489368      -0.00000000
Se       2.87118335       2.50775485       1.81795900      -0.25478511      -0.64996984      -1.32985128      -0.00000000
Se      11.26312318       2.25353784       1.51577460       0.37857167       0.19436695       0.43245873      -0.00000000
Se       9.21672005       4.33416193       4.07412105       0.15865751      -0.00017368       0.23154041      -0.00000000
Se       0.84229803       2.21659265       9.54173697       0.00859840       0.07345699      -0.32508479      -0.00000000
Se       0.85378464       6.63300263       9.49520337      -0.39818029      -0.19781552       0.09894399      -0.00000000
Se       1.12098442      10.64289847       9.58552240      -0.85624319      -0.21828060       0.10100232      -0.00000000
Se       5.26041071       2.11980649       9.44957415      -0.24232497       0.28252944      -0.05905044      -0.00000000
Se       5.08861738       6.33829178       9.44528375      -0.23718943       0.32163028      -0.09377851      -0.00000000
Se       4.88689116      10.51944815       9.33338239       0.29686820       0.03281939      -0.07554740      -0.00000000
Se       9.13320662       2.23263906       9.50669076       0.33116514      -0.45790859      -0.48018249      -0.00000000
Se       9.16483446       6.31373196       9.56962637       0.11505909       0.76086622      -0.34831420      -0.00000000
Se       8.99978656      10.52826418       9.32725496       0.30924377      -0.05200319       0.22470694      -0.00000000
Se       2.89916582       6.49191168       1.50626999      -0.49682557      -0.44287820      -0.74076500      -0.00000000
Se       3.08309384      10.60046646       1.59658792      -0.55754622       0.34981832      -0.37355861      -0.00000000
Se       7.08381674       2.30385558       1.62479898       0.39820146      -0.03997143      -0.00637970      -0.00000000
Se       6.95239831       6.23533638       1.68503098       0.56240551       0.61350261       0.36265535      -0.00000000
Se       6.68041148      10.92984858       1.55949754       1.39278122      -0.25972231       0.30168621      -0.00000000
Se      11.22590900       6.36900941       1.47990261       0.29369302       0.31101717       0.14845496      -0.00000000
Se       9.22586339       8.80843479       3.75245505      -0.68073735      -0.84106631       0.32411669      -0.00000000
