72
Lattice="12.428922387404805 -8.1430147376e-06 3.0613039085e-06 -8.1894021965e-06 12.49972367996107 8.1613967e-08 3.5059555256e-06 9.29388865e-08 11.057673488276258" Properties=species:S:1:pos:R:3:forces:R:3:magmoms:R:1 energy=-300.30473645 stress="0.007539243784476524 0.0011875778895400046 0.0008153187751221493 0.0011875778895400046 -0.003036151168883665 -0.000993107962844642 0.0008153187751221493 -0.000993107962844642 -0.012309733735942428" dipole="_JSON [[0.0, 0.0, 0.0]]" magmom=0.0016652 free_energy=-300.30473645 pbc="T T T"
Ge       0.57018005       0.29354559       1.54894832       0.04901981       0.06804346       0.07926642      -0.00000000
Ge       2.78326063      10.85267246       4.20648836      -0.48137334      -0.09588683      -0.39501912      -0.00000000
Ge       6.81403480       2.45590263       4.15748973       0.14808687       0.05680900      -0.08438838       0.00000000
Ge       7.04077822       6.58678878       4.03515119       0.10168478       0.51331665       0.46985753       0.00000000
Ge       6.95674378      11.15922885       3.89347128       0.87808069      -0.88908394       0.35322079      -0.00000000
Ge      11.30872511       2.88554941       4.38395223       0.12994036      -0.60686450      -0.28051224      -0.00000000
Ge      11.01308502       6.53177835       4.26293397      -0.00500244       0.06502781       0.69945666       0.00000000
Ge      11.16574739      10.94156138       4.05825365      -0.24819661      -0.37851272       0.17186310      -0.00000000
Ge       0.86654587       1.95455528       7.05368721      -0.03342531      -0.38867158      -0.25705357       0.00000000
Ge       0.77816780       6.03296815       7.04100884      -0.45103170       0.28611508      -0.29123080      -0.00000000
Ge       0.93900875      10.16433167       6.99937205      -0.35408696       0.40479465      -0.25346156      -0.00000000
Ge       4.94957758       1.94137902       7.20899486       0.22059799      -0.05267992      -0.30272702       0.00000000
Ge       4.90190674       6.10473899       6.98717431       0.13422797      -0.34637049       0.31859728       0.00000000
Ge       5.01530648      10.28767960       6.89873286      -0.02770657       0.12141932      -0.37348947       0.00000000
Ge       9.39650746       1.85485216       6.82586481      -0.05524942      -0.05622664      -0.04979266       0.00000000
Ge       8.97096424       6.05248166       7.07504019       0.19316858      -0.12551252      -0.22763953       0.00000000
Ge       3.19584637       7.08722641       4.40004755      -0.47347742       0.03636339      -0.41818004       0.00000000
Ge       3.04075419       2.67040725       3.94137912      -0.27789749       0.15043014      -0.33610503       0.00000000
Ge       9.00095933      10.18891451       7.14214591       0.19269235       0.55290173      -0.80072436      -0.00000000
Ge      11.36742524       8.33831802       9.42749759      -0.01771624      -0.08506819       0.67334832      -0.00000000
Ge      11.03328336      12.26890116       9.60519931       0.44750454       0.14636931      -0.11666062      -0.00000000
Ge       0.88105810       4.86876649       1.40142332       0.23566745       0.01485183       0.14320673       0.00000000
Ge       0.86867106       8.82439213       1.38510445       0.02117859       0.47117717       0.42457024      -0.00000000
Ge       5.06199068       0.65773866       1.38228790      -0.22209826       0.05323891       0.36369008       0.00000000
Ge       4.77448342       4.56078358       1.36742471      -0.05404116       0.08447140       0.01193635       0.00000000
Ge       9.14593431       0.65213186       1.35758136       0.31072000       0.17363948       0.75567777      -0.00000000
Ge       9.23203204       4.97511096       1.45133759       0.06117786      -0.25336681      -0.39339523       0.00000000
Ge       5.00481537       8.89316873       1.39491548      -0.15327541       0.52343752      -0.27278031       0.00000000
Ge       2.71472597       3.98860529       9.55405271       0.22214984       0.17755843       0.09560338       0.00000000
Ge       2.92642401       8.28575086       9.73714105       0.05095402      -0.39027723      -0.40735341      -0.00000000
Ge       3.11419056      12.41542931       9.75070282      -0.14894424      -0.62178252      -0.53128344       0.00000000
Ge       7.12606478       4.00336481       9.84571885       0.00184841      -0.09932113      -0.74825517       0.00000000
Ge       7.07861827       8.03568848       9.67497518      -0.36370468       0.21373733      -0.10113505       0.00000000
Ge       7.09258966      12.34758267       9.54182486      -0.14574759      -0.05228190       0.60944049       0.00000000
Ge      11.31854328       3.77215199       9.88150381      -0.40622060       0.18203612      -0.11552460       0.00000000
Ge       8.81123108       8.59717751       1.40296563       0.17641676       0.31455502      -0.03356644      -0.00000000
Se      11.36869769       0.08749027       7.05840911      -0.37097304       0.22761811       0.18178277      -0.00000000
Se       2.67997487       4.36871735       7.01201844       0.83133162      -0.30185375       0.05140484      -0.00000000
Se       2.98170839       8.58380452       7.07024977       0.19032641      -0.38545423       0.50596164      -0.00000000
Se       7.12155958       0.33154992       7.14532517      -0.14799381      -0.14059373      -0.68261685      -0.00000000
Se       6.99720795       4.30675163       7.17270302       0.01668736       0.28888871       0.35866759      -0.00000000
Se       7.03058281       8.57279111       7.12219823      -0.17488936      -0.55787771       0.09771740      -0.00000000
Se      11.11777873       4.36925171       7.34239033       0.21351861       0.08137108      -0.11816391      -0.00000000
Se       9.15129925       0.14237574       4.01649966       0.03494833       0.29241752      -0.67864535      -0.00000000
Se       0.73658909       0.09150275       4.08582274       0.68527395       0.33446048      -0.10901092      -0.00000000
Se       0.91223481       4.37222677       3.91300088       0.51611196       0.07691712       0.18786938      -0.00000000
Se       1.01077037       8.72807585       3.96733346       0.71873707      -0.12040334      -0.02866278      -0.00000000
Se       5.07651976       0.21948222       4.06678373      -0.29760511       1.24308044      -0.58615725      -0.00000000
Se       5.16342852       4.51064450       3.88703502      -0.38807795      -0.81210163       0.27452543      -0.00000000
Se       5.23828662       8.63149207       3.86570273      -0.07820771      -0.21839099       0.57165977      -0.00000000
Se       2.93382490       0.16956330       7.15506412       0.03472776       0.37562072       0.32173955      -0.00000000
Se      11.07052459       8.60885354       7.02802974       0.52174637      -0.19061930      -0.49476244      -0.00000000
Se      11.32355934      10.63168343       1.53042036       0.03608138      -0.11734923      -0.17383823      -0.00000000
Se       3.02845366       2.44691421       1.34084945       0.23420128      -0.30189504       0.89934994      -0.00000000
Se      11.37513711       2.31579362       1.84432958      -0.46153351      -0.41280779      -0.35521887      -0.00000000
Se       9.31541901       4.41438270       3.89524284      -0.21254722       0.40560334       0.38105872      -0.00000000
Se       0.84704179       2.12235973       9.56353431       0.10894973       0.09949928       0.11828670      -0.00000000
Se       0.91702694       6.47509128       9.52505206       0.01027057       0.30873537       0.25968599      -0.00000000
Se       0.85434695      10.58621526       9.47004221       0.19507880       0.09724125       0.42226017      -0.00000000
Se       5.01586119       2.37951762       9.69767596      -0.16880380      -0.16246291      -0.16088447      -0.00000000
Se       5.00343679       6.28952909       9.53015095      -0.11762297       0.49383367      -0.15824135      -0.00000000
Se       5.01523007      10.52289321       9.35486018      -0.04636935       0.60518385       0.67151927      -0.00000000
Se       9.23508555       2.17278276       9.37149527      -0.04533025       0.23660849       0.55571908      -0.00000000
Se       9.22131534       6.67214551       9.49139085      -0.12041688      -0.58406691       0.32888837      -0.00000000
Se       9.08664637      10.61293178       9.57739555      -0.09900251      -0.16314423       0.35010146      -0.00000000
Se       3.08813325       6.46590663       1.81635890      -0.36486138      -0.07465003      -0.23317358      -0.00000000
Se       3.14459705      10.82517496       1.62980767       0.00392568      -0.38581134       0.02363681      -0.00000000
Se       7.29738736       2.45447750       1.62202859      -0.23412055      -0.18169487      -0.02643813      -0.00000000
Se       7.06847255       6.49067849       1.55838411       0.28162895      -0.16541597      -0.46637204      -0.00000000
Se       7.14865745      10.68865122       1.38029489      -0.18524381      -0.31095518       0.21572809      -0.00000000
Se      11.60716531       6.73065659       1.88443782      -0.54062421      -0.37816522      -1.12736315      -0.00000000
Se       9.18514809       8.25920184       3.89295756      -0.23524388       0.63024708       0.24252930      -0.00000000
72
Lattice="12.43327939414745 -8.1458693029e-06 3.0623770604e-06 -8.1879206188e-06 12.497462304635043 8.15992019e-08 3.5039006117e-06 9.28844131e-08 11.051192354203602" Properties=species:S:1:pos:R:3:forces:R:3:magmoms:R:1 energy=-300.25499176 stress="0.00566785371981381 -0.0016059484744667173 0.0019976257601374186 -0.0016059484744667173 -0.0014660889002531625 -0.0009178703714111768 0.0019976257601374186 -0.0009178703714111768 -0.008272293527402844" dipole="_JSON [[0.0, 0.0, 0.0]]" magmom=0.0019031 free_energy=-300.25499176 pbc="T T T"
Ge       0.73993577       0.41643279       1.57150897       0.00669705       0.24153054      -0.37044683       0.00000000
Ge       2.86064394      10.85027365       4.09527146       0.27863945      -0.12946182      -0.14101361       0.00000000
Ge       7.13145291       2.61899533       4.12990587      -0.28105810      -0.12553480       0.47085341       0.00000000
Ge       7.03202633       6.87751136       4.14534572       0.34912873      -0.30305716      -0.22351295       0.00000000
Ge       7.14437219      10.94484207       4.09523639      -0.10662299       0.36957029       0.06531684       0.00000000
Ge      11.57876242       2.72178944       4.20507268      -0.47155256       0.27680272       0.22329453      -0.00000000
Ge      10.82128459       6.57128166       4.13596093       0.03686815       0.26392450      -0.63895810       0.00000000
Ge      11.23528717      10.76841180       4.00754915      -0.17780382       0.26987565       0.45902952       0.00000000
Ge       0.86851209       1.70482941       7.10345593      -0.02563562       0.39929259       0.01607724       0.00000000
Ge       0.73335234       6.19287988       6.85520924       0.12813595       0.11905240       0.59073922       0.00000000
Ge       0.73056355      10.29536893       7.05386827       0.45433566      -0.00662351       0.24024859       0.00000000
Ge       4.88994071       2.08328896       7.01969401       0.15067065      -0.15918479      -0.50628675      -0.00000000
Ge       4.88816592       6.01545745       7.08706602       0.49713731       0.42697248      -0.39208286       0.00000000
Ge       4.77770645      10.23243516       6.86600078       0.35392197      -0.10359194       0.22943991      -0.00000000
Ge       9.12506547       1.93467701       6.97189345      -0.12200240       0.21172301      -0.20180828       0.00000000
Ge       9.09103956       6.14005639       7.16244097      -0.14576263      -0.13059009      -0.30823414       0.00000000
Ge       3.03405125       6.79957107       4.11021247       0.26658564       0.06807586      -0.05194411       0.00000000
Ge       2.94954381       2.58645177       4.13544877       0.20627977      -0.03509088      -0.55005611      -0.00000000
Ge       8.86748823      10.37064968       7.10487134       0.03147021      -0.20223903       0.03769789       0.00000000
Ge      11.24362298       8.23445498       9.46671194      -0.03210969       0.03187159       0.02920910       0.00000000
Ge      11.07912512      12.62443011       9.58239841       0.06835815      -0.51648862       0.13367544       0.00000000
Ge       0.82778496       4.75404924       1.51684032       0.04107165       0.07603389      -0.37148887       0.00000000
Ge       0.84289833       8.85751395       1.56257262      -0.05600710       0.10279259      -0.24828465       0.00000000
Ge       4.77352016       0.51308116       1.52503556      -0.01864569       0.40979399      -0.63383355      -0.00000000
Ge       5.01507596       4.83139463       1.53910429      -0.21873999      -0.35538613       0.23021418      -0.00000000
Ge       9.14893281       0.91551214       1.50787519      -0.05825688      -0.60377526       0.22567405       0.00000000
Ge       9.16437640       4.64105736       1.23340495       0.02361736      -0.01627296       0.61157717       0.00000000
Ge       4.90516747       8.96767130       1.26381820       0.18471979      -0.25038318       0.43937737       0.00000000
Ge       2.95216332       3.97846883       9.57072938      -0.23741788      -0.19960340       0.18894795      -0.00000000
Ge       2.94234829       8.12579921       9.71637690      -0.03127056       0.45204228      -0.39510545       0.00000000
Ge       2.99567221      12.11080634       9.57518787      -0.01050626       0.65398717      -0.15592930       0.00000000
Ge       7.02508375       3.95390800       9.72468898      -0.25585283       0.02193892      -0.66760469       0.00000000
Ge       6.89849517       8.04995054       9.68034452       0.14242812      -0.04081574      -0.25489372       0.00000000
Ge       7.07320338      12.43495480       9.59382987       0.14138994      -0.01063890      -0.12915521      -0.00000000
Ge      11.10840972       3.97686261       9.65587328       0.62893185       0.25569416       0.31109866       0.00000000
Ge       8.90730930       8.74437823       1.46333641       0.13569085      -0.04871951       0.53487888       0.00000000
Se      11.14802178       0.15255005       7.07235882       0.31490449      -0.07219870       0.04288128      -0.00000000
Se       3.10254083       4.28528764       7.06643859      -0.84294043      -0.16160801      -0.09526532      -0.00000000
Se       3.02259291       8.41238898       7.06104597      -0.23776551       0.39637795       0.45584537      -0.00000000
Se       7.12578100       0.34546500       7.01621714       0.03577645      -0.37238411       0.33691570      -0.00000000
Se       7.07460709       4.41992221       7.08992258       0.22201098      -0.25335871       0.59575514      -0.00000000
Se       7.08026729       8.37514073       7.12462317       0.10592625       0.38459936       0.28623860      -0.00000000
Se      11.37746454       4.43839019       7.21064926      -0.36013490      -0.16908354      -0.47402291      -0.00000000
Se       9.30445664       0.07795691       4.05501868      -0.26084865       0.18284052      -0.41887847      -0.00000000
Se       1.08118820       0.14613150       4.03217526      -0.49128546       0.21491955       0.23957412      -0.00000000
Se       1.10399282       4.49084712       4.00276593      -0.47051710      -0.10188826       0.33692158      -0.00000000
Se       1.20159431       8.59452396       4.03389249      -0.36718439       0.34782792       0.16002204      -0.00000000
Se       5.20371924       0.48964565       3.90500605      -0.07280543      -0.67726106       0.75030386      -0.00000000
Se       5.09314429       4.21976769       4.11260937      -0.05212010       0.70471288      -0.28984105      -0.00000000
Se       5.15062965       8.47287272       3.96100476      -0.56283690       0.32532064      -0.45536919      -0.00000000
Se       3.06553907       0.14996393       6.93905069      -0.17342944      -0.16907832       0.53296268      -0.00000000
Se      11.33075565       8.56806475       6.90805453      -0.39040078      -0.29160708       0.42648568      -0.00000000
Se      11.32718275      10.66594698       1.57945372       0.20105981      -0.24157467      -0.45825816      -0.00000000
Se       2.97183646       2.52757410       1.50527249       0.11289872      -0.67495202       0.48589475      -0.00000000
Se      11.28899169       2.39305974       1.72537533       0.39636916      -0.22149548      -0.20788251      -0.00000000
Se       9.35052412       4.44096476       3.93797028       0.19586340      -0.15874097      -0.10641419      -0.00000000
Se       0.91095839       2.21259323       9.62445657      -0.03985583       0.02866599      -0.32531100      -0.00000000
Se       0.91371942       6.65670418       9.51738696      -0.18872615      -0.68939413      -0.39303621      -0.00000000
Se       0.96503996      10.57818037       9.62334226      -0.43112288      -0.15601484      -0.43500370      -0.00000000
Se       4.92747950       2.19037665       9.46781361       0.42190185       0.27681090       0.71778211      -0.00000000
Se       4.90076491       6.33940405       9.59964812       0.38140012      -0.07762540       0.21871441      -0.00000000
Se       5.19637763      10.69303298       9.48615274      -0.18663956      -0.60049708      -0.32884110      -0.00000000
Se       9.20242531       2.29488660       9.55806796      -0.18796173      -0.28467664      -0.11256886      -0.00000000
Se       9.14779693       6.26266607       9.64321306       0.07952359       0.63838803      -0.15462958      -0.00000000
Se       9.19171628      10.70479543       9.61075806      -0.13407397       0.04260166      -0.13021272      -0.00000000
Se       2.94755705       6.50425757       1.57060024       0.19334846      -0.17246324       0.05647368      -0.00000000
Se       3.01464892      10.68862142       1.47458590      -0.09726117       0.16108646       0.30893722      -0.00000000
Se       7.07894088       2.44778445       1.69294343       0.44733532      -0.08788820      -0.82058695      -0.00000000
Se       7.30781731       6.42368223       1.48099126      -0.35226796       0.39247436       0.55531305      -0.00000000
Se       7.00587309      10.46519566       1.60429713       0.11769508       0.53501081      -0.28356115      -0.00000000
Se      11.12521165       6.39738146       1.42538790       0.50303841       0.44657708       0.92589644      -0.00000000
Se       9.06349574       8.76846173       4.16937119       0.29429296      -0.85794057      -0.73994538      -0.00000000
72
Lattice="12.419322283706045 -8.1367250704e-06 3.0589393564e-06 -8.1952835315e-06 12.508700533346817 8.16725792e-08 3.5091198635e-06 9.30227695e-08 11.067653710268008" Properties=species:S:1:pos:R:3:forces:R:3:magmoms:R:1 energy=-300.84552939 stress="0.005972292908145274 0.0013167408964853123 -0.001088809771252905 0.0013167408964853123 -0.004153957031701558 -0.00041517809669938736 -0.001088809771252905 -0.00041517809669938736 -0.008534989983296604" dipole="_JSON [[0.0, 0.0, 0.0]]" magmom=0.0019635 free_energy=-300.84552939 pbc="T T T"
Ge       0.73829529       0.59003493       1.40396429      -0.21438841      -0.10251398      -0.01030410       0.00000000
Ge       2.95099276      11.22181824       4.23149614       0.27116784      -0.50448568      -0.30643275       0.00000000
Ge       6.93637157       2.64799927       4.03997356       0.16966355       0.15042081       0.39840439       0.00000000
Ge       7.01249398       7.01786433       4.19198831      -0.07116185      -0.47944437      -0.54391136      -0.00000000
Ge       7.14452485      11.06903583       4.39935704       0.21210848      -0.12042177      -0.66299007       0.00000000
Ge      11.22520280       2.61189554       3.88093620      -0.29731306       0.16478531       0.52723443       0.00000000
Ge      11.09206990       7.02918095       4.02527741       0.59305569      -0.77343326      -0.19880297       0.00000000
Ge      11.17261639      10.92208955       4.14194388      -0.19251939      -0.00420507      -0.32067932       0.00000000
Ge       0.78344535       1.91078194       7.04190323       0.58706848       0.35319210      -0.29146088       0.00000000
Ge       0.89049958       6.11044807       6.95105926       0.08375743      -0.16679335       0.62305607       0.00000000
Ge       0.99839481      10.40077773       6.97747358      -0.03095844      -0.32843363       0.45369110       0.00000000
Ge       5.07712836       1.97427603       6.84591217      -0.34386301       0.09255207       0.25762952       0.00000000
Ge       5.02861713       6.17623051       6.98233728       0.06484009      -0.28633034      -0.24761270       0.00000000
Ge       4.94047773      10.21648695       7.04433706      -0.02172574       0.16812552       0.36926650       0.00000000
Ge       9.02546988       1.92406463       7.07005790      -0.00073619       0.28496065       0.16361375       0.00000000
Ge       9.27543331       6.08618099       7.04844917      -0.36863026       0.04386679      -0.44581158       0.00000000
Ge       2.88033779       6.70353776       4.09625463       0.12218619       0.05693349       0.21603374       0.00000000
Ge       2.52193729       2.36908558       4.27414379       0.46576915       0.35249192       0.03302422       0.00000000
Ge       9.38442075      10.00682298       6.87171256      -0.43546481       0.77441673       0.31689034       0.00000000
Ge      11.04030237       8.03485491       9.81486123       0.28943688      -0.09534341      -0.14250910       0.00000000
Ge      11.18868459      12.33920633       9.68447572       0.21143591       0.27263201       0.08885877       0.00000000
Ge       0.73911317       4.76400845       1.52911225      -0.01937795      -0.22214358      -0.15313086       0.00000000
Ge       0.96197881       8.96490976       1.54333551      -0.05225934       0.20600924      -0.58443506       0.00000000
Ge       5.04650345       0.66592500       1.40359552      -0.03477938      -0.28703840      -0.04735267       0.00000000
Ge       4.55823737       4.46727539       1.52764700       0.35855453       0.13834498      -0.26373553      -0.00000000
Ge       8.91592134       0.49154497       1.36903391       0.32167652      -0.14908103      -0.08656173       0.00000000
Ge       9.09581468       4.66884505       1.62205209      -0.03806606       0.53038431      -0.43552554      -0.00000000
Ge       4.83725694       8.80951737       1.47622359       0.29898040       0.44090279      -0.09141155      -0.00000000
Ge       3.12462110       3.91108704       9.68304598      -0.29468732       0.38162008      -0.10096669      -0.00000000
Ge       2.88218290       8.14593985       9.68745747       0.00332263      -0.10551852      -0.25617795       0.00000000
Ge       2.70701376      12.57707771       9.66631757       0.40894752      -0.07944196      -0.07801783       0.00000000
Ge       6.97192355       4.08767542       9.66899788       0.21049347       0.00780609      -0.51342849      -0.00000000
Ge       7.02053166       8.20872450       9.46884287       0.19587024       0.35410453       0.37181735       0.00000000
Ge       7.16869277      12.23708764       9.64739542      -0.30559476      -0.27499233       0.32369089       0.00000000
Ge      10.96521779       4.03325305       9.60685683       0.21163686       0.09939983       0.51738911       0.00000000
Ge       9.06979251       8.79206875       1.53674185      -0.13035543      -0.19380555      -0.10643700       0.00000000
Se      11.32394257       0.31908025       7.17496408      -0.50204227      -0.58967007      -0.08339369      -0.00000000
Se       3.02597194       4.45957228       7.17285849       0.03340736       0.01825731       0.02741770      -0.00000000
Se       2.98347372       8.41894830       7.10668679      -0.20262494       0.46479921       0.29435149      -0.00000000
Se       6.95926221       0.30541197       7.18905098       0.57724466      -0.56303667      -0.36893281      -0.00000000
Se       7.16791154       4.42626895       6.97934268      -0.01856565      -0.19069322       0.54289068      -0.00000000
Se       7.16295181       8.60218942       6.98566128      -0.03543714      -0.21874257      -0.07675797      -0.00000000
Se      11.23139697       4.37624085       7.16720888       0.17828118      -0.19083848      -0.52969917      -0.00000000
Se       9.26929545       0.16186947       3.86993973      -0.23199963       0.10145672       0.39177489      -0.00000000
Se       0.84860831       0.19075129       3.97710631       0.03495979       0.42661688      -0.10252885      -0.00000000
Se       0.86784586       4.31431885       4.09709563      -0.16731647       0.14862781      -0.15048195      -0.00000000
Se       0.99712089       8.49976011       3.95663968      -0.22389498       0.23934986       0.63658885      -0.00000000
Se       5.25205724       0.21479491       3.92596189      -0.35281476       0.30189882       0.18569274      -0.00000000
Se       4.92121880       4.20912044       3.97149896       0.09415365       0.33015021       0.32138223      -0.00000000
Se       4.92635208       8.53447828       3.96822362       0.05984484       0.01461135       0.22255265      -0.00000000
Se       3.03578266       0.12636166       7.10421347      -0.16837704       0.26509162       0.05367664      -0.00000000
Se      11.33657524       8.54133222       7.20942066       0.49783320      -0.40291907       0.04542813      -0.00000000
Se      11.40305931      10.65518960       1.60262480      -0.02620297      -0.02571899       0.21254732      -0.00000000
Se       3.00634951       2.27267227       1.69768490      -0.23901425      -0.10174186      -0.10042238      -0.00000000
Se      11.24626302       2.42905336       1.41009974       0.03346335      -0.48530040      -0.10814688      -0.00000000
Se       9.24768641       4.40742950       4.05902075       0.06116603      -0.09729250       0.17721398      -0.00000000
Se       0.97034071       2.40194913       9.48809050       0.02890518      -0.26887382       0.31067703      -0.00000000
Se       0.88480610       6.42678986       9.58120390      -0.07188343       0.21409807      -0.46704612      -0.00000000
Se       0.94565898      10.74527449       9.59163760      -0.15886541      -0.35829756      -0.46433210      -0.00000000
Se       5.12059633       2.29796536       9.42249600      -0.20508941      -0.16750181      -0.02282215      -0.00000000
Se       5.26933452       6.41327243       9.46047490      -0.82183831       0.01251107       0.31962790      -0.00000000
Se       4.99057697      10.54334665       9.61770016       0.34547399       0.26594505      -0.39114771      -0.00000000
Se       9.08061853       2.25253503       9.64155553       0.00022890       0.04687515      -0.52308858      -0.00000000
Se       9.00046818       6.34982024       9.51738240       0.58708268       0.16166400       0.27971333      -0.00000000
Se       9.33425895      10.63555569       9.54300213      -0.48888110      -0.25779557      -0.44667759      -0.00000000
Se       2.84029723       6.38956954       1.61091143       0.23757741       0.02912022      -0.23004149      -0.00000000
Se       3.05853737      10.79784461       1.67437850      -0.02204536      -0.31814180       0.09511005      -0.00000000
Se       7.19262480       2.38172267       1.55992894      -0.25416730      -0.04602520      -0.27517973      -0.00000000
Se       7.21549520       6.54908696       1.55024945       0.16663955       0.06733408       0.61172877      -0.00000000
Se       7.19504781      10.46868687       1.71545233      -0.50877229       0.35179120       0.20278770      -0.00000000
Se      11.31151806       6.53138895       1.35499497      -0.27172471      -0.02048725       0.91107981      -0.00000000
Se       9.23912351       8.69202947       4.11826949      -0.19279480       0.14335520      -0.27444717      -0.00000000
72
Lattice="12.416900214834339 -8.1351382118e-06 3.0583427891e-06 -8.1966631093e-06 12.510806223238776 8.16863278e-08 3.5100101663e-06 9.30463704e-08 11.070461697604198" Properties=species:S:1:pos:R:3:forces:R:3:magmoms:R:1 energy=-300.7173417 stress="0.005833313280612815 -0.0001831143746520958 0.0014896328338683995 -0.0001831143746520958 -0.0018610571152331223 -0.0010810673726690295 0.0014896328338683995 -0.0010810673726690295 -0.0096252194606983" dipole="_JSON [[0.0, 0.0, 0.0]]" magmom=0.0018677 free_energy=-300.7173417 pbc="T T T"
Ge       0.69907792       0.66308379       1.37080127       0.05859228      -0.20502337       0.19045959       0.00000000
Ge       3.25869861      11.05690215       4.11044659      -0.53405839      -0.12132248       0.26100688      -0.00000000
Ge       7.03644320       2.74281983       4.17004002      -0.59498226      -0.71452041      -0.34750629       0.00000000
Ge       6.88062353       6.75435655       4.10252319       0.12656617       0.10428678       0.65785180       0.00000000
Ge       7.28454164      10.95105110       4.20437699      -0.13788995       0.06928289       0.43958973      -0.00000000
Ge      11.11570742       2.54327821       4.02989427       0.03507010       0.12828343      -0.18559959      -0.00000000
Ge      11.42224149       6.83940247       3.92367943      -0.44504688      -0.02808058       0.89730846       0.00000000
Ge      11.33302494      11.01394762       4.05327588      -0.12272759      -0.16482595       0.31865173      -0.00000000
Ge       0.92772471       2.06304566       7.05150410      -0.36960722      -0.48179956       0.24676712      -0.00000000
Ge       1.02576287       5.99602622       7.11686555      -0.22043083       0.41639882      -0.68435864      -0.00000000
Ge       0.92091466      10.26082073       7.15990683      -0.29939511      -0.04810011      -0.54689486      -0.00000000
Ge       4.84640080       1.91538305       6.87900310       0.45493957      -0.33500398       0.13397769       0.00000000