72
Lattice="12.409358016267612 -8.1301968152e-06 3.056485109e-06 -8.2028361063e-06 12.520228248786472 8.17478467e-08 3.5148296041e-06 9.31741282e-08 11.085662052850765" Properties=species:S:1:pos:R:3:forces:R:3:magmoms:R:1 energy=-300.98050379 stress="0.002973978129590243 0.0034327712866349175 -0.0013163422825049878 0.0034327712866349175 -0.005174395408329253 0.0008491819330884098 -0.0013163422825049878 0.0008491819330884098 -0.003903652780101783" dipole="_JSON [[0.0, 0.0, 0.0]]" magmom=0.0018214 free_energy=-300.98050379 pbc="T T T"
Ge       0.80233214       0.58534537       1.53355030       0.12292976       0.06876133      -0.25606170       0.00000000
Ge       2.64980186      11.04858982       4.10282550       0.26797527       0.01840596       0.39908581       0.00000000
Ge       6.77802864       2.64630062       4.17286472       0.40032738      -0.02785842       0.37908215      -0.00000000
Ge       6.84593346       6.75143840       4.11150790       0.14000480      -0.20424001      -0.26094774       0.00000000
Ge       6.65623174      11.04667288       4.12964619       0.33293061      -0.28693702       0.64759002       0.00000000
Ge      11.28802023       2.73197797       4.10102863      -0.44339217       0.17641163       0.05975112       0.00000000
Ge      11.14217647       6.83341635       4.20415069       0.08730030      -0.23264010      -0.14325327       0.00000000
Ge      10.76144068      10.86445430       4.22653222       0.13548966      -0.02857054       0.24217642       0.00000000
Ge       0.55087479       2.21358691       6.83134413       0.07399024      -0.31952415       0.57195868      -0.00000000
Ge       0.98125904       5.85634615       6.93748413       0.35470349       0.30078665      -0.41673635       0.00000000
Ge       0.97558402      10.26098850       6.81823949      -0.40622833       0.14285868       0.04798169       0.00000000
Ge       5.22983662       2.02314738       6.96345039      -0.13303204      -0.63153896       0.36801370      -0.00000000
Ge       4.92672397       6.24011160       7.01839231      -0.01349132      -0.41110170       0.06841595      -0.00000000
Ge       4.75040588      10.50254012       7.06486671       0.25230917       0.28360215      -0.16578613      -0.00000000
Ge       9.30789734       1.98511504       6.71135875      -0.39964612      -0.20004448       0.53997411       0.00000000
Ge       8.78050102       6.22875182       7.11927797       0.20069633       0.36422709      -0.25290080       0.00000000
Ge       2.78011972       6.84669473       4.36046395       0.40196675       0.04602960      -0.44674520      -0.00000000
Ge       2.58367799       2.37461567       4.06631319       0.62207100       0.06130783      -0.05263936      -0.00000000
Ge       9.32052941      10.10914036       6.88423848      -0.00319547      -0.23543630       0.41237546       0.00000000
Ge      11.40592236       8.10411931       9.75238589      -0.11748690      -0.42860617      -0.66525014       0.00000000
Ge      11.24837086      12.40534121       9.82939821       0.00790546      -0.31944726      -0.51630270       0.00000000
Ge       0.95976797       4.82397981       1.45827162       0.19707199      -0.01781385       0.18818242       0.00000000
Ge       0.78433314       8.91745010       1.39003803       0.42090072       0.03356485      -0.02539070       0.00000000
Ge       5.23298566       0.43434726       1.34740329      -0.13971829       0.10433143       0.09757641       0.00000000
Ge       4.93410338       4.78157699       1.35710529       0.06688952      -0.22582853       0.13324067      -0.00000000
Ge       9.17284372       0.52130885       1.54518027       0.09273026       0.16682604      -0.06395442       0.00000000
Ge       9.10176281       4.83391703       1.51977510      -0.19220414      -0.31937575       0.28677641       0.00000000
Ge       4.88086661       8.91445061       1.35074165      -0.08263239       0.13598406       0.82731726       0.00000000
Ge       3.07805467       3.88575927       9.72749273      -0.11749044       0.02862966      -0.13655698       0.00000000
Ge       2.91216539       8.28598859       9.60094911      -0.30410682       0.05038866       0.31867162       0.00000000
Ge       2.73334943      12.59277510       9.78887610       0.27053660       0.28138906       0.00537326       0.00000000
Ge       7.10860508       4.02552365       9.73364110      -0.19408392       0.33977236       0.33654486       0.00000000
Ge       6.80529544       8.59592765       9.81293958      -0.17193718      -0.35998679      -0.54579090       0.00000000
Ge       7.25123535      12.19734504       9.68235004       0.18788814       0.21648263      -0.19473192       0.00000000
Ge      10.91867282       4.14620219       9.91140039       0.27481181       0.18488360      -0.51606294       0.00000000
Ge       9.38453726       8.71971795       1.34630860      -0.14196673       0.33089212       0.27576272       0.00000000
Se      11.12155617       0.25991521       7.22684304       0.34512165       0.22381173       0.17167385      -0.00000000
Se       3.11431448       4.23723632       7.14229479      -0.05545599       0.27734325       0.19974925      -0.00000000
Se       2.94231500       8.64115252       7.10259246       0.07230346       0.00448293      -0.18620884      -0.00000000
Se       7.30894246       0.28744176       7.13712761      -0.22180060      -0.05544880       0.16963712      -0.00000000
Se       6.92591237       4.47761597       7.25547499      -0.10131973       0.14489965      -0.28968823      -0.00000000
Se       7.21837716       8.44282964       7.19014343       0.34161225      -0.04180738       0.35721199      -0.00000000
Se      11.44985732       4.29709503       7.16914154      -0.26439881      -0.30107486       0.53941582      -0.00000000
Se       9.03172008       0.20703287       4.03085084       0.11062258      -0.36826697      -0.00251691      -0.00000000
Se       0.80545125       0.35430028       4.05933110      -0.08076317      -0.37211388      -0.00288713      -0.00000000
Se       0.94305063       4.37349233       4.05885209      -0.23321535       0.16643767      -0.61635340      -0.00000000
Se       0.93013711       8.52177878       3.89655653      -0.30535370      -0.00010213       0.22183508      -0.00000000
Se       4.79994020       0.27604343       3.89118516       0.22078191      -0.14115459       0.12688878      -0.00000000
Se       4.98437191       4.33988264       3.89563418      -0.08607257       0.20248943      -0.08164842      -0.00000000
Se       5.07559176       8.54616231       4.09535532      -0.51828515       0.06206860      -0.53727891      -0.00000000
Se       3.23828531       0.09270968       7.31298765       0.24927004       0.24070478      -0.52696386      -0.00000000
Se      11.44325317       8.43127715       7.09855080      -0.29122104       0.34421628       0.32056916      -0.00000000
Se      11.32539709      10.62376603       1.72699634      -0.45664924      -0.03957933      -0.36467043      -0.00000000
Se       3.05743182       2.04313585       1.52440917      -0.46854323       0.58564283      -0.01062030      -0.00000000
Se      11.23809599       2.36980798       1.59898093       0.01818138      -0.22777931      -0.05459691      -0.00000000
Se       9.26869930       4.41028858       4.09204428      -0.17825594       0.07273100      -0.31486004      -0.00000000
Se       1.15226289       2.08539768       9.44311029      -0.23194427       0.34581202      -0.30191223      -0.00000000
Se       1.04766991       6.48692557       9.35609111      -0.12142741      -0.04085916       0.82466226      -0.00000000
Se       1.00311753      10.81964156       9.36030564      -0.92502065      -0.39345855       0.17242535      -0.00000000
Se       5.16470110       2.33597123       9.55325347       0.02308200      -0.42812160      -0.19082632      -0.00000000
Se       4.82589324       6.64281832       9.53098287       0.60284161      -0.06417665       0.02221952      -0.00000000
Se       5.14719902      10.62118266       9.60540608       0.29584712      -0.25782227      -0.05876333      -0.00000000
Se       9.10054863       2.49077044       9.40288775       0.07198707      -0.67784652      -0.24065529      -0.00000000
Se       9.35620752       6.17021615       9.59219246       0.24076188       0.79019110       0.17711680      -0.00000000
Se       9.32330900      10.47002873       9.47829220      -0.03196975       0.35280524      -0.13631979      -0.00000000
Se       3.10428467       6.53460269       1.72052877      -0.64999555      -0.17754731       0.22457210      -0.00000000
Se       2.82809816      10.65405401       1.65850971       0.14963535      -0.20637955      -0.56150309      -0.00000000
Se       7.24651415       2.19665768       1.75206039      -0.35555393       0.19245733      -0.58905990      -0.00000000
Se       6.98704650       6.46022402       1.51993798       0.32485718       0.16530303       0.38275075      -0.00000000
Se       6.92961431      10.50291511       1.71997050       0.41763198       0.18211536      -0.71360318      -0.00000000
Se      11.18329708       6.45117739       1.54198998       0.27443655       0.21243464       0.27161566      -0.00000000
Se       9.22494828       8.50772930       3.90504712      -0.23254491       0.14100661       0.05185355      -0.00000000
