72
Lattice="12.408582576449902 -8.129688773e-06 3.0562941144e-06 -8.2036810065e-06 12.521517844687835 8.17562668e-08 3.5149860348e-06 9.3178275e-08 11.086155430378415" Properties=species:S:1:pos:R:3:forces:R:3:magmoms:R:1 energy=-300.58686178 stress="0.003236597696333081 0.004230983258646737 -0.0016943863521391863 0.004230983258646737 -0.004363246329552234 0.00043242705642156885 -0.0016943863521391863 0.00043242705642156885 -0.0030727969102069177" dipole="_JSON [[0.0, 0.0, 0.0]]" magmom=0.001852 free_energy=-300.58686178 pbc="T T T"
Ge       0.76389444       0.57607795       1.44566326       0.28056007       0.24791278      -0.16046914       0.00000000
Ge       2.63527112      11.11993531       4.21725944       0.71210380      -0.51084058      -0.20389516      -0.00000000
Ge       6.69682340       2.70221181       4.21268252       0.80464774      -0.73421030       0.03876437       0.00000000
Ge       6.68486340       6.60500734       4.03696402       0.52060083       0.01500520       0.81107783       0.00000000
Ge       6.62496656      11.05088690       4.23168940       0.59970783      -0.21285007       0.20024925      -0.00000000
Ge      11.32481970       2.70981270       4.12549000      -0.57728739       0.19104157      -0.35981238       0.00000000
Ge      11.24677504       6.78033922       4.18576215      -0.54470780       0.14065135      -0.35488235       0.00000000
Ge      10.71413778      10.83610156       4.23426974      -0.10780277      -0.25961583      -0.02993645       0.00000000
Ge       0.53533986       2.20054589       6.82744953       0.10485995      -0.23864767       0.64921261       0.00000000
Ge       0.94413588       5.79199909       7.00894925       0.55309962       0.61491473      -0.23860140       0.00000000
Ge       0.91636517      10.21010565       6.86393132      -0.06871247       0.09277472       0.21759466       0.00000000
Ge       5.20237355       1.95934148       7.06348327      -0.13073607      -0.34731472      -0.77463161       0.00000000
Ge       5.03857443       6.15096899       6.95957440      -0.34766964      -0.02095548       0.26406326      -0.00000000
Ge       4.89425841      10.67015612       7.05014199      -0.47993315      -0.02539342      -0.09748108      -0.00000000
Ge       9.35398442       2.06941607       6.80980148      -0.81070230      -0.00189210       0.28070483       0.00000000
Ge       8.83258941       6.23804085       7.01311466      -0.00412958       0.22720181       0.28561106       0.00000000
Ge       2.80279162       6.86187988       4.33295389       0.52983155       0.02095133      -0.24652052       0.00000000
Ge       2.63347029       2.38494161       4.17495921       0.23316668       0.07998292      -0.57203583       0.00000000
Ge       9.31495625      10.03227456       6.93801268       0.12396409       0.12999420      -0.11577021       0.00000000
Ge      11.40684264       7.98866724       9.65697571      -0.46322441       0.43786237       0.16887119       0.00000000
Ge      11.21321333      12.27957434       9.78611615       0.05856786       0.05497267      -0.16500974       0.00000000
Ge       1.02033212       4.77685728       1.43563141       0.09951089       0.02237978       0.27979356       0.00000000
Ge       0.90039184       8.88783324       1.43112025       0.06399646       0.25950438      -0.19470558       0.00000000
Ge       5.29818854       0.38218526       1.27305759      -0.27310777       0.19799408       0.39465824      -0.00000000
Ge       4.97940995       4.68828996       1.34582057      -0.20329870       0.30660999       0.33754222       0.00000000
Ge       9.16231580       0.53423177       1.53965512       0.36928850      -0.01551177      -0.27196400       0.00000000
Ge       9.03849670       4.78960846       1.60709720       0.03039764       0.11453258       0.22704450       0.00000000
Ge       4.92484732       8.93763937       1.34951077      -0.20491357       0.08624815       0.67357516       0.00000000
Ge       3.12203682       4.04083196       9.73820447      -0.25624446      -0.55345992       0.13753236       0.00000000
Ge       2.73744957       8.19742677       9.61531791       0.70831792       0.74769784       0.18647742      -0.00000000
Ge       2.86851692      12.69912686       9.79091212      -0.51310705      -0.10568185      -0.40276062       0.00000000
Ge       7.08287759       4.01849730       9.71612682      -0.63299795       0.69285984       0.00135406       0.00000000
Ge       6.79509139       8.46958137       9.76226854      -0.09890536      -0.08812304      -0.30224397      -0.00000000
Ge       7.22096303      12.13161678       9.68007575       0.16335262      -0.03730015      -0.50409241      -0.00000000
Ge      10.93811736       4.19728324       9.86757625      -0.16880896      -0.20482673      -0.30438845       0.00000000
Ge       9.37067406       8.74472325       1.32373610      -0.02274839       0.17193315       0.37745721       0.00000000
Se      11.10057666       0.36973808       7.21828006       0.53062489      -0.27127699       0.13109224      -0.00000000
Se       3.10855403       4.26488242       7.25978843       0.02271627       0.28950320      -0.46328860      -0.00000000
Se       2.99095604       8.69318191       7.11487027      -0.09859624       0.10483681      -0.10921230      -0.00000000
Se       7.27008854       0.28784550       7.02579608      -0.11530404      -0.23021448       0.73679281      -0.00000000
Se       6.95477259       4.44361694       7.13335123       0.18879152       0.21069293       0.19983013      -0.00000000
Se       7.26974992       8.49789654       7.18744281       0.01383783      -0.39532338       0.15990855      -0.00000000
Se      11.37238072       4.30558639       7.24565673      -0.26791960      -0.41946549       0.22003085      -0.00000000
Se       8.99598597       0.18798919       3.99639127       0.10011148      -0.30164025       0.21445069      -0.00000000
Se       0.85516431       0.26964580       3.99118190      -0.46939442       0.43696752      -0.00440930      -0.00000000
Se       0.86668986       4.38134771       4.06575737       0.22258064       0.06661475      -0.40124536      -0.00000000
Se       1.06070982       8.61331189       3.92711053      -0.64588829      -0.03613412       0.30433422      -0.00000000
Se       4.92961572       0.38192107       3.88403221      -0.09036086      -0.10069283      -0.19671680      -0.00000000
Se       4.99072851       4.38917902       3.95719333      -0.62753865       0.28844037      -0.39438857      -0.00000000
Se       5.00799210       8.45441342       4.02458409      -0.53716592       0.43668695      -0.33048889      -0.00000000
Se       3.14192294       0.23682565       7.22322480       0.54562849      -0.33763895      -0.04469814      -0.00000000
Se      11.37992623       8.38869371       7.12490788       0.05384153       0.00246312      -0.24576942      -0.00000000
Se      11.29878873      10.63876644       1.69758649      -0.13737195      -0.27401257      -0.10365119      -0.00000000
Se       3.08657618       2.20301206       1.51809096      -0.48408666       0.13397481       0.40716934      -0.00000000
Se      11.31888712       2.43608645       1.53129801      -0.22371108      -0.43995249       0.44082163      -0.00000000
Se       9.35889624       4.49000816       4.14160030      -0.18024173      -0.10717057      -0.20456445      -0.00000000
Se       1.17422443       2.14916170       9.44044370       0.00682391       0.35609015      -0.13694633      -0.00000000
Se       1.00608292       6.45835422       9.50639914      -0.12761232      -1.02629145       0.01074697      -0.00000000
Se       0.88492248      10.78899836       9.42564247       0.08319799       0.01711449      -0.01751208      -0.00000000
Se       5.12657151       2.28379380       9.48494487       0.09041421      -0.04011332       0.84271154      -0.00000000
Se       4.89177937       6.69289073       9.52833073       0.12751131      -0.31737783      -0.23228038      -0.00000000
Se       5.07980490      10.47880340       9.56581114       0.63720424       0.39380814      -0.00104879      -0.00000000
Se       8.92751436       2.49811748       9.42980535       1.14499917      -0.75424618      -0.14832741      -0.00000000
Se       9.40157510       6.26316976       9.65571534      -0.18878373       0.25037518      -0.44979239      -0.00000000
Se       9.43965842      10.40356629       9.43030787      -0.59421656       0.48210522       0.30568512      -0.00000000
Se       3.09638601       6.53088782       1.73643723      -0.43019713      -0.52630395      -0.06750210      -0.00000000
Se       2.85983733      10.65922529       1.65664680       0.28441524      -0.02421451      -0.02598159      -0.00000000
Se       7.24831037       2.15777538       1.62939668      -0.48217566       0.60665124       0.07162541      -0.00000000
Se       6.94162146       6.60227018       1.63097507       0.41007327      -0.64094928      -0.79408497      -0.00000000
Se       6.95382759      10.53895370       1.73752301       0.19965202       0.23367203      -0.37501961      -0.00000000
Se      11.18357050       6.41125818       1.55488341       0.24437871       0.21191352       0.25459699      -0.00000000
Se       9.04809579       8.42534481       3.85329223       0.74682583       0.22470640       0.21474928      -0.00000000
