72
Lattice="12.436962474803291 -8.1482823343e-06 3.0632842211e-06 -8.1876053246e-06 12.496981062019984 8.15960597e-08 3.502393728e-06 9.28444673e-08 11.046439690406093" Properties=species:S:1:pos:R:3:forces:R:3:magmoms:R:1 energy=-300.71327732 stress="0.008272911224594996 -0.0029402312883880528 0.0016803746135402354 -0.0029402312883880528 -0.0009571812745802364 0.0007297443270743799 0.0016803746135402354 0.0007297443270743799 -0.015420878858950831" dipole="_JSON [[0.0, 0.0, 0.0]]" magmom=0.0018922 free_energy=-300.71327732 pbc="T T T"
Ge       1.02289595       0.57645918       1.42735321      -0.91802685      -0.67632436       0.17510470      -0.00000000
Ge       2.93567729      10.84425393       4.05288278      -0.26580605       0.05419947      -0.21700011       0.00000000
Ge       7.09408039       2.63018453       4.14269882      -0.08336642       0.10183118      -0.52246762       0.00000000
Ge       7.09913330       6.94661570       4.14628150      -0.23804767      -0.13524376       0.44562477       0.00000000
Ge       7.15619079      11.07016118       4.26445128       0.12505743      -0.09257526      -0.36657880       0.00000000
Ge      11.44446889       2.73998440       4.13211631      -0.12518437      -0.32828142      -0.13723491      -0.00000000
Ge      10.94665138       6.78611605       3.83091188       0.50609665      -0.22901064       1.24958760      -0.00000000
Ge      11.25503628      10.95157951       4.08172376       0.22536290      -0.02476375      -0.23036577      -0.00000000
Ge       0.76624263       1.85023972       7.02013367       0.07849317      -0.01980632      -0.20174339       0.00000000
Ge       0.70887147       6.29561710       6.98015523       0.11381674      -0.09597521      -0.55055210      -0.00000000
Ge       0.76311534      10.32247166       7.12013834      -0.09929080      -0.12272965      -0.47654144      -0.00000000
Ge       4.97035102       1.93200117       6.77362482      -0.30413120      -0.18350795       0.61505458       0.00000000
Ge       5.09840273       6.03917099       7.01009407      -0.52639193      -0.25979277       0.31989249       0.00000000
Ge       4.97228465      10.12899762       6.94899859      -0.03786783       0.35778656      -0.25204171       0.00000000
Ge       8.86484844       2.06783179       7.02425400       0.63509817      -0.30228385       0.10614723       0.00000000
Ge       9.21905463       6.11741328       7.05014650       0.05806302      -0.00398784      -0.02621596      -0.00000000
Ge       2.98316558       6.70039160       3.90983352      -0.32099212       0.28623295      -0.00618103       0.00000000
Ge       2.84285561       2.48667373       4.23932945      -0.19445028       0.39805235       0.11139302       0.00000000
Ge       8.92534357      10.34834642       7.02626173       0.45583168       0.06922768       0.00194733      -0.00000000
Ge      11.12760304       8.13161488       9.61667712       0.03763388       0.21310962       0.20469241      -0.00000000
Ge      11.19372156      12.43798940       9.66173672      -0.19033324       0.00583986      -0.04999800      -0.00000000
Ge       0.81657928       4.76565796       1.52375079      -0.24014492      -0.08202560       0.21926813      -0.00000000
Ge       0.89890056       8.86551951       1.58239445      -0.27939999      -0.01375952      -0.03823381      -0.00000000
Ge       4.86377366       0.47108492       1.42996033       0.16874087      -0.00176122       0.40245940       0.00000000
Ge       5.16744092       4.77027641       1.73931280       0.09637622       0.18876094      -0.72764555       0.00000000
Ge       9.22727352       0.63388917       1.43507118       0.09988769      -0.09982539       0.34501615       0.00000000
Ge       9.07634719       4.41880726       1.52068155       0.11329315       0.34420554      -0.47101022       0.00000000
Ge       5.04433950       8.93302716       1.47158810       0.00617142       0.29958651      -0.86972242       0.00000000
Ge       2.98102560       3.95794879       9.65718238      -0.10762334      -0.07647001      -0.24531575       0.00000000
Ge       2.83127678       8.18126195       9.70178626       0.13542087      -0.12029147      -0.32153990       0.00000000
Ge       2.85947197      12.22034116       9.55360008       0.23798181       0.00754481      -0.17136284       0.00000000
Ge       6.86486593       3.94355887       9.52296089       0.85323571       0.58206379       0.40002820       0.00000000
Ge       6.95873976       8.19098048       9.65472705       0.00892006      -0.14670245       0.43340933       0.00000000
Ge       7.08887984      12.43841729       9.62303049       0.01311037      -0.34727959       0.19514570       0.00000000
Ge      11.31421753       4.16912072       9.51222344      -0.26059008      -0.35736064      -0.13459890      -0.00000000
Ge       9.11211355       8.88132982       1.62167441      -0.05244592       0.31349601      -0.99006709      -0.00000000
Se      11.18004491       0.23044866       7.15464205       0.16318957       0.04992162      -0.14464323      -0.00000000
Se       2.98846118       4.24852828       7.15425394       0.44338496       0.42975712      -0.05153859      -0.00000000
Se       2.90309865       8.61274561       7.13426510       0.02974798      -0.34322445       0.19646709      -0.00000000
Se       7.16819589       0.08544512       7.12019178      -0.25096629       0.47555355      -0.24798677      -0.00000000
Se       7.21711834       4.33807970       7.02209378      -0.28561935       0.13377893      -0.05006399      -0.00000000
Se       7.13434321       8.52486074       7.19321211      -0.18530772      -0.29094321      -0.42245012      -0.00000000
Se      11.32102301       4.38109219       6.93785173      -0.20314019       0.14769972       0.48748549      -0.00000000
Se       9.27646028       0.13478495       4.05316524      -0.31062967       0.35603991      -0.39906278      -0.00000000
Se       1.01271240       0.20078298       4.01359805      -0.26050463      -0.15497584      -0.13297263      -0.00000000
Se       0.93527229       4.48025079       4.13864246       0.25719318      -0.31711331      -0.55973721      -0.00000000
Se       1.08235864       8.69744122       4.09113795       0.00879353      -0.30030143      -0.15694382      -0.00000000
Se       5.27576699       0.29123632       4.00774579      -0.48994579       0.24409623      -0.27075999      -0.00000000
Se       5.07735276       4.50177989       4.15647337      -0.05235362      -0.52752278       0.26170625      -0.00000000
Se       4.88711383       8.49556260       3.84372571       0.34832661      -0.04874820       0.90122639      -0.00000000
Se       3.08261658       0.12025524       6.99525090      -0.27720649       0.12317449       0.22874536      -0.00000000
Se      11.28349528       8.46221143       7.11949321      -0.06830257       0.18602470      -0.28235060      -0.00000000
Se      11.25487055      10.55218346       1.52839497       0.02646585       0.06156010       0.42077063      -0.00000000
Se       2.82653582       2.18760996       1.73037931       1.04624329       0.88600078      -0.29744140      -0.00000000
Se      11.24964171       2.29695777       1.55604835       0.16731547       0.00552145       0.15188003      -0.00000000
Se       9.45744261       4.38523259       3.96872449      -0.67401216       0.04111373       0.61612017      -0.00000000
Se       0.83967600       2.28972353       9.49544304       0.27495341       0.04256481       0.22041550      -0.00000000
Se       0.82151022       6.45442909       9.44347233       0.19980069      -0.07304176       0.65721363      -0.00000000
Se       0.80750287      10.57841084       9.58008096       0.25217753       0.13467227       0.24203745      -0.00000000
Se       5.12979649       2.22618821       9.45019111      -0.70985597      -0.48611174      -0.34970732      -0.00000000
Se       4.98803683       6.38282988       9.60447081       0.14084776       0.18206370      -0.37890358      -0.00000000
Se       5.14169000      10.55368940       9.41135610      -0.22349810       0.25778078       0.51643109      -0.00000000
Se       9.23775751       2.35877342       9.53559776      -0.15472841       0.03832903      -0.08631629      -0.00000000
Se       9.19588314       6.41813145       9.56262949      -0.09875125      -0.07229332      -0.12362586      -0.00000000
Se       9.20113728      10.70488741       9.51157178      -0.08536276      -0.17527715       0.20539999      -0.00000000
Se       2.82350557       6.35901516       1.36214066       0.52914387       0.15444625       0.50744276      -0.00000000
Se       2.83738553      10.70171234       1.42351505       0.75692706      -0.00232000       0.35447347      -0.00000000
Se       7.18819351       2.35317459       1.49151841      -0.15338173       0.03545398       0.61531680      -0.00000000
Se       7.33475484       6.54361323       1.73850639      -0.53065287      -0.58701817      -0.67050438      -0.00000000
Se       6.99383487      10.69289130       1.68643539       0.23725450      -0.28093269       0.08441692      -0.00000000
Se      11.11491121       6.44847144       1.49162704       0.50063560       0.00004468      -1.02400454      -0.00000000
Se       9.15399258       8.61207570       4.03742737      -0.09268011       0.17204768       0.76311036      -0.00000000
