72
Lattice="12.411627472344666 -4.6865590985e-06 -2.3114920777e-06 -4.7240827645e-06 12.510994725106851 2.3367996351e-06 -2.6514263003e-06 2.6591646386e-06 11.059770497167385" Properties=species:S:1:pos:R:3:forces:R:3:magmoms:R:1 energy=-300.3746305 stress="0.008554895235680125 0.0011460725341773754 0.002257078871987495 0.0011460725341773754 -0.00527116196826232 -0.0008366514356767227 0.002257078871987495 -0.0008366514356767227 -0.011787329839184733" dipole="_JSON [[0.0, 0.0, 0.0]]" magmom=0.0017945 free_energy=-300.3746305 pbc="T T T"
Ge       0.92754690       0.59525943       1.43630940      -0.11468414      -0.34697860      -0.02838806       0.00000000
Ge       2.65360654      11.17491896       4.05163116       0.90570383      -0.99865203       0.68243334       0.00000000
Ge       7.13230109       2.59604985       4.08692012      -0.01707026      -0.39932792       0.11410851       0.00000000
Ge       7.01947358       6.85636318       4.33103375       0.39441598      -0.37603433      -0.57699240      -0.00000000
Ge       7.19903551      10.88533466       4.14283309      -0.01777970       0.20204486      -0.04007552       0.00000000
Ge      11.31610207       2.64801080       3.89786897      -0.54960574      -0.36125186       0.22759657       0.00000000
Ge      11.27470385       6.58175388       4.11630012      -0.10110649       0.36296620      -0.37164987      -0.00000000
Ge      11.17065643      10.94412022       4.20977688      -0.36043005       0.33869489      -0.57322737       0.00000000
Ge       1.00786538       1.88987859       6.88354116      -0.24175992       0.31015763       0.19098605       0.00000000
Ge       0.98909484       6.17446511       7.16333913       0.20881563      -0.38060625      -0.54873150       0.00000000
Ge       0.83860374      10.38682733       7.00898996       0.03892520      -0.69658494       0.57018704       0.00000000
Ge       5.15071888       1.81582523       6.98441542      -0.51184054       0.48760744      -0.03247446       0.00000000
Ge       4.84583919       6.15670300       7.10192794       0.21557799      -0.18344890      -0.19245113      -0.00000000
Ge       5.22462865      10.32390869       6.99028391      -0.11345467      -0.53296851      -0.06726457       0.00000000
Ge       9.22480201       1.91210490       6.89542915       0.12083700       0.16199877      -0.89506551       0.00000000
Ge       9.08364415       5.87304078       6.87629950       0.59342346       0.23866794      -0.00985253      -0.00000000
Ge       3.18017092       6.71574556       4.05664039      -0.39310432      -0.10320015       0.12130993      -0.00000000
Ge       2.86141594       2.58641646       3.94427087       0.53261424      -0.09838041      -0.38220949       0.00000000
Ge       9.37774319      10.17271610       6.99565479      -0.04566694      -0.38741109      -0.67199743       0.00000000
Ge      11.36716282       8.03602214       9.86788495      -0.20749075      -0.05183996      -0.31623418       0.00000000
Ge      11.20951043      12.31339689       9.73482371       0.28907033       0.10827563      -0.22871250       0.00000000
Ge       0.54770478       4.84009892       1.31222290       0.06875737       0.02940206      -0.47749267       0.00000000
Ge       0.72141771       8.90749571       1.45175184      -0.10772331       0.04816140      -0.05420495       0.00000000
Ge       5.16170653       0.27497363       1.34069545      -0.07026676       0.22007393      -0.04848554       0.00000000
Ge       4.85729726       4.66830652       1.41727469       0.26989169       0.22028745       0.04682245      -0.00000000
Ge       9.10227635       0.67611894       1.43272718       0.13492990      -0.46913581      -0.17586684       0.00000000
Ge       8.79992513       4.73336065       1.16873207       0.15921089       0.34192976       0.47788641      -0.00000000
Ge       4.94744801       8.71752597       1.57915171       0.05495450       0.29060782      -0.31599615      -0.00000000
Ge       3.00445388       3.89617021       9.91512325       0.09640393      -0.02686104      -0.71287133       0.00000000
Ge       3.15191643       8.21920673       9.60673157      -0.08683860      -0.16580095       0.09778821       0.00000000
Ge       2.88214338      12.39985521       9.58832313       0.16034814      -0.26631496       0.59106179       0.00000000
Ge       7.18066476       3.98993275       9.54840356      -0.15190089       0.10565369      -0.05369136      -0.00000000
Ge       7.27168949       8.21838270       9.49339879      -0.07764247      -0.41920072       0.41087168      -0.00000000
Ge       7.05380079      12.26073927       9.58790874       0.16372326      -0.23083369       0.13411027       0.00000000
Ge      11.29337923       3.80469568       9.53423413      -0.31336341       0.52696078      -0.14035054       0.00000000
Ge       9.13721904       8.92908813       1.56942452      -0.01223099      -0.72643270       0.09329821      -0.00000000
Se      11.28063040       0.30407077       7.13356454       0.16947301      -0.47623239       0.09393361      -0.00000000
Se       3.11195928       4.26473495       7.20103783      -0.49551773       0.42311849       0.39641964      -0.00000000
Se       2.91670314       8.46394392       7.11119939      -0.09199703       0.21566737      -0.26421705      -0.00000000
Se       6.96386138       0.06019446       7.09288323       0.47885957      -0.30697567      -0.01561267      -0.00000000
Se       7.07082196       4.38610446       7.02622099      -0.33816230      -0.30409076       0.11108871      -0.00000000
Se       7.29441276       8.31415481       7.01995816      -0.18953679       0.89975024      -0.20999172      -0.00000000
Se      11.32074733       4.09160951       7.00637015      -0.31941626       0.47778440       0.01450945      -0.00000000
Se       9.11913810       0.27133898       3.94014588       0.21279070      -0.51070969       0.27374897      -0.00000000
Se       0.79604193       0.27633718       4.06655001      -0.63239267       0.49052683      -0.38997623      -0.00000000
Se       0.87151993       4.23790307       3.71635248       0.22556887       0.53544887       0.57514755      -0.00000000
Se       0.96340007       8.26761853       3.90716330      -0.43008706       0.22075829       0.34030269      -0.00000000
Se       5.03784608      -0.07552516       3.82634560      -0.18658221       0.44420645       0.34308060      -0.00000000
Se       5.08228267       4.16831412       3.93087089      -0.72593765       0.43235034      -0.02379251      -0.00000000
Se       5.09290077       8.50901557       4.05185673      -0.32056253       0.25428972       0.29109624      -0.00000000
Se       2.98002236       0.19313226       7.16104888       0.25402634      -0.23655788      -0.62977078      -0.00000000
Se      11.34169419       8.46068050       7.28019021       0.25053875       0.35911047      -0.20061867      -0.00000000
Se      10.96021273      10.65106476       1.56419137       0.97246422       0.07267543       0.64351048      -0.00000000
Se       3.09196693       2.03488102       1.31357807      -0.12165829       0.22199603       0.80960474      -0.00000000
Se      11.24928851       2.24349663       1.40272392      -0.00991781       0.23955777      -0.09273072      -0.00000000
Se       9.11070122       4.17965702       3.78544338       0.11572737       0.55150309      -0.28221353      -0.00000000
Se       0.91527909       2.27625484       9.46475369       0.50033068      -0.47969339      -0.01777978      -0.00000000
Se       0.93611548       6.36334027       9.60068844      -0.01596191      -0.05500560       0.32045590      -0.00000000
Se       0.92226234      10.66757589       9.66746521      -0.18861277       0.04313530      -0.77997044      -0.00000000
Se       5.14753533       2.30034557       9.51412413      -0.00849000      -0.24548146      -0.01416486      -0.00000000
Se       5.17078579       6.43649351       9.58184265      -0.11674441       0.19689369      -0.04645761      -0.00000000
Se       4.91075687      10.33518381       9.48118014       0.40261762       0.79543261       0.20261598      -0.00000000
Se       9.07954607       2.21326034       9.27772930       0.06864264      -0.17179531       1.24625195      -0.00000000
Se       9.23526311       6.40197516       9.39939676       0.01393132      -0.04088511       0.20925432      -0.00000000
Se       9.36073254      10.56599675       9.40621304      -0.73585582       0.13514983       0.75499267      -0.00000000
Se       2.93256065       6.45011933       1.54579804       0.06409997      -0.16749453       0.00450597      -0.00000000
Se       2.70466260      10.58115867       1.65953402       0.24983428      -0.17357745      -0.58251176      -0.00000000
Se       7.02673616       2.20370063       1.55862191      -0.07253285      -0.01653985      -0.10980206      -0.00000000
Se       6.85190191       6.49465967       1.57819525       0.24912318      -0.37738021       0.36891825      -0.00000000
Se       7.14297976      10.47460115       1.66080681      -0.44520258       0.16670588      -0.26746198      -0.00000000
Se      10.92094229       6.52320644       1.48715062       0.43101201      -0.63804285       0.37791278      -0.00000000
Se       9.25674617       8.36294836       4.13957235      -0.12751529       0.25217566      -0.29445270      -0.00000000
72
Lattice="12.417591459994602 -4.6888110659e-06 -2.312602787e-06 -4.7226246308e-06 12.50713308606078 2.3360783594e-06 -2.6499142783e-06 2.6576482037e-06 11.053463470507442" Properties=species:S:1:pos:R:3:forces:R:3:magmoms:R:1 energy=-300.63510171 stress="0.00913140523339735 0.0015833952493535225 -0.0004378110258841196 0.0015833952493535225 -0.0033599762348997574 -0.002114893655300054 -0.0004378110258841196 -0.002114893655300054 -0.007924596436602803" dipole="_JSON [[0.0, 0.0, 0.0]]" magmom=0.001817 free_energy=-300.63510171 pbc="T T T"
Ge       0.81847229       0.58450155       1.53590331       0.09462756      -0.18042734      -0.84318578      -0.00000000
Ge       3.03563367      10.98523799       4.28330142      -0.06390475       0.26957854      -0.52149109      -0.00000000
Ge       6.99257829       2.43199601       3.98883804       0.02741041       0.45470359      -0.22766628       0.00000000
Ge       7.25087792       6.70062335       4.13499526      -0.35675599       0.38937551       0.66124080       0.00000000
Ge       7.15293550      10.89471665       3.98006838      -0.07209833      -0.02939091      -0.05260154      -0.00000000
Ge      11.18324653       2.69996104       3.84982638       0.07201187       0.07746062      -0.22468753       0.00000000
Ge      11.31548873       6.87938791       4.24947669      -0.20668968      -0.26897851       0.23518901       0.00000000
Ge      11.20583991      10.82434935       4.07059930       0.18089502       0.26284954      -0.24967000      -0.00000000
Ge       1.00329275       1.95127958       6.89332662       0.14838880      -0.40198652       0.07744363       0.00000000
Ge       0.90372342       5.99791988       7.07316085      -0.58516431       0.39710152      -0.28299304       0.00000000
Ge       0.87453725      10.23777254       6.95249471      -0.18457626      -0.36915114       0.38027561      -0.00000000
Ge       5.05701162       1.97757889       6.84318760       0.23415475      -0.43223812       0.00371037       0.00000000
Ge       4.76666365       6.23359736       6.89248914       0.09257655      -0.30140359       0.55218883       0.00000000
Ge       4.99371958      10.31685236       7.12585647       0.03079796      -0.14921677      -0.07903300      -0.00000000
Ge       9.18262943       1.88533747       7.01482666      -0.15975225       0.07592746       0.15662098       0.00000000
Ge       9.29245633       5.84002481       6.70312403      -0.48124934       0.35891825       0.23444239       0.00000000
Ge       2.89165657       6.53931747       3.92657135       0.10682376       0.40470490       0.32704928       0.00000000
Ge       2.91937673       2.53545176       4.24644814      -0.24072751       0.34969168      -0.33274907       0.00000000
Ge       9.23594384      10.14446384       6.90678496      -0.02489941       0.06734541       0.82531745       0.00000000
Ge      11.21344340       7.91533292       9.85218568       0.15793782       0.23033575      -0.03344336      -0.00000000
Ge      11.33693406      12.34151330       9.43733674      -0.14150616      -0.33437908       1.33057003       0.00000000
Ge       0.58742300       4.78272857       1.27233405       0.70906990      -0.52571528       0.37193212       0.00000000
Ge       0.82963238       8.84380087       1.55050488       0.33872843       0.16602464      -0.10425965       0.00000000
Ge       5.00921176       0.56660070       1.40379292      -0.15112100      -0.28547460       0.04948859      -0.00000000
Ge       5.04526701       4.77777985       1.48163180      -0.35932671      -0.15290243      -0.08078934       0.00000000
Ge       9.06615761       0.49025519       1.32415070       0.08929265      -0.05435023       0.15673592       0.00000000
Ge       8.93707871       4.68813099       1.42155988       0.48554682      -0.36424913      -0.21924799       0.00000000
Ge       4.87897807       8.88931254       1.46541738       0.35047016      -0.20146511       0.12351987       0.00000000
Ge       3.04164973       3.71758179       9.84144361      -0.26234766       0.57841990      -0.33080027       0.00000000
Ge       2.81121921       7.99009452       9.63732954       0.13471863       0.43474507       0.07874824       0.00000000
Ge       3.05221704      12.28958994       9.72694517      -0.17820307      -0.14766077      -0.50540665      -0.00000000
Ge       6.97866108       3.99357275       9.49261880       0.17802340       0.09491202      -0.24141710       0.00000000
Ge       7.17262255       7.97855442       9.57155352      -0.06537220       0.45272251      -0.02579054      -0.00000000
Ge       7.20853834      12.32969651       9.51602920      -0.12248117       0.04024271      -0.18431901       0.00000000
Ge      11.00424348       3.84828380       9.61864918       0.17785867       0.05425229      -0.20961750       0.00000000
Ge       9.21704943       8.68898694       1.50086554      -0.04852082       0.78178656      -0.06086358       0.00000000
Se      11.27705762       0.19555900       7.09400661       0.10858584       0.09564143      -1.19154807      -0.00000000
Se       2.77061604       4.38648261       7.18193751       0.95666024      -0.32266257       0.20111248      -0.00000000
Se       2.92049058       8.40068334       7.09858553       0.12628548       0.20784757       0.03136241      -0.00000000
Se       7.21409252       0.15395526       6.91089272      -0.35623539       0.12321536       0.35561724      -0.00000000
Se       7.12925623       4.27302315       6.93177099       0.01661237       0.16779721       0.34051477      -0.00000000
Se       7.08023647       8.68171665       7.10016728       0.09194186      -0.58058276       0.00656437      -0.00000000
Se      11.20088233       4.25903069       7.01785373       0.52827765      -0.50973691       0.18245539      -0.00000000
Se       9.23215414       0.03924599       3.89547127      -0.09706182       0.48841077      -0.10844528      -0.00000000
Se       0.76422632       0.15974257       3.94025520       0.32999474      -0.12160076       0.89016923      -0.00000000
Se       0.90032866       4.42179437       3.90727310      -0.05447161      -0.43581546      -0.19307834      -0.00000000
Se       0.85947296       8.50369295       4.07917314       0.32939756      -0.04841083      -0.14011945      -0.00000000
Se       5.16197388       0.24187740       3.94592171      -0.15154832      -0.36313010      -0.04928682      -0.00000000
Se       4.85599019       4.26636446       3.99324624       0.57648355       0.02756845       0.05986821      -0.00000000
Se       5.01024928       8.37533856       3.99767280       0.14607101       0.04672495      -0.05703925      -0.00000000
Se       3.20175279       0.13833430       6.98703961      -0.55079122       0.18636863       0.47322062      -0.00000000
Se      11.28438697       8.45570751       7.36110655       0.04801793       0.36681049      -0.47456290      -0.00000000
Se      11.42920602      10.62851911       1.52560839      -0.68732448      -0.38950735       0.15514177      -0.00000000
Se       2.97476979       2.15920441       1.70603862      -0.09855744       0.24867482      -0.12516755      -0.00000000
Se      11.23142259       2.34779948       1.22695837       0.02708930      -0.15107647       0.92360224      -0.00000000
Se       9.09225292       4.37510933       3.88824185       0.05929339      -0.56074294       0.31870231      -0.00000000
Se       1.14212800       2.07364992       9.40706537      -0.61901038       0.08598194       0.17163059      -0.00000000
Se       0.88633643       6.24945763       9.58956920      -0.25334503       0.09866436       0.11554166      -0.00000000
Se       0.97676285      10.56018492       9.48815444       0.13481767       0.23435987      -0.13341495      -0.00000000
Se       5.04333555       2.24430182       9.37248666       0.24689770      -0.28567682       0.05502830      -0.00000000
Se       4.98734532       6.46322426       9.55058449       0.19019692      -0.32542072      -0.63205399      -0.00000000
Se       5.18179541      10.67455353       9.60653209      -0.31022823      -0.29031215      -0.09329801      -0.00000000
Se       9.03522411       2.15837235       9.62363098       0.15813314       0.30895826      -0.64287132      -0.00000000
Se       9.26396995       6.30591085       9.34119967      -0.16276558      -0.29856509      -0.04241058      -0.00000000
Se       9.07634986      10.61663187       9.61856102       0.61567667      -0.09034862      -0.83601865      -0.00000000
Se       3.01357680       6.48192425       1.46181338      -0.09160998      -0.20928069      -0.21644153      -0.00000000
Se       3.07213745      10.64357957       1.67003961      -0.56899106      -0.05478211       0.22079160      -0.00000000
Se       7.08489974       2.26759866       1.38123383       0.05181359       0.07761674       0.54885759      -0.00000000
Se       7.13300659       6.41442452       1.68851703      -0.35861634       0.41180674      -0.71338557      -0.00000000
Se       7.18566577      10.58484763       1.45655799       0.00793777      -0.32551725       0.24180836      -0.00000000
Se      11.14942066       6.34598341       1.73114857      -0.37801994       0.59066848      -0.25475095      -0.00000000
Se       9.19438583       8.55245696       4.06023848       0.08375593      -0.14605542      -0.14253671      -0.00000000
72
Lattice="12.40061190610296 -4.6823996841e-06 -2.3094405825e-06 -4.7273049802e-06 12.519528259891192 2.338393526e-06 -2.654051663e-06 2.6617976636e-06 11.070721549889909" Properties=species:S:1:pos:R:3:forces:R:3:magmoms:R:1 energy=-300.41604074 stress="0.007533344927960144 -0.0017261162746333842 -0.0013170738185820866 -0.0017261162746333842 -0.0016438755227154043 -0.0012685371035967123 -0.0013170738185820866 -0.0012685371035967123 -0.007424808498366525" dipole="_JSON [[0.0, 0.0, 0.0]]" magmom=0.0018443 free_energy=-300.41604074 pbc="T T T"
Ge       0.70363056       0.55303374       1.48811693       0.04345133      -0.33306916      -0.06292499       0.00000000
Ge       3.03468950      10.67022068       4.03206433      -0.03330498       0.08739243      -0.53294732      -0.00000000
Ge       6.81761231       2.64720898       4.23560548       0.60117067      -0.23494907      -0.54004151       0.00000000
Ge       7.25034499       6.64219425       3.93194413      -0.54504604      -0.12342666       0.64073142       0.00000000
Ge       6.95212418      10.95365808       4.07357539      -0.00288856      -0.06126307       0.11873121      -0.00000000
Ge      11.22321739       2.61528460       4.24729462      -0.01544010       0.05174584      -0.63586927       0.00000000
Ge      11.03956048       6.67922027       3.88759271       0.17732713      -0.00641318       0.49285905       0.00000000
Ge      11.22856296      10.99700343       4.28120759      -0.11713746      -0.00616108      -0.37332737      -0.00000000
Ge       0.91136147       1.92930924       6.95373363       0.15328373      -0.31312599       0.10310699       0.00000000
Ge       0.97588599       6.07131518       6.85868200       0.32928339       0.02587945       0.00282272      -0.00000000
Ge       0.89257493      10.17439855       6.94888813       0.47089641       0.16404727      -0.44026759      -0.00000000
Ge       5.11121750       1.98771239       6.90007518      -0.29885707      -0.50743455       0.26944875       0.00000000
Ge       5.28254523       5.91563765       6.76948720      -0.40817504       0.31162098       0.42137962      -0.00000000
Ge       5.10917879      10.31522699       7.06710618      -0.18579647       0.01104235      -0.06065962      -0.00000000
Ge       9.17659254       1.97953818       7.06326202       0.30346145      -0.29422911       0.13427812       0.00000000
Ge       9.10842915       6.22181821       7.06869735       0.25411395      -0.04626111       0.12174534       0.00000000
Ge       2.51667032       6.79845797       4.12231471       0.71657030      -0.04965104       0.13886189       0.00000000
Ge       2.95111041       2.45136941       4.26898978      -0.22255126       0.07552225      -0.08828587       0.00000000
Ge       9.11339119      10.24875059       6.89897221      -0.19732768      -0.09274598       0.00624369       0.00000000
Ge      11.39323017       8.25408754       9.41050592      -0.24292666      -0.19057759      -0.12339397      -0.00000000
Ge      11.25566354      12.16102790       9.65019696       0.07005850       0.05628332       0.11342649       0.00000000
Ge       1.21795460       4.34372976       1.54351072      -0.34366668       0.46176583       0.04000099       0.00000000
Ge       0.70335449       8.65719149       1.46796187       0.23818335       0.67532014      -0.27760902      -0.00000000
Ge       4.99602655       0.63874824       1.56932382      -0.04969689      -0.58842899       0.10609047       0.00000000
Ge       5.11931753       4.86082738       1.38295412      -0.79515132      -0.55266120      -0.30678723       0.00000000
Ge       8.97279259       0.45879316       1.48961544       0.26152986       0.21966960       0.03791292       0.00000000
Ge       9.36876445       4.53666895       1.60057082      -0.39167360      -0.19815907      -0.32886828       0.00000000
Ge       5.06421606       8.84616115       1.39798807      -0.60819254       0.15106632       0.14774550      -0.00000000
Ge       3.09557803       3.93730845       9.58442333      -0.01937053       0.39843400      -0.55459376       0.00000000
Ge       3.06910520       8.12556987       9.66635526       0.27121993       0.01332266      -0.32266528      -0.00000000
Ge       2.93139730      12.36228068       9.58382125       0.34394378      -0.58357469      -0.25368811       0.00000000
Ge       7.10097006       3.76631020       9.78500427       0.25537907       0.18084309      -0.18762192       0.00000000
Ge       7.12421882       8.06062286       9.82911380      -0.20690222       0.05057082      -0.53776946       0.00000000
Ge       7.32012675      12.58796404       9.62068745      -0.09250899      -0.77909538      -0.01907743       0.00000000
Ge      11.47763797       4.17076514       9.52736025      -0.34609016       0.25993502      -0.02038810       0.00000000
Ge       9.11864942       8.82166803       1.37791496       0.05518159       0.35557984      -0.14364719       0.00000000
Se      11.36106952       0.20803405       7.16142324      -0.29479730       0.08315089      -0.21013536      -0.00000000
Se       3.25012176       4.20262164       6.88024958      -0.34583250       0.33720337       0.80951276      -0.00000000
Se       3.19439459       8.54518202       7.11237238      -0.47492513      -0.04500296       0.13272409      -0.00000000
Se       7.23556080       0.15908791       7.12752878      -0.02328225       0.39522753      -0.03529364      -0.00000000
Se       7.26421386       4.31081042       7.16773371      -0.15576479      -0.45927317       0.15637796      -0.00000000
Se       7.02600715       8.57906442       7.17515529       0.60508506      -0.28237392       0.19464275      -0.00000000
Se      11.41199488       4.44512811       6.98141665      -0.59382992      -0.05645439       0.16190905      -0.00000000
Se       9.04336219       0.01867751       4.00380442      -0.01580111       0.42059162      -0.06324597      -0.00000000
Se       0.83904622       0.07672427       3.96672143      -0.28268355       0.18067879       0.07198570      -0.00000000
Se       0.84840803       4.26044260       4.10097396      -0.02158863      -0.05241436      -0.36691873      -0.00000000
Se       0.70527875       8.57293776       3.94277009      -0.19783892      -0.04348491       0.10614929      -0.00000000
Se       4.84870883       0.20688608       4.15143773       0.38770507      -0.20428229      -0.38885511      -0.00000000
Se       4.90698654       4.16615288       3.87178737      -0.17629282       0.66172848       0.23016133      -0.00000000
Se       4.70828266       8.30859000       3.92401241       0.28522278       0.55564913      -0.04696861      -0.00000000
Se       2.88810395       0.05218903       7.03232370       0.11833409       0.54742432       0.27295703      -0.00000000
Se      11.19637898       8.57441341       6.83721996      -0.09818898      -0.53366340       0.46500600      -0.00000000
Se      11.07857243      10.54530522       1.66446311       0.07927049      -0.26475632       0.00339209      -0.00000000
Se       2.75193757       2.13704095       1.71580472       0.20354508       0.27679141      -0.28685486      -0.00000000
Se      11.03425313       2.33592324       1.52258269      -0.02877058      -0.27778220       0.78759654      -0.00000000
Se       9.04105640       4.48689396       4.09185553       0.06802938      -0.42952849       0.20256917      -0.00000000
Se       0.94834123       2.48047791       9.47907914       0.33413536      -0.68465970      -0.00705431      -0.00000000
Se       0.99378440       6.45148559       9.36702081       0.01361442      -0.02683541       0.07279941      -0.00000000
Se       0.81944328      10.37193010       9.40215802       0.27135905       0.41185231       0.63050599      -0.00000000
Se       4.90932916       2.08437163       9.46301007       0.48678335       0.02817107       0.01771167      -0.00000000
Se       5.10581943       6.37612091       9.48078812      -0.01442705      -0.02965136      -0.33872167      -0.00000000
Se       5.12833047      10.55789401       9.55441977      -0.21224814       0.82009966       0.11650092      -0.00000000
Se       9.46639944       2.31054969       9.61046714      -0.69441562      -0.03354603      -0.32656638      -0.00000000
Se       9.12355968       6.41503833       9.57498089       0.23091328      -0.01348050      -0.18390626      -0.00000000
Se       9.28294923      10.50208057       9.41215576      -0.21991676       0.37467087       0.20531789      -0.00000000
Se       2.85312445       6.43006108       1.62947826      -0.06999832      -0.51582067      -0.27902538      -0.00000000
Se       2.91686536      10.68995945       1.42786707      -0.09422409      -0.64701129       0.49999687      -0.00000000
Se       7.00173935       2.27633740       1.50335570       0.16346326      -0.03630418       0.61816821      -0.00000000
Se       7.00977073       6.38496074       1.49540692       0.50697712       0.39477903      -0.26547113      -0.00000000
Se       6.90492712      10.66566443       1.55801260       0.33051656      -0.10166503       0.04759684      -0.00000000
Se      11.16013590       6.31656098       1.45104712       0.30254968       0.25713796      -0.31687663      -0.00000000
Se       9.02592190       8.39871191       3.85645666       0.20497222       0.40401986       0.22736062      -0.00000000
72
Lattice="12.396982528575858 -4.681029252e-06 -2.3087646617e-06 -4.7279917952e-06 12.521347182063927 2.3387332637e-06 -2.6549297823e-06 2.6626783457e-06 11.07438440783094" Properties=species:S:1:pos:R:3:forces:R:3:magmoms:R:1 energy=-300.77934794 stress="0.00664557900906302 -8.22708422334757e-05 0.0015878065482754049 -8.22708422334757e-05 -0.005940691023969285 -0.001985022074789721 0.0015878065482754049 -0.001985022074789721 -0.01430766394441199" dipole="_JSON [[0.0, 0.0, 0.0]]" magmom=0.0018511 free_energy=-300.77934794 pbc="T T T"
Ge       0.68844034       0.58472570       1.60997834       0.27686164      -0.15355681      -0.15107197       0.00000000
Ge       2.97847030      10.90936225       3.88878820      -0.06837728       0.07159789       0.99104901       0.00000000
Ge       6.93401339       2.41931268       3.99863337      -0.13756619       0.44850546       1.29190959      -0.00000000
Ge       7.08291219       6.62882137       4.02061186      -0.08182065       0.25799192      -0.47349109       0.00000000
Ge       7.17460646      10.79277105       4.04953237      -0.24730039       0.30175432       0.06798990       0.00000000
Ge      11.10477770       2.52058818       4.11479534       0.24741118       0.00908992       1.16487504      -0.00000000
Ge      11.03050971       6.81265246       4.06055401       0.28682046      -0.10366171      -0.43349261       0.00000000
Ge      11.14806167      10.85956169       3.98635304      -0.12372499      -0.02738759       0.29009739       0.00000000
Ge       0.96196141       1.82945475       6.93159803      -0.10590846       0.30161026       0.24937786       0.00000000
Ge       1.00391595       5.99179164       6.88272880      -0.21479877       0.25779697       0.14630972       0.00000000
Ge       1.11279832      10.24457455       6.86192482      -0.65057182       0.12986188       0.38729163       0.00000000
Ge       4.92858517       2.02432443       6.95402002       0.40008379      -0.36456312      -0.01019707       0.00000000