72
Lattice="12.417591459994602 -4.6888110659e-06 -2.312602787e-06 -4.7226246308e-06 12.50713308606078 2.3360783594e-06 -2.6499142783e-06 2.6576482037e-06 11.053463470507442" Properties=species:S:1:pos:R:3:forces:R:3:magmoms:R:1 energy=-300.63510171 stress="0.00913140523339735 0.0015833952493535225 -0.0004378110258841196 0.0015833952493535225 -0.0033599762348997574 -0.002114893655300054 -0.0004378110258841196 -0.002114893655300054 -0.007924596436602803" dipole="_JSON [[0.0, 0.0, 0.0]]" magmom=0.001817 free_energy=-300.63510171 pbc="T T T"
Ge       0.81847229       0.58450155       1.53590331       0.09462756      -0.18042734      -0.84318578      -0.00000000
Ge       3.03563367      10.98523799       4.28330142      -0.06390475       0.26957854      -0.52149109      -0.00000000
Ge       6.99257829       2.43199601       3.98883804       0.02741041       0.45470359      -0.22766628       0.00000000
Ge       7.25087792       6.70062335       4.13499526      -0.35675599       0.38937551       0.66124080       0.00000000
Ge       7.15293550      10.89471665       3.98006838      -0.07209833      -0.02939091      -0.05260154      -0.00000000
Ge      11.18324653       2.69996104       3.84982638       0.07201187       0.07746062      -0.22468753       0.00000000
Ge      11.31548873       6.87938791       4.24947669      -0.20668968      -0.26897851       0.23518901       0.00000000
Ge      11.20583991      10.82434935       4.07059930       0.18089502       0.26284954      -0.24967000      -0.00000000
Ge       1.00329275       1.95127958       6.89332662       0.14838880      -0.40198652       0.07744363       0.00000000
Ge       0.90372342       5.99791988       7.07316085      -0.58516431       0.39710152      -0.28299304       0.00000000
Ge       0.87453725      10.23777254       6.95249471      -0.18457626      -0.36915114       0.38027561      -0.00000000
Ge       5.05701162       1.97757889       6.84318760       0.23415475      -0.43223812       0.00371037       0.00000000
Ge       4.76666365       6.23359736       6.89248914       0.09257655      -0.30140359       0.55218883       0.00000000
Ge       4.99371958      10.31685236       7.12585647       0.03079796      -0.14921677      -0.07903300      -0.00000000
Ge       9.18262943       1.88533747       7.01482666      -0.15975225       0.07592746       0.15662098       0.00000000
Ge       9.29245633       5.84002481       6.70312403      -0.48124934       0.35891825       0.23444239       0.00000000
Ge       2.89165657       6.53931747       3.92657135       0.10682376       0.40470490       0.32704928       0.00000000
Ge       2.91937673       2.53545176       4.24644814      -0.24072751       0.34969168      -0.33274907       0.00000000
Ge       9.23594384      10.14446384       6.90678496      -0.02489941       0.06734541       0.82531745       0.00000000
Ge      11.21344340       7.91533292       9.85218568       0.15793782       0.23033575      -0.03344336      -0.00000000
Ge      11.33693406      12.34151330       9.43733674      -0.14150616      -0.33437908       1.33057003       0.00000000
Ge       0.58742300       4.78272857       1.27233405       0.70906990      -0.52571528       0.37193212       0.00000000
Ge       0.82963238       8.84380087       1.55050488       0.33872843       0.16602464      -0.10425965       0.00000000
Ge       5.00921176       0.56660070       1.40379292      -0.15112100      -0.28547460       0.04948859      -0.00000000
Ge       5.04526701       4.77777985       1.48163180      -0.35932671      -0.15290243      -0.08078934       0.00000000
Ge       9.06615761       0.49025519       1.32415070       0.08929265      -0.05435023       0.15673592       0.00000000
Ge       8.93707871       4.68813099       1.42155988       0.48554682      -0.36424913      -0.21924799       0.00000000
Ge       4.87897807       8.88931254       1.46541738       0.35047016      -0.20146511       0.12351987       0.00000000
Ge       3.04164973       3.71758179       9.84144361      -0.26234766       0.57841990      -0.33080027       0.00000000
Ge       2.81121921       7.99009452       9.63732954       0.13471863       0.43474507       0.07874824       0.00000000
Ge       3.05221704      12.28958994       9.72694517      -0.17820307      -0.14766077      -0.50540665      -0.00000000
Ge       6.97866108       3.99357275       9.49261880       0.17802340       0.09491202      -0.24141710       0.00000000
Ge       7.17262255       7.97855442       9.57155352      -0.06537220       0.45272251      -0.02579054      -0.00000000
Ge       7.20853834      12.32969651       9.51602920      -0.12248117       0.04024271      -0.18431901       0.00000000
Ge      11.00424348       3.84828380       9.61864918       0.17785867       0.05425229      -0.20961750       0.00000000
Ge       9.21704943       8.68898694       1.50086554      -0.04852082       0.78178656      -0.06086358       0.00000000
Se      11.27705762       0.19555900       7.09400661       0.10858584       0.09564143      -1.19154807      -0.00000000
Se       2.77061604       4.38648261       7.18193751       0.95666024      -0.32266257       0.20111248      -0.00000000
Se       2.92049058       8.40068334       7.09858553       0.12628548       0.20784757       0.03136241      -0.00000000
Se       7.21409252       0.15395526       6.91089272      -0.35623539       0.12321536       0.35561724      -0.00000000
Se       7.12925623       4.27302315       6.93177099       0.01661237       0.16779721       0.34051477      -0.00000000
Se       7.08023647       8.68171665       7.10016728       0.09194186      -0.58058276       0.00656437      -0.00000000
Se      11.20088233       4.25903069       7.01785373       0.52827765      -0.50973691       0.18245539      -0.00000000
Se       9.23215414       0.03924599       3.89547127      -0.09706182       0.48841077      -0.10844528      -0.00000000
Se       0.76422632       0.15974257       3.94025520       0.32999474      -0.12160076       0.89016923      -0.00000000
Se       0.90032866       4.42179437       3.90727310      -0.05447161      -0.43581546      -0.19307834      -0.00000000
Se       0.85947296       8.50369295       4.07917314       0.32939756      -0.04841083      -0.14011945      -0.00000000
Se       5.16197388       0.24187740       3.94592171      -0.15154832      -0.36313010      -0.04928682      -0.00000000
Se       4.85599019       4.26636446       3.99324624       0.57648355       0.02756845       0.05986821      -0.00000000
Se       5.01024928       8.37533856       3.99767280       0.14607101       0.04672495      -0.05703925      -0.00000000
Se       3.20175279       0.13833430       6.98703961      -0.55079122       0.18636863       0.47322062      -0.00000000
Se      11.28438697       8.45570751       7.36110655       0.04801793       0.36681049      -0.47456290      -0.00000000
Se      11.42920602      10.62851911       1.52560839      -0.68732448      -0.38950735       0.15514177      -0.00000000
Se       2.97476979       2.15920441       1.70603862      -0.09855744       0.24867482      -0.12516755      -0.00000000
Se      11.23142259       2.34779948       1.22695837       0.02708930      -0.15107647       0.92360224      -0.00000000
Se       9.09225292       4.37510933       3.88824185       0.05929339      -0.56074294       0.31870231      -0.00000000
Se       1.14212800       2.07364992       9.40706537      -0.61901038       0.08598194       0.17163059      -0.00000000
Se       0.88633643       6.24945763       9.58956920      -0.25334503       0.09866436       0.11554166      -0.00000000
Se       0.97676285      10.56018492       9.48815444       0.13481767       0.23435987      -0.13341495      -0.00000000
Se       5.04333555       2.24430182       9.37248666       0.24689770      -0.28567682       0.05502830      -0.00000000
Se       4.98734532       6.46322426       9.55058449       0.19019692      -0.32542072      -0.63205399      -0.00000000
Se       5.18179541      10.67455353       9.60653209      -0.31022823      -0.29031215      -0.09329801      -0.00000000
Se       9.03522411       2.15837235       9.62363098       0.15813314       0.30895826      -0.64287132      -0.00000000
Se       9.26396995       6.30591085       9.34119967      -0.16276558      -0.29856509      -0.04241058      -0.00000000
Se       9.07634986      10.61663187       9.61856102       0.61567667      -0.09034862      -0.83601865      -0.00000000
Se       3.01357680       6.48192425       1.46181338      -0.09160998      -0.20928069      -0.21644153      -0.00000000
Se       3.07213745      10.64357957       1.67003961      -0.56899106      -0.05478211       0.22079160      -0.00000000
Se       7.08489974       2.26759866       1.38123383       0.05181359       0.07761674       0.54885759      -0.00000000
Se       7.13300659       6.41442452       1.68851703      -0.35861634       0.41180674      -0.71338557      -0.00000000
Se       7.18566577      10.58484763       1.45655799       0.00793777      -0.32551725       0.24180836      -0.00000000
Se      11.14942066       6.34598341       1.73114857      -0.37801994       0.59066848      -0.25475095      -0.00000000
Se       9.19438583       8.55245696       4.06023848       0.08375593      -0.14605542      -0.14253671      -0.00000000
