 running  128 mpi-ranks, with    1 threads/rank, on    2 nodes
 distrk:  each k-point on   64 cores,    2 groups
 distr:  one band on    4 cores,   16 groups
 vasp.6.4.2 20Jul23 (build Oct 12 2023 10:31:02) complex                         
 POSCAR found type information on POSCAR GeSe
 POSCAR found :  2 types and       8 ions
 Reading from existing POTCAR
 scaLAPACK will be used
 Reading from existing POTCAR
 LDA part: xc-table for Pade appr. of Perdew
 POSCAR, INCAR and KPOINTS ok, starting setup
 FFT: planning ... GRIDC
 FFT: planning ... GRID_SOFT
 FFT: planning ... GRID
 WAVECAR not read
 entering main loop
       N       E                     dE             d eps       ncg     rms          rms(c)
DAV:   1     0.131443504404E+03    0.13144E+03   -0.12705E+04  2560   0.767E+02
DAV:   2    -0.248929086013E+02   -0.15634E+03   -0.15160E+03  3744   0.137E+02
DAV:   3    -0.340010269712E+02   -0.91081E+01   -0.90863E+01  3200   0.385E+01
DAV:   4    -0.340667533945E+02   -0.65726E-01   -0.65720E-01  3216   0.375E+00
DAV:   5    -0.340671566247E+02   -0.40323E-03   -0.40323E-03  3184   0.288E-01    0.611E+00
DAV:   6    -0.335500024367E+02    0.51715E+00   -0.11166E+00  2992   0.347E+00    0.378E+00
DAV:   7    -0.335412348819E+02    0.87676E-02   -0.26411E-01  3104   0.180E+00    0.152E+00
DAV:   8    -0.335406883364E+02    0.54655E-03   -0.26603E-02  2928   0.626E-01    0.177E-01
DAV:   9    -0.335406667576E+02    0.21579E-04   -0.44814E-03  3056   0.281E-01    0.707E-02
DAV:  10    -0.335407859571E+02   -0.11920E-03   -0.46913E-04  2960   0.958E-02    0.239E-02
DAV:  11    -0.335408063355E+02   -0.20378E-04   -0.40074E-05  2928   0.294E-02    0.134E-02
DAV:  12    -0.335408061424E+02    0.19312E-06   -0.85389E-06  3152   0.121E-02
   1 F= -.33540806E+02 E0= -.33540806E+02  d E =-.476695E-12
