 running  128 mpi-ranks, with    1 threads/rank, on    2 nodes
 distrk:  each k-point on   64 cores,    2 groups
 distr:  one band on    8 cores,    8 groups
 vasp.6.4.2 20Jul23 (build Oct 12 2023 10:31:02) complex                         
 POSCAR found type information on POSCAR GeSe
 POSCAR found :  2 types and      72 ions
 Reading from existing POTCAR
 -----------------------------------------------------------------------------
|                                                                             |
|           W    W    AA    RRRRR   N    N  II  N    N   GGGG   !!!           |
|           W    W   A  A   R    R  NN   N  II  NN   N  G    G  !!!           |
|           W    W  A    A  R    R  N N  N  II  N N  N  G       !!!           |
|           W WW W  AAAAAA  RRRRR   N  N N  II  N  N N  G  GGG   !            |
|           WW  WW  A    A  R   R   N   NN  II  N   NN  G    G                |
|           W    W  A    A  R    R  N    N  II  N    N   GGGG   !!!           |
|                                                                             |
|     You use a magnetic or noncollinear calculation, but did not specify     |
|     the initial magnetic moment with the MAGMOM tag. Note that a            |
|     default of 1 will be used for all atoms. This ferromagnetic setup       |
|     may break the symmetry of the crystal, in particular it may rule        |
|     out finding an antiferromagnetic solution. Thence, we recommend         |
|     setting the initial magnetic moment manually or verifying carefully     |
|     that this magnetic setup is desired.                                    |
|                                                                             |
 -----------------------------------------------------------------------------

 scaLAPACK will be used
 Reading from existing POTCAR
 -----------------------------------------------------------------------------
|                                                                             |
|               ----> ADVICE to this user running VASP <----                  |
|                                                                             |
|     You have a (more or less) 'large supercell' and for larger cells it     |
|     might be more efficient to use real-space projection operators.         |
|     Therefore, try LREAL= Auto in the INCAR file.                           |
|     Mind: For very accurate calculation, you might also keep the            |
|     reciprocal projection scheme (i.e. LREAL=.FALSE.).                      |
|                                                                             |
 -----------------------------------------------------------------------------

 LDA part: xc-table for Pade appr. of Perdew
 -----------------------------------------------------------------------------
|                                                                             |
|           W    W    AA    RRRRR   N    N  II  N    N   GGGG   !!!           |
|           W    W   A  A   R    R  NN   N  II  NN   N  G    G  !!!           |
|           W    W  A    A  R    R  N N  N  II  N N  N  G       !!!           |
|           W WW W  AAAAAA  RRRRR   N  N N  II  N  N N  G  GGG   !            |
|           WW  WW  A    A  R   R   N   NN  II  N   NN  G    G                |
|           W    W  A    A  R    R  N    N  II  N    N   GGGG   !!!           |
|                                                                             |
|     The number of bands has been changed from the values supplied in        |
|     the INCAR file. This is a result of running the parallel version.       |
|     The orbitals not found in the WAVECAR file will be initialized with     |
|     random numbers, which is usually adequate. For correlated               |
|     calculations, however, you should redo the groundstate calculation.     |
|     I found NBANDS = 220. Now, NBANDS = 224.                                |
|                                                                             |
 -----------------------------------------------------------------------------

 POSCAR, INCAR and KPOINTS ok, starting setup
 FFT: planning ... GRIDC
 FFT: planning ... GRID_SOFT
 FFT: planning ... GRID
 WAVECAR not read
 WARNING: random wavefunctions but no delay for mixing, default for NELMDL
 entering main loop
       N       E                     dE             d eps       ncg     rms          rms(c)
DAV:   1     0.181153224522E+04    0.18115E+04   -0.14185E+05  7168   0.135E+03
DAV:   2    -0.641382721416E+02   -0.18757E+04   -0.17996E+04  8464   0.204E+02
DAV:   3    -0.282122746043E+03   -0.21798E+03   -0.21220E+03  8640   0.691E+01
DAV:   4    -0.289933720385E+03   -0.78110E+01   -0.77201E+01  8704   0.129E+01
DAV:   5    -0.290227174149E+03   -0.29345E+00   -0.29263E+00  9104   0.212E+00    0.291E+01
DAV:   6    -0.289764088730E+03    0.46309E+00   -0.26877E+01  7912   0.762E+00    0.172E+01
DAV:   7    -0.297182834669E+03   -0.74187E+01   -0.86399E+00  8008   0.446E+00    0.906E+00
DAV:   8    -0.300415879879E+03   -0.32330E+01   -0.17344E+00  8192   0.224E+00    0.333E+00
DAV:   9    -0.300793848252E+03   -0.37797E+00   -0.42045E-01  9120   0.997E-01    0.148E+00
DAV:  10    -0.300903004528E+03   -0.10916E+00   -0.98969E-02  8176   0.470E-01    0.725E-01
DAV:  11    -0.300933765941E+03   -0.30761E-01   -0.35212E-02  8752   0.278E-01    0.278E-01
DAV:  12    -0.300936984279E+03   -0.32183E-02   -0.45565E-03  8696   0.117E-01    0.970E-02
DAV:  13    -0.300937065683E+03   -0.81404E-04   -0.49453E-04  9744   0.345E-02    0.386E-02
DAV:  14    -0.300937076659E+03   -0.10975E-04   -0.71943E-05  8240   0.172E-02    0.153E-02
DAV:  15    -0.300937079416E+03   -0.27572E-05   -0.12639E-05  8624   0.796E-03    0.700E-03
DAV:  16    -0.300937080314E+03   -0.89813E-06   -0.13668E-06  4728   0.256E-03
   1 F= -.30093708E+03 E0= -.30093708E+03  d E =-.234892E-14  mag=     0.0005
