 running  128 mpi-ranks, with    1 threads/rank, on    2 nodes
 distrk:  each k-point on   64 cores,    2 groups
 distr:  one band on    4 cores,   16 groups
 vasp.6.4.2 20Jul23 (build Oct 12 2023 10:31:02) complex                         
 POSCAR found type information on POSCAR GeSe
 POSCAR found :  2 types and       8 ions
 Reading from existing POTCAR
 scaLAPACK will be used
 Reading from existing POTCAR
 LDA part: xc-table for Pade appr. of Perdew
 POSCAR, INCAR and KPOINTS ok, starting setup
 FFT: planning ... GRIDC
 FFT: planning ... GRID_SOFT
 FFT: planning ... GRID
 WAVECAR not read
 entering main loop
       N       E                     dE             d eps       ncg     rms          rms(c)
DAV:   1     0.134438265857E+03    0.13444E+03   -0.12459E+04  2560   0.757E+02
DAV:   2    -0.235686912744E+02   -0.15801E+03   -0.15307E+03  3728   0.136E+02
DAV:   3    -0.335211794138E+02   -0.99525E+01   -0.99259E+01  3200   0.397E+01
DAV:   4    -0.335981969651E+02   -0.77018E-01   -0.77011E-01  3088   0.405E+00
DAV:   5    -0.335987203192E+02   -0.52335E-03   -0.52335E-03  3200   0.327E-01    0.604E+00
DAV:   6    -0.328764043987E+02    0.72232E+00   -0.16675E+00  2832   0.412E+00    0.366E+00
DAV:   7    -0.328699859553E+02    0.64184E-02   -0.30919E-01  2976   0.194E+00    0.172E+00
DAV:   8    -0.328695807381E+02    0.40522E-03   -0.32320E-02  2944   0.711E-01    0.191E-01
DAV:   9    -0.328691792782E+02    0.40146E-03   -0.65078E-03  3088   0.322E-01    0.825E-02
DAV:  10    -0.328694173334E+02   -0.23806E-03   -0.74894E-04  2848   0.118E-01    0.290E-02
DAV:  11    -0.328694550927E+02   -0.37759E-04   -0.54289E-05  3088   0.342E-02    0.159E-02
DAV:  12    -0.328694559232E+02   -0.83043E-06   -0.14310E-05  2896   0.151E-02    0.391E-03
DAV:  13    -0.328694568322E+02   -0.90907E-06   -0.18163E-06  2304   0.499E-03
   1 F= -.32869457E+02 E0= -.32869457E+02  d E =-.124161E-11
