 running  128 mpi-ranks, with    1 threads/rank, on    2 nodes
 distrk:  each k-point on   64 cores,    2 groups
 distr:  one band on    8 cores,    8 groups
 vasp.6.4.2 20Jul23 (build Oct 12 2023 10:31:02) complex                         
 POSCAR found type information on POSCAR GeSe
 POSCAR found :  2 types and      72 ions
 Reading from existing POTCAR
 -----------------------------------------------------------------------------
|                                                                             |
|           W    W    AA    RRRRR   N    N  II  N    N   GGGG   !!!           |
|           W    W   A  A   R    R  NN   N  II  NN   N  G    G  !!!           |
|           W    W  A    A  R    R  N N  N  II  N N  N  G       !!!           |
|           W WW W  AAAAAA  RRRRR   N  N N  II  N  N N  G  GGG   !            |
|           WW  WW  A    A  R   R   N   NN  II  N   NN  G    G                |
|           W    W  A    A  R    R  N    N  II  N    N   GGGG   !!!           |
|                                                                             |
|     You use a magnetic or noncollinear calculation, but did not specify     |
|     the initial magnetic moment with the MAGMOM tag. Note that a            |
|     default of 1 will be used for all atoms. This ferromagnetic setup       |
|     may break the symmetry of the crystal, in particular it may rule        |
|     out finding an antiferromagnetic solution. Thence, we recommend         |
|     setting the initial magnetic moment manually or verifying carefully     |
|     that this magnetic setup is desired.                                    |
|                                                                             |
 -----------------------------------------------------------------------------

 scaLAPACK will be used
 Reading from existing POTCAR
 -----------------------------------------------------------------------------
|                                                                             |
|               ----> ADVICE to this user running VASP <----                  |
|                                                                             |
|     You have a (more or less) 'large supercell' and for larger cells it     |
|     might be more efficient to use real-space projection operators.         |
|     Therefore, try LREAL= Auto in the INCAR file.                           |
|     Mind: For very accurate calculation, you might also keep the            |
|     reciprocal projection scheme (i.e. LREAL=.FALSE.).                      |
|                                                                             |
 -----------------------------------------------------------------------------

 LDA part: xc-table for Pade appr. of Perdew
 -----------------------------------------------------------------------------
|                                                                             |
|           W    W    AA    RRRRR   N    N  II  N    N   GGGG   !!!           |
|           W    W   A  A   R    R  NN   N  II  NN   N  G    G  !!!           |
|           W    W  A    A  R    R  N N  N  II  N N  N  G       !!!           |
|           W WW W  AAAAAA  RRRRR   N  N N  II  N  N N  G  GGG   !            |
|           WW  WW  A    A  R   R   N   NN  II  N   NN  G    G                |
|           W    W  A    A  R    R  N    N  II  N    N   GGGG   !!!           |
|                                                                             |
|     The number of bands has been changed from the values supplied in        |
|     the INCAR file. This is a result of running the parallel version.       |
|     The orbitals not found in the WAVECAR file will be initialized with     |
|     random numbers, which is usually adequate. For correlated               |
|     calculations, however, you should redo the groundstate calculation.     |
|     I found NBANDS = 220. Now, NBANDS = 224.                                |
|                                                                             |
 -----------------------------------------------------------------------------

 POSCAR, INCAR and KPOINTS ok, starting setup
 FFT: planning ... GRIDC
 FFT: planning ... GRID_SOFT
 FFT: planning ... GRID
 WAVECAR not read
 WARNING: random wavefunctions but no delay for mixing, default for NELMDL
 entering main loop
       N       E                     dE             d eps       ncg     rms          rms(c)
DAV:   1     0.186157978266E+04    0.18616E+04   -0.14240E+05  7168   0.135E+03
DAV:   2    -0.439907382548E+02   -0.19056E+04   -0.18308E+04  8472   0.207E+02
DAV:   3    -0.262848236856E+03   -0.21886E+03   -0.21207E+03  8672   0.699E+01
DAV:   4    -0.271048791185E+03   -0.82006E+01   -0.80773E+01  8704   0.133E+01
DAV:   5    -0.271387391168E+03   -0.33860E+00   -0.33750E+00  9080   0.225E+00    0.321E+01
DAV:   6    -0.268474385938E+03    0.29130E+01   -0.29901E+01  8600   0.885E+00    0.189E+01
DAV:   7    -0.276159872057E+03   -0.76855E+01   -0.10718E+01  7904   0.521E+00    0.103E+01
DAV:   8    -0.279333016368E+03   -0.31731E+01   -0.22430E+00  8296   0.260E+00    0.403E+00
DAV:   9    -0.279876234654E+03   -0.54322E+00   -0.53233E-01  9024   0.114E+00    0.177E+00
DAV:  10    -0.280049419911E+03   -0.17319E+00   -0.18554E-01  8416   0.647E-01    0.862E-01
DAV:  11    -0.280092551339E+03   -0.43131E-01   -0.44377E-02  9112   0.328E-01    0.409E-01
DAV:  12    -0.280101015065E+03   -0.84637E-02   -0.92105E-03  8384   0.162E-01    0.183E-01
DAV:  13    -0.280102119254E+03   -0.11042E-02   -0.18688E-03  9352   0.673E-02    0.728E-02
DAV:  14    -0.280102254675E+03   -0.13542E-03   -0.19290E-04  8952   0.243E-02    0.294E-02
DAV:  15    -0.280102273977E+03   -0.19302E-04   -0.42886E-05  8536   0.119E-02    0.152E-02
DAV:  16    -0.280102279412E+03   -0.54347E-05   -0.65177E-06  8424   0.480E-03    0.741E-03
DAV:  17    -0.280102281702E+03   -0.22904E-05   -0.14699E-06  4736   0.241E-03    0.364E-03
DAV:  18    -0.280102282720E+03   -0.10174E-05   -0.10263E-06  4504   0.163E-03    0.201E-03
DAV:  19    -0.280102283005E+03   -0.28511E-06   -0.26276E-07  4352   0.911E-04
   1 F= -.28010228E+03 E0= -.28010223E+03  d E =-.108633E-03  mag=    -0.0001
