 running   32 mpi-ranks, with    1 threads/rank, on    2 nodes
 distrk:  each k-point on   16 cores,    2 groups
 distr:  one band on    1 cores,   16 groups
 vasp.6.4.2 20Jul23 (build Oct 12 2023 10:31:02) complex                         
 POSCAR found type information on POSCAR GeSe
 POSCAR found :  2 types and       8 ions
 Reading from existing POTCAR
 -----------------------------------------------------------------------------
|                                                                             |
|           W    W    AA    RRRRR   N    N  II  N    N   GGGG   !!!           |
|           W    W   A  A   R    R  NN   N  II  NN   N  G    G  !!!           |
|           W    W  A    A  R    R  N N  N  II  N N  N  G       !!!           |
|           W WW W  AAAAAA  RRRRR   N  N N  II  N  N N  G  GGG   !            |
|           WW  WW  A    A  R   R   N   NN  II  N   NN  G    G                |
|           W    W  A    A  R    R  N    N  II  N    N   GGGG   !!!           |
|                                                                             |
|     You use a magnetic or noncollinear calculation, but did not specify     |
|     the initial magnetic moment with the MAGMOM tag. Note that a            |
|     default of 1 will be used for all atoms. This ferromagnetic setup       |
|     may break the symmetry of the crystal, in particular it may rule        |
|     out finding an antiferromagnetic solution. Thence, we recommend         |
|     setting the initial magnetic moment manually or verifying carefully     |
|     that this magnetic setup is desired.                                    |
|                                                                             |
 -----------------------------------------------------------------------------

 scaLAPACK will be used
 Reading from existing POTCAR
 LDA part: xc-table for Pade appr. of Perdew
 -----------------------------------------------------------------------------
|                                                                             |
|           W    W    AA    RRRRR   N    N  II  N    N   GGGG   !!!           |
|           W    W   A  A   R    R  NN   N  II  NN   N  G    G  !!!           |
|           W    W  A    A  R    R  N N  N  II  N N  N  G       !!!           |
|           W WW W  AAAAAA  RRRRR   N  N N  II  N  N N  G  GGG   !            |
|           WW  WW  A    A  R   R   N   NN  II  N   NN  G    G                |
|           W    W  A    A  R    R  N    N  II  N    N   GGGG   !!!           |
|                                                                             |
|     The number of bands has been changed from the values supplied in        |
|     the INCAR file. This is a result of running the parallel version.       |
|     The orbitals not found in the WAVECAR file will be initialized with     |
|     random numbers, which is usually adequate. For correlated               |
|     calculations, however, you should redo the groundstate calculation.     |
|     I found NBANDS = 220. Now, NBANDS = 224.                                |
|                                                                             |
 -----------------------------------------------------------------------------

 POSCAR, INCAR and KPOINTS ok, starting setup
 FFT: planning ... GRIDC
 FFT: planning ... GRID_SOFT
 FFT: planning ... GRID
 WAVECAR not read
 WARNING: random wavefunctions but no delay for mixing, default for NELMDL
 entering main loop
       N       E                     dE             d eps       ncg     rms          rms(c)
DAV:   1     0.175637935560E+03    0.17564E+03   -0.10165E+04 28672   0.153E+02
DAV:   2    -0.222385329739E+02   -0.19788E+03   -0.17750E+03 34608   0.493E+01
DAV:   3    -0.299940119067E+02   -0.77555E+01   -0.76483E+01 33920   0.982E+00
DAV:   4    -0.300076134753E+02   -0.13602E-01   -0.13599E-01 33728   0.342E-01
DAV:   5    -0.300076175530E+02   -0.40777E-05   -0.40773E-05 32832   0.730E-03    0.109E+01
DAV:   6    -0.305835180702E+02   -0.57590E+00   -0.40290E-01 32080   0.678E-01    0.592E+00
DAV:   7    -0.313390174630E+02   -0.75550E+00   -0.11895E-01 31488   0.453E-01    0.241E+00
DAV:   8    -0.313830576567E+02   -0.44040E-01   -0.41577E-02 33040   0.216E-01    0.698E-01
DAV:   9    -0.313759088180E+02    0.71488E-02   -0.32838E-03 33008   0.553E-02    0.245E-01
DAV:  10    -0.313763938148E+02   -0.48500E-03   -0.33052E-04 32304   0.197E-02    0.101E-01
DAV:  11    -0.313769271578E+02   -0.53334E-03   -0.14860E-04 32352   0.140E-02    0.343E-02
DAV:  12    -0.313769926006E+02   -0.65443E-04   -0.26117E-05 33808   0.530E-03    0.136E-02
DAV:  13    -0.313769984262E+02   -0.58256E-05   -0.33281E-06 32976   0.197E-03    0.629E-03
DAV:  14    -0.313769994045E+02   -0.97826E-06   -0.53745E-07 32624   0.831E-04
   1 F= -.31376999E+02 E0= -.31375514E+02  d E =-.297169E-02  mag=     0.0007
 writing wavefunctions
