 vasp.6.4.2 20Jul23 (build Oct 12 2023 10:31:02) complex                         
 executed on              LinuxNV date 2025.05.27  13:22:20
 running   32 mpi-ranks, with    1 threads/rank, on    2 nodes
 distrk:  each k-point on   16 cores,    2 groups
 distr:  one band on NCORE=   1 cores,   16 groups


--------------------------------------------------------------------------------------------------------


 INCAR:
   ENCUT = 520.000000
   SIGMA = 0.050000
   EDIFF = 1.00e-06
   ALGO = N
   GGA = PE
   PREC = Accurate
   SYSTEM = 02_SCF
   ICHARG = 0
   ISMEAR = 0
   ISPIN = 2
   ISTART = 1
   KPAR = 2
   LORBIT = 11
   NBANDS = 220
   NELM = 100
   NELMIN = 5
   LASPH = .TRUE.
   LCHARG = .TRUE.
   LWAVE = .TRUE.
   LREAL = .FALSE.

 POTCAR:    PAW_PBE Ge 05Jan2001                  
 POTCAR:    PAW_PBE Se 06Sep2000                  
 -----------------------------------------------------------------------------
|                                                                             |
|           W    W    AA    RRRRR   N    N  II  N    N   GGGG   !!!           |
|           W    W   A  A   R    R  NN   N  II  NN   N  G    G  !!!           |
|           W    W  A    A  R    R  N N  N  II  N N  N  G       !!!           |
|           W WW W  AAAAAA  RRRRR   N  N N  II  N  N N  G  GGG   !            |
|           WW  WW  A    A  R   R   N   NN  II  N   NN  G    G                |
|           W    W  A    A  R    R  N    N  II  N    N   GGGG   !!!           |
|                                                                             |
|     You use a magnetic or noncollinear calculation, but did not specify     |
|     the initial magnetic moment with the MAGMOM tag. Note that a            |
|     default of 1 will be used for all atoms. This ferromagnetic setup       |
|     may break the symmetry of the crystal, in particular it may rule        |
|     out finding an antiferromagnetic solution. Thence, we recommend         |
|     setting the initial magnetic moment manually or verifying carefully     |
|     that this magnetic setup is desired.                                    |
|                                                                             |
 -----------------------------------------------------------------------------

 POTCAR:    PAW_PBE Ge 05Jan2001                  
   VRHFIN =Ge: s2p2                                                                                 
   LEXCH  = PE                                                                                      
   EATOM  =   104.9960 eV,    7.7170 Ry                                                             
                                                                                                    
   TITEL  = PAW_PBE Ge 05Jan2001                                                                    
   LULTRA =        F    use ultrasoft PP ?                                                          
   IUNSCR =        1    unscreen: 0-lin 1-nonlin 2-no                                               
   RPACOR =    2.170    partial core radius                                                         
   POMASS =   72.610; ZVAL   =    4.000    mass and valenz                                          
   RCORE  =    2.300    outmost cutoff radius                                                       
   RWIGS  =    2.300; RWIGS  =    1.217    wigner-seitz radius (au A)                               
   ENMAX  =  173.807; ENMIN  =  130.355 eV                                                          
   ICORE  =        3    local potential                                                             
   LCOR   =        T    correct aug charges                                                         
   LPAW   =        T    paw PP                                                                      
   EAUG   =  385.843                                                                                
   DEXC   =    0.000                                                                                
   RMAX   =    2.342    core radius for proj-oper                                                   
   RAUG   =    1.300    factor for augmentation sphere                                              
   RDEP   =    2.318    radius for radial grids                                                     
   RDEPT  =    2.103    core radius for aug-charge                                                  
                                                                                                    
   Atomic configuration                                                                             
   10 entries                                                                                       
     n  l   j            E        occ.                                                              
     1  0  0.50    -10959.8463   2.0000                                                             
     2  0  0.50     -1371.6056   2.0000                                                             
     2  1  1.50     -1198.4791   6.0000                                                             
     3  0  0.50      -168.4733   2.0000                                                             
     3  1  1.50      -115.6019   6.0000                                                             
     3  2  2.50       -29.3106  10.0000                                                             
     4  0  0.50       -11.7309   2.0000                                                             
     4  1  0.50        -3.8952   2.0000                                                             
     4  2  1.50        -4.0817   0.0000                                                             
     4  3  2.50        -4.0817   0.0000                                                             
   Description                                                                                      
     l       E           TYP  RCUT    TYP  RCUT                                                     
     0    -11.7309493     23  2.300                                                                 
     0     -7.4578696     23  2.300                                                                 
     1     -3.8952261     23  2.300                                                                 
     1      6.1178114     23  2.300                                                                 
     2     -4.0817478     23  2.300                                                                 
     3     -1.3605826      7  2.300                                                                 
  local pseudopotential read in
  partial core-charges read in
  partial kinetic energy density read in
  atomic valenz-charges read in
  non local Contribution for L=            0  read in
    real space projection operators read in
  non local Contribution for L=            0  read in
    real space projection operators read in
  non local Contribution for L=            1  read in
    real space projection operators read in
  non local Contribution for L=            1  read in
    real space projection operators read in
  non local Contribution for L=            2  read in
    real space projection operators read in
    PAW grid and wavefunctions read in
 
   number of l-projection  operators is LMAX  =            5
   number of lm-projection operators is LMMAX =           13
 
 POTCAR:    PAW_PBE Se 06Sep2000                  
   VRHFIN =Se: s2p4                                                                                 
   LEXCH  = PE                                                                                      
   EATOM  =   257.1286 eV,   18.8984 Ry                                                             
                                                                                                    
   TITEL  = PAW_PBE Se 06Sep2000                                                                    
   LULTRA =        F    use ultrasoft PP ?                                                          
   IUNSCR =        1    unscreen: 0-lin 1-nonlin 2-no                                               
   RPACOR =    1.900    partial core radius                                                         
   POMASS =   78.960; ZVAL   =    6.000    mass and valenz                                          
   RCORE  =    2.100    outmost cutoff radius                                                       
   RWIGS  =    2.200; RWIGS  =    1.164    wigner-seitz radius (au A)                               
   ENMAX  =  211.555; ENMIN  =  158.666 eV                                                          
   ICORE  =        3    local potential                                                             
   LCOR   =        T    correct aug charges                                                         
   LPAW   =        T    paw PP                                                                      
   EAUG   =  446.842                                                                                
   DEXC   =    0.000                                                                                
   RMAX   =    2.147    core radius for proj-oper                                                   
   RAUG   =    1.300    factor for augmentation sphere                                              
   RDEP   =    2.177    radius for radial grids                                                     
   RDEPT  =    1.928    core radius for aug-charge                                                  
                                                                                                    
   Atomic configuration                                                                             
   10 entries                                                                                       
     n  l   j            E        occ.                                                              
     1  0  0.50    -12503.4787   2.0000                                                             
     2  0  0.50     -1606.9547   2.0000                                                             
     2  1  1.50     -1413.3140   6.0000                                                             
     3  0  0.50      -213.4885   2.0000                                                             
     3  1  1.50      -152.9538   6.0000                                                             
     3  2  2.50       -53.1221  10.0000                                                             
     4  0  0.50       -17.2865   2.0000                                                             
     4  1  0.50        -6.5110   4.0000                                                             
     4  2  2.50        -6.8029   0.0000                                                             
     4  3  2.50        -6.8029   0.0000                                                             
   Description                                                                                      
     l       E           TYP  RCUT    TYP  RCUT                                                     
     0    -17.2865377     23  2.100                                                                 
     0    -15.3094411     23  2.100                                                                 
     1     -6.5110275     23  2.100                                                                 
     1     -0.0695192     23  2.100                                                                 
     2     -6.8029130     23  2.100                                                                 
     3     -1.3605826      7  2.100                                                                 
  local pseudopotential read in
  partial core-charges read in
  partial kinetic energy density read in
  atomic valenz-charges read in
  non local Contribution for L=            0  read in
    real space projection operators read in
  non local Contribution for L=            0  read in
    real space projection operators read in
  non local Contribution for L=            1  read in
    real space projection operators read in
  non local Contribution for L=            1  read in
    real space projection operators read in
  non local Contribution for L=            2  read in
    real space projection operators read in
    PAW grid and wavefunctions read in
 
   number of l-projection  operators is LMAX  =            5
   number of lm-projection operators is LMMAX =           13
 
  PAW_PBE Ge 05Jan2001                  :
 energy of atom  1       EATOM= -104.9960
 kinetic energy error for atom=    0.0002 (will be added to EATOM!!)
  PAW_PBE Se 06Sep2000                  :
 energy of atom  2       EATOM= -257.1286
 kinetic energy error for atom=    0.0007 (will be added to EATOM!!)
 
 
 POSCAR: Ge Se
  positions in cartesian coordinates
  No initial velocities read in
 exchange correlation table for  LEXCH =        8
   RHO(1)=    0.500       N(1)  =     2000
   RHO(2)=  100.500       N(2)  =     4000
 


--------------------------------------------------------------------------------------------------------


 ion  position               nearest neighbor table
   1  0.250  0.116  0.044-   6 2.60   6 2.60   8 2.60
   2  0.750  0.884  0.634-   5 2.60   5 2.60   7 2.60
   3  0.750  0.616  0.134-   8 2.60   8 2.60   6 2.60
   4  0.250  0.384  0.544-   7 2.60   7 2.60   5 2.60
   5  0.250  0.505  0.626-   2 2.60   2 2.60   4 2.60
   6  0.750  0.495  0.053-   1 2.60   1 2.60   3 2.60
   7  0.750  0.005  0.553-   4 2.60   4 2.60   2 2.60
   8  0.250  0.995  0.126-   3 2.60   3 2.60   1 2.60
 
  LATTYP: Found a simple orthorhombic cell.
 ALAT       =     3.8581001759
 B/A-ratio  =     1.1732653073
 C/A-ratio  =     8.0571200981
  
  Lattice vectors:
  
 A1 = (   3.8581001759,   0.0000000000,   0.0000000000)
 A2 = (   0.0000000000,   4.5265750885,   0.0000000000)
 A3 = (   0.0000000000,   0.0000000000,  31.0851764679)


Analysis of symmetry for initial positions (statically):
=====================================================================
 Subroutine PRICEL returns:
 Original cell was already a primitive cell.
 

 Routine SETGRP: Setting up the symmetry group for a 
 simple orthorhombic supercell.


 Subroutine GETGRP returns: Found  8 space group operations
 (whereof  1 operations were pure point group operations)
 out of a pool of  8 trial point group operations.


The static configuration has the point symmetry C_1 .
 The point group associated with its full space group is D_2h.


Analysis of symmetry for dynamics (positions and initial velocities):
=====================================================================
 Subroutine PRICEL returns:
 Original cell was already a primitive cell.
 

 Routine SETGRP: Setting up the symmetry group for a 
 simple orthorhombic supercell.


 Subroutine GETGRP returns: Found  8 space group operations
 (whereof  1 operations were pure point group operations)
 out of a pool of  8 trial point group operations.


The dynamic configuration has the point symmetry C_1 .
 The point group associated with its full space group is D_2h.


Analysis of structural, dynamic, and magnetic symmetry:
=====================================================================
 Subroutine PRICEL returns:
 Original cell was already a primitive cell.
 

 Routine SETGRP: Setting up the symmetry group for a 
 simple orthorhombic supercell.


 Subroutine GETGRP returns: Found  8 space group operations
 (whereof  1 operations were pure point group operations)
 out of a pool of  8 trial point group operations.


The overall configuration has the point symmetry C_1 .
 The point group associated with its full space group is D_2h.


 Subroutine INISYM returns: Found  8 space group operations
 (whereof  1 operations are pure point group operations),
 and found     1 'primitive' translations


----------------------------------------------------------------------------------------

                                     Primitive cell                                     

  volume of cell :     542.8709

  direct lattice vectors                    reciprocal lattice vectors
     3.858100176  0.000000000  0.000000000     0.259194929  0.000000000  0.000000000
     0.000000000  4.526575088  0.000000000     0.000000000  0.220917577  0.000000000
     0.000000000  0.000000000 31.085176468     0.000000000  0.000000000  0.032169674

  length of vectors
     3.858100176  4.526575088 31.085176468     0.259194929  0.220917577  0.032169674

  position of ions in fractional coordinates (direct lattice)
     0.250000000  0.115641899  0.044055267
     0.750000000  0.884358108  0.634247988
     0.750000000  0.615641892  0.134247988
     0.250000000  0.384358108  0.544055270
     0.250000000  0.504948974  0.625750184
     0.750000000  0.495050967  0.052553063
     0.750000000  0.004949023  0.552553074
     0.250000000  0.995051026  0.125750194

  ion indices of the primitive-cell ions
   primitive index   ion index
                 1           1
                 2           2
                 3           3
                 4           4
                 5           5
                 6           6
                 7           7
                 8           8

----------------------------------------------------------------------------------------

 
 
 KPOINTS: KPOINTS created by Atomic Simulation Env

Automatic generation of k-mesh.
 Grid dimensions read from file:
 generate k-points for:    6    6    2

 Generating k-lattice:

  Cartesian coordinates                     Fractional coordinates (reciprocal lattice)
     0.043199155  0.000000000  0.000000000     0.166666667  0.000000000  0.000000000
     0.000000000  0.036819596  0.000000000     0.000000000  0.166666667  0.000000000
     0.000000000  0.000000000  0.016084837     0.000000000  0.000000000  0.500000000

  Length of vectors
     0.043199155  0.036819596  0.016084837

  Shift w.r.t. Gamma in fractional coordinates (k-lattice)
     0.000000000  0.000000000  0.000000000

 
 Subroutine IBZKPT returns following result:
 ===========================================
 
 Found     32 irreducible k-points:
 
 Following reciprocal coordinates:
            Coordinates               Weight
  0.000000  0.000000  0.000000      1.000000
  0.166667  0.000000  0.000000      2.000000
  0.333333  0.000000  0.000000      2.000000
  0.500000  0.000000  0.000000      1.000000
  0.000000  0.166667  0.000000      2.000000
  0.166667  0.166667  0.000000      4.000000
  0.333333  0.166667  0.000000      4.000000
  0.500000  0.166667  0.000000      2.000000
  0.000000  0.333333  0.000000      2.000000
  0.166667  0.333333  0.000000      4.000000
  0.333333  0.333333  0.000000      4.000000
  0.500000  0.333333  0.000000      2.000000
  0.000000  0.500000  0.000000      1.000000
  0.166667  0.500000  0.000000      2.000000
  0.333333  0.500000  0.000000      2.000000
  0.500000  0.500000  0.000000      1.000000
  0.000000  0.000000  0.500000      1.000000
  0.166667  0.000000  0.500000      2.000000
  0.333333  0.000000  0.500000      2.000000
  0.500000  0.000000  0.500000      1.000000
  0.000000  0.166667  0.500000      2.000000
  0.166667  0.166667  0.500000      4.000000
  0.333333  0.166667  0.500000      4.000000
  0.500000  0.166667  0.500000      2.000000
  0.000000  0.333333  0.500000      2.000000
  0.166667  0.333333  0.500000      4.000000
  0.333333  0.333333  0.500000      4.000000
  0.500000  0.333333  0.500000      2.000000
  0.000000  0.500000  0.500000      1.000000
  0.166667  0.500000  0.500000      2.000000
  0.333333  0.500000  0.500000      2.000000
  0.500000  0.500000  0.500000      1.000000
 
 Following cartesian coordinates:
            Coordinates               Weight
  0.000000  0.000000  0.000000      1.000000
  0.043199  0.000000  0.000000      2.000000
  0.086398  0.000000  0.000000      2.000000
  0.129597  0.000000  0.000000      1.000000
  0.000000  0.036820  0.000000      2.000000
  0.043199  0.036820  0.000000      4.000000
  0.086398  0.036820  0.000000      4.000000
  0.129597  0.036820  0.000000      2.000000
  0.000000  0.073639  0.000000      2.000000
  0.043199  0.073639  0.000000      4.000000
  0.086398  0.073639  0.000000      4.000000
  0.129597  0.073639  0.000000      2.000000
  0.000000  0.110459  0.000000      1.000000
  0.043199  0.110459  0.000000      2.000000
  0.086398  0.110459  0.000000      2.000000
  0.129597  0.110459  0.000000      1.000000
  0.000000  0.000000  0.016085      1.000000
  0.043199  0.000000  0.016085      2.000000
  0.086398  0.000000  0.016085      2.000000
  0.129597  0.000000  0.016085      1.000000
  0.000000  0.036820  0.016085      2.000000
  0.043199  0.036820  0.016085      4.000000
  0.086398  0.036820  0.016085      4.000000
  0.129597  0.036820  0.016085      2.000000
  0.000000  0.073639  0.016085      2.000000
  0.043199  0.073639  0.016085      4.000000
  0.086398  0.073639  0.016085      4.000000
  0.129597  0.073639  0.016085      2.000000
  0.000000  0.110459  0.016085      1.000000
  0.043199  0.110459  0.016085      2.000000
  0.086398  0.110459  0.016085      2.000000
  0.129597  0.110459  0.016085      1.000000
 
 -----------------------------------------------------------------------------
|                                                                             |
|           W    W    AA    RRRRR   N    N  II  N    N   GGGG   !!!           |
|           W    W   A  A   R    R  NN   N  II  NN   N  G    G  !!!           |
|           W    W  A    A  R    R  N N  N  II  N N  N  G       !!!           |
|           W WW W  AAAAAA  RRRRR   N  N N  II  N  N N  G  GGG   !            |
|           WW  WW  A    A  R   R   N   NN  II  N   NN  G    G                |
|           W    W  A    A  R    R  N    N  II  N    N   GGGG   !!!           |
|                                                                             |
|     The number of bands has been changed from the values supplied in        |
|     the INCAR file. This is a result of running the parallel version.       |
|     The orbitals not found in the WAVECAR file will be initialized with     |
|     random numbers, which is usually adequate. For correlated               |
|     calculations, however, you should redo the groundstate calculation.     |
|     I found NBANDS = 220. Now, NBANDS = 224.                                |
|                                                                             |
 -----------------------------------------------------------------------------



--------------------------------------------------------------------------------------------------------




 Dimension of arrays:
   k-points           NKPTS =     32   k-points in BZ     NKDIM =     32   number of bands    NBANDS=    224
   number of dos      NEDOS =    301   number of ions     NIONS =      8
   non local maximal  LDIM  =      5   non local SUM 2l+1 LMDIM =     13
   total plane-waves  NPLWV = 259200
   max r-space proj   IRMAX =      1   max aug-charges    IRDMAX=  26147
   dimension x,y,z NGX =    30 NGY =   36 NGZ =  240
   dimension x,y,z NGXF=    60 NGYF=   72 NGZF=  480
   support grid    NGXF=    60 NGYF=   72 NGZF=  480
   ions per type =               4   4
   NGX,Y,Z   is equivalent  to a cutoff of  12.93, 13.22, 12.84 a.u.
   NGXF,Y,Z  is equivalent  to a cutoff of  25.85, 26.44, 25.67 a.u.

 SYSTEM =  02_SCF                                  
 POSCAR =  Ge Se                                   

 Startparameter for this run:
   NWRITE =      2    write-flag & timer
   PREC   = accura    normal or accurate (medium, high low for compatibility)
   ISTART =      0    job   : 0-new  1-cont  2-samecut
   ICHARG =      2    charge: 1-file 2-atom 10-const
   ISPIN  =      2    spin polarized calculation?
   LNONCOLLINEAR =      F non collinear calculations
   LSORBIT =      F    spin-orbit coupling
   INIWAV =      1    electr: 0-lowe 1-rand  2-diag
   LASPH  =      T    aspherical Exc in radial PAW
 Electronic Relaxation 1
   ENCUT  =  520.0 eV  38.22 Ry    6.18 a.u.   7.17  8.42 57.80*2*pi/ulx,y,z
   ENINI  =  520.0     initial cutoff
   ENAUG  =  446.8 eV  augmentation charge cutoff
   NELM   =    100;   NELMIN=  5; NELMDL=  0     # of ELM steps 
   EDIFF  = 0.1E-05   stopping-criterion for ELM
   LREAL  =      F    real-space projection
   NLSPLINE    = F    spline interpolate recip. space projectors
   LCOMPAT=      F    compatible to vasp.4.4
   GGA_COMPAT  = T    GGA compatible to vasp.4.4-vasp.4.6
   LMAXPAW     = -100 max onsite density
   LMAXMIX     =    2 max onsite mixed and CHGCAR
   VOSKOWN=      0    Vosko Wilk Nusair interpolation
   ROPT   =    0.00000   0.00000
 Ionic relaxation
   EDIFFG = 0.1E-04   stopping-criterion for IOM
   NSW    =      0    number of steps for IOM
   NBLOCK =      1;   KBLOCK =      1    inner block; outer block 
   IBRION =     -1    ionic relax: 0-MD 1-quasi-New 2-CG
   NFREE  =      0    steps in history (QN), initial steepest desc. (CG)
   ISIF   =      2    stress and relaxation
   IWAVPR =     10    prediction:  0-non 1-charg 2-wave 3-comb
   ISYM   =      2    0-nonsym 1-usesym 2-fastsym
   LCORR  =      T    Harris-Foulkes like correction to forces

   POTIM  = 0.5000    time-step for ionic-motion
   TEIN   =    0.0    initial temperature
   TEBEG  =    0.0;   TEEND  =   0.0 temperature during run
   SMASS  =  -3.00    Nose mass-parameter (am)
   estimated Nose-frequenzy (Omega)   =  0.10E-29 period in steps = 0.13E+47 mass=  -0.340E-27a.u.
   SCALEE = 1.0000    scale energy and forces
   NPACO  =    256;   APACO  = 10.0  distance and # of slots for P.C.
   PSTRESS=    0.0 pullay stress

  Mass of Ions in am
   POMASS =  72.61 78.96
  Ionic Valenz
   ZVAL   =   4.00  6.00
  Atomic Wigner-Seitz radii
   RWIGS  =  -1.00 -1.00
  virtual crystal weights 
   VCA    =   1.00  1.00
   NELECT =      40.0000    total number of electrons
   NUPDOWN=      -1.0000    fix difference up-down

 DOS related values:
   EMIN   =  10.00;   EMAX   =-10.00  energy-range for DOS
   EFERMI =   0.00;   METHOD = LEGACY      
   ISMEAR =     0;   SIGMA  =   0.05  broadening in eV -4-tet -1-fermi 0-gaus

 Electronic relaxation 2 (details)
   IALGO  =     38    algorithm
   LDIAG  =      T    sub-space diagonalisation (order eigenvalues)
   LSUBROT=      F    optimize rotation matrix (better conditioning)
   TURBO    =      0    0=normal 1=particle mesh
   IRESTART =      0    0=no restart 2=restart with 2 vectors
   NREBOOT  =      0    no. of reboots
   NMIN     =      0    reboot dimension
   EREF     =   0.00    reference energy to select bands
   IMIX   =      4    mixing-type and parameters
     AMIX     =   0.40;   BMIX     =  1.00
     AMIX_MAG =   1.60;   BMIX_MAG =  1.00
     AMIN     =   0.10
     WC   =   100.;   INIMIX=   1;  MIXPRE=   1;  MAXMIX= -45

 Intra band minimization:
   WEIMIN = 0.0000     energy-eigenvalue tresh-hold
   EBREAK =  0.11E-08  absolut break condition
   DEPER  =   0.30     relativ break condition  

   TIME   =   0.40     timestep for ELM

  volume/ion in A,a.u.               =      67.86       457.93
  Fermi-wavevector in a.u.,A,eV,Ry     =   0.686324  1.296965  6.408900  0.471041
  Thomas-Fermi vector in A             =   1.766520
 
 Write flags
   LWAVE        =      T    write WAVECAR
   LDOWNSAMPLE  =      F    k-point downsampling of WAVECAR
   LCHARG       =      T    write CHGCAR
   LVTOT        =      F    write LOCPOT, total local potential
   LVHAR        =      F    write LOCPOT, Hartree potential only
   LELF         =      F    write electronic localiz. function (ELF)
   LORBIT       =     11    0 simple, 1 ext, 2 COOP (PROOUT), +10 PAW based schemes


 Dipole corrections
   LMONO  =      F    monopole corrections only (constant potential shift)
   LDIPOL =      F    correct potential (dipole corrections)
   IDIPOL =      0    1-x, 2-y, 3-z, 4-all directions 
   EPSILON=  1.0000000 bulk dielectric constant

 Exchange correlation treatment:
   GGA     =    PE    GGA type
   LEXCH   =     8    internal setting for exchange type
   LIBXC   =     F    Libxc                    
   VOSKOWN =     0    Vosko Wilk Nusair interpolation
   LHFCALC =     F    Hartree Fock is set to
   LHFONE  =     F    Hartree Fock one center treatment
   AEXX    =    0.0000 exact exchange contribution

 Linear response parameters
   LEPSILON=     F    determine dielectric tensor
   LRPA    =     F    only Hartree local field effects (RPA)
   LNABLA  =     F    use nabla operator in PAW spheres
   LVEL    =     F    velocity operator in full k-point grid
   CSHIFT  =0.1000    complex shift for real part using Kramers Kronig
   OMEGAMAX=  -1.0    maximum frequency
   DEG_THRESHOLD= 0.2000000E-02 threshold for treating states as degnerate
   RTIME   =   -0.100 relaxation time in fs
  (WPLASMAI=    0.000 imaginary part of plasma frequency in eV, 0.658/RTIME)
   DFIELD  = 0.0000000 0.0000000 0.0000000 field for delta impulse in time
 
  Optional k-point grid parameters
   LKPOINTS_OPT  =     F    use optional k-point grid
   KPOINTS_OPT_MODE=     1    mode for optional k-point grid
 
 Orbital magnetization related:
   ORBITALMAG=     F  switch on orbital magnetization
   LCHIMAG   =     F  perturbation theory with respect to B field
   DQ        =  0.001000  dq finite difference perturbation B field
   LLRAUG    =     F  two centre corrections for induced B field
   LBONE     =     F  B-component reconstruction in AE one-centre
   LVGVCALC  =     T  calculate vGv susceptibility
   LVGVAPPL  =     F  apply vGv susceptibility instead of pGv for G=0

 Random number generation:
   RANDOM_GENERATOR = DEFAULT
   PCG_SEED         = not used


--------------------------------------------------------------------------------------------------------


 Static calculation
 charge density and potential will be updated during run
 spin polarized calculation
 Variant of blocked Davidson
 Davidson routine will perform the subspace rotation
 perform sub-space diagonalisation
    after iterative eigenvector-optimisation
 modified Broyden-mixing scheme, WC =      100.0
 initial mixing is a Kerker type mixing with AMIX =  0.4000 and BMIX =      1.0000
 Hartree-type preconditioning will be used
 using additional bands           204
 reciprocal scheme for non local part
 use partial core corrections
 calculate Harris-corrections to forces 
   (improved forces if not selfconsistent)
 use gradient corrections 
 use of overlap-Matrix (Vanderbilt PP)
 Gauss-broadening in eV      SIGMA  =   0.05


--------------------------------------------------------------------------------------------------------


  energy-cutoff  :      520.00
  volume of cell :      542.87
      direct lattice vectors                 reciprocal lattice vectors
     3.858100176  0.000000000  0.000000000     0.259194929  0.000000000  0.000000000
     0.000000000  4.526575088  0.000000000     0.000000000  0.220917577  0.000000000
     0.000000000  0.000000000 31.085176468     0.000000000  0.000000000  0.032169674

  length of vectors
     3.858100176  4.526575088 31.085176468     0.259194929  0.220917577  0.032169674


 
 k-points in units of 2pi/SCALE and weight: KPOINTS created by Atomic Simulation Env
   0.00000000  0.00000000  0.00000000       0.014
   0.04319915  0.00000000  0.00000000       0.028
   0.08639831  0.00000000  0.00000000       0.028
   0.12959746  0.00000000  0.00000000       0.014
   0.00000000  0.03681960  0.00000000       0.028
   0.04319915  0.03681960  0.00000000       0.056
   0.08639831  0.03681960  0.00000000       0.056
   0.12959746  0.03681960  0.00000000       0.028
   0.00000000  0.07363919  0.00000000       0.028
   0.04319915  0.07363919  0.00000000       0.056
   0.08639831  0.07363919  0.00000000       0.056
   0.12959746  0.07363919  0.00000000       0.028
   0.00000000  0.11045879  0.00000000       0.014
   0.04319915  0.11045879  0.00000000       0.028
   0.08639831  0.11045879  0.00000000       0.028
   0.12959746  0.11045879  0.00000000       0.014
   0.00000000  0.00000000  0.01608484       0.014
   0.04319915  0.00000000  0.01608484       0.028
   0.08639831  0.00000000  0.01608484       0.028
   0.12959746  0.00000000  0.01608484       0.014
   0.00000000  0.03681960  0.01608484       0.028
   0.04319915  0.03681960  0.01608484       0.056
   0.08639831  0.03681960  0.01608484       0.056
   0.12959746  0.03681960  0.01608484       0.028
   0.00000000  0.07363919  0.01608484       0.028
   0.04319915  0.07363919  0.01608484       0.056
   0.08639831  0.07363919  0.01608484       0.056
   0.12959746  0.07363919  0.01608484       0.028
   0.00000000  0.11045879  0.01608484       0.014
   0.04319915  0.11045879  0.01608484       0.028
   0.08639831  0.11045879  0.01608484       0.028
   0.12959746  0.11045879  0.01608484       0.014
 
 k-points in reciprocal lattice and weights: KPOINTS created by Atomic Simulation Env
   0.00000000  0.00000000  0.00000000       0.014
   0.16666667  0.00000000  0.00000000       0.028
   0.33333333  0.00000000  0.00000000       0.028
   0.50000000  0.00000000  0.00000000       0.014
   0.00000000  0.16666667  0.00000000       0.028
   0.16666667  0.16666667  0.00000000       0.056
   0.33333333  0.16666667  0.00000000       0.056
   0.50000000  0.16666667  0.00000000       0.028
   0.00000000  0.33333333  0.00000000       0.028
   0.16666667  0.33333333  0.00000000       0.056
   0.33333333  0.33333333  0.00000000       0.056
   0.50000000  0.33333333  0.00000000       0.028
   0.00000000  0.50000000  0.00000000       0.014
   0.16666667  0.50000000  0.00000000       0.028
   0.33333333  0.50000000  0.00000000       0.028
   0.50000000  0.50000000  0.00000000       0.014
   0.00000000  0.00000000  0.50000000       0.014
   0.16666667  0.00000000  0.50000000       0.028
   0.33333333  0.00000000  0.50000000       0.028
   0.50000000  0.00000000  0.50000000       0.014
   0.00000000  0.16666667  0.50000000       0.028
   0.16666667  0.16666667  0.50000000       0.056
   0.33333333  0.16666667  0.50000000       0.056
   0.50000000  0.16666667  0.50000000       0.028
   0.00000000  0.33333333  0.50000000       0.028
   0.16666667  0.33333333  0.50000000       0.056
   0.33333333  0.33333333  0.50000000       0.056
   0.50000000  0.33333333  0.50000000       0.028
   0.00000000  0.50000000  0.50000000       0.014
   0.16666667  0.50000000  0.50000000       0.028
   0.33333333  0.50000000  0.50000000       0.028
   0.50000000  0.50000000  0.50000000       0.014
 
 position of ions in fractional coordinates (direct lattice) 
   0.25000000  0.11564190  0.04405527
   0.75000000  0.88435811  0.63424799
   0.75000000  0.61564189  0.13424799
   0.25000000  0.38435811  0.54405527
   0.25000000  0.50494897  0.62575018
   0.75000000  0.49505097  0.05255306
   0.75000000  0.00494902  0.55255307
   0.25000000  0.99505103  0.12575019
 
 position of ions in cartesian coordinates  (Angst):
   0.96452504  0.52346174  1.36946575
   2.89357513  4.00311338 19.71571064
   2.89357513  2.78674925  4.17312240
   0.96452504  1.73982584 16.91205406
   0.96452504  2.28568945 19.45155488
   2.89357513  2.24088537  1.63362125
   2.89357513  0.02240212 17.17620982
   0.96452504  4.50417319  3.90896698
 


--------------------------------------------------------------------------------------------------------


 k-point   1 :   0.0000 0.0000 0.0000  plane waves:   14589
 k-point   2 :   0.1667 0.0000 0.0000  plane waves:   14613
 k-point   3 :   0.3333 0.0000 0.0000  plane waves:   14660
 k-point   4 :   0.5000 0.0000 0.0000  plane waves:   14698
 k-point   5 :   0.0000 0.1667 0.0000  plane waves:   14589
 k-point   6 :   0.1667 0.1667 0.0000  plane waves:   14601
 k-point   7 :   0.3333 0.1667 0.0000  plane waves:   14642
 k-point   8 :   0.5000 0.1667 0.0000  plane waves:   14700
 k-point   9 :   0.0000 0.3333 0.0000  plane waves:   14603
 k-point  10 :   0.1667 0.3333 0.0000  plane waves:   14593
 k-point  11 :   0.3333 0.3333 0.0000  plane waves:   14617
 k-point  12 :   0.5000 0.3333 0.0000  plane waves:   14610
 k-point  13 :   0.0000 0.5000 0.0000  plane waves:   14612
 k-point  14 :   0.1667 0.5000 0.0000  plane waves:   14576
 k-point  15 :   0.3333 0.5000 0.0000  plane waves:   14598
 k-point  16 :   0.5000 0.5000 0.0000  plane waves:   14564
 k-point  17 :   0.0000 0.0000 0.5000  plane waves:   14608
 k-point  18 :   0.1667 0.0000 0.5000  plane waves:   14612
 k-point  19 :   0.3333 0.0000 0.5000  plane waves:   14662
 k-point  20 :   0.5000 0.0000 0.5000  plane waves:   14676
 k-point  21 :   0.0000 0.1667 0.5000  plane waves:   14626
 k-point  22 :   0.1667 0.1667 0.5000  plane waves:   14604
 k-point  23 :   0.3333 0.1667 0.5000  plane waves:   14640
 k-point  24 :   0.5000 0.1667 0.5000  plane waves:   14700
 k-point  25 :   0.0000 0.3333 0.5000  plane waves:   14570
 k-point  26 :   0.1667 0.3333 0.5000  plane waves:   14596
 k-point  27 :   0.3333 0.3333 0.5000  plane waves:   14624
 k-point  28 :   0.5000 0.3333 0.5000  plane waves:   14628
 k-point  29 :   0.0000 0.5000 0.5000  plane waves:   14652
 k-point  30 :   0.1667 0.5000 0.5000  plane waves:   14584
 k-point  31 :   0.3333 0.5000 0.5000  plane waves:   14608
 k-point  32 :   0.5000 0.5000 0.5000  plane waves:   14560

 maximum and minimum number of plane-waves per node :     14700    14560

 maximum number of plane-waves:     14700
 maximum index in each direction: 
   IXMAX=    7   IYMAX=    8   IZMAX=   57
   IXMIN=   -7   IYMIN=   -8   IZMIN=  -58


 serial   3D FFT for wavefunctions
 parallel 3D FFT for charge:
    minimum data exchange during FFTs selected (reduces bandwidth)


 total amount of memory used by VASP MPI-rank0   379778. kBytes
=======================================================================

   base      :      30000. kBytes
   nonl-proj :      99751. kBytes
   fftplans  :       5630. kBytes
   grid      :      31866. kBytes
   one-center:        129. kBytes
   wavefun   :     212402. kBytes
 
     INWAV:  cpu time      0.0000: real time      0.0001
 Broyden mixing: mesh for mixing (old mesh)
   NGX = 15   NGY = 17   NGZ =115
  (NGX  = 60   NGY  = 72   NGZ  =480)
  gives a total of  29325 points

 initial charge density was supplied:
 charge density of overlapping atoms calculated
 number of electron      40.0000000 magnetization       8.0000000
 keeping initial charge density in first step


--------------------------------------------------------------------------------------------------------


 Maximum index for augmentation-charges          1848 (set IRDMAX)


--------------------------------------------------------------------------------------------------------


 First call to EWALD:  gamma=   0.217
 Maximum number of real-space cells 5x 5x 1
 Maximum number of reciprocal cells 2x 2x 9

    FEWALD:  cpu time      0.0033: real time      0.0033


--------------------------------------- Ionic step        1  -------------------------------------------




--------------------------------------- Iteration      1(   1)  ---------------------------------------


    POTLOK:  cpu time      0.2914: real time      0.2944
    SETDIJ:  cpu time      1.1355: real time      1.1382
     EDDAV:  cpu time     35.1286: real time     35.4776
       DOS:  cpu time      0.0029: real time      0.0030
    --------------------------------------------
      LOOP:  cpu time     36.5585: real time     36.9132

 eigenvalue-minimisations  : 28672
 total energy-change (2. order) : 0.1819259E+03  (-0.9058997E+03)
 number of electron      40.0000000 magnetization       8.0000000
 augmentation part       40.0000000 magnetization       8.0000000

 Free energy of the ion-electron system (eV)
  ---------------------------------------------------
  alpha Z        PSCENC =        31.21266086
  Ewald energy   TEWEN  =      1285.60251435
  -Hartree energ DENC   =     -2553.17349933
  -exchange      EXHF   =         0.00000000
  -V(xc)+E(xc)   XCENC  =       -34.02487593
  PAW double counting   =      1193.15788873    -1079.99237720
  entropy T*S    EENTRO =        -0.00367336
  eigenvalues    EBANDS =      -109.34732585
  atomic energy  EATOM  =      1448.49460871
  Solvation  Ediel_sol  =         0.00000000
  ---------------------------------------------------
  free energy    TOTEN  =       181.92592098 eV

  energy without entropy =      181.92959434  energy(sigma->0) =      181.92775766


--------------------------------------------------------------------------------------------------------




--------------------------------------- Iteration      1(   2)  ---------------------------------------


     EDDAV:  cpu time     40.4531: real time     40.8559
       DOS:  cpu time      0.0020: real time      0.0020
    --------------------------------------------
      LOOP:  cpu time     40.4551: real time     40.8580

 eigenvalue-minimisations  : 34784
 total energy-change (2. order) :-0.2012203E+03  (-0.1807210E+03)
 number of electron      40.0000000 magnetization       8.0000000
 augmentation part       40.0000000 magnetization       8.0000000

 Free energy of the ion-electron system (eV)
  ---------------------------------------------------
  alpha Z        PSCENC =        31.21266086
  Ewald energy   TEWEN  =      1285.60251435
  -Hartree energ DENC   =     -2553.17349933
  -exchange      EXHF   =         0.00000000
  -V(xc)+E(xc)   XCENC  =       -34.02487593
  PAW double counting   =      1193.15788873    -1079.99237720
  entropy T*S    EENTRO =        -0.00000000
  eigenvalues    EBANDS =      -310.57128684
  atomic energy  EATOM  =      1448.49460871
  Solvation  Ediel_sol  =         0.00000000
  ---------------------------------------------------
  free energy    TOTEN  =       -19.29436665 eV

  energy without entropy =      -19.29436665  energy(sigma->0) =      -19.29436665


--------------------------------------------------------------------------------------------------------




--------------------------------------- Iteration      1(   3)  ---------------------------------------


     EDDAV:  cpu time     40.3975: real time     40.8023
       DOS:  cpu time      0.0020: real time      0.0020
    --------------------------------------------
      LOOP:  cpu time     40.3995: real time     40.8042

 eigenvalue-minimisations  : 34544
 total energy-change (2. order) :-0.1306685E+02  (-0.1283856E+02)
 number of electron      40.0000000 magnetization       8.0000000
 augmentation part       40.0000000 magnetization       8.0000000

 Free energy of the ion-electron system (eV)
  ---------------------------------------------------
  alpha Z        PSCENC =        31.21266086
  Ewald energy   TEWEN  =      1285.60251435
  -Hartree energ DENC   =     -2553.17349933
  -exchange      EXHF   =         0.00000000
  -V(xc)+E(xc)   XCENC  =       -34.02487593
  PAW double counting   =      1193.15788873    -1079.99237720
  entropy T*S    EENTRO =        -0.00000000
  eigenvalues    EBANDS =      -323.63813770
  atomic energy  EATOM  =      1448.49460871
  Solvation  Ediel_sol  =         0.00000000
  ---------------------------------------------------
  free energy    TOTEN  =       -32.36121751 eV

  energy without entropy =      -32.36121751  energy(sigma->0) =      -32.36121751


--------------------------------------------------------------------------------------------------------




--------------------------------------- Iteration      1(   4)  ---------------------------------------


     EDDAV:  cpu time     39.6913: real time     40.0270
       DOS:  cpu time      0.0020: real time      0.0020
    --------------------------------------------
      LOOP:  cpu time     39.6933: real time     40.0289

 eigenvalue-minimisations  : 33696
 total energy-change (2. order) :-0.1145393E+00  (-0.1145050E+00)
 number of electron      40.0000000 magnetization       8.0000000
 augmentation part       40.0000000 magnetization       8.0000000

 Free energy of the ion-electron system (eV)
  ---------------------------------------------------
  alpha Z        PSCENC =        31.21266086
  Ewald energy   TEWEN  =      1285.60251435
  -Hartree energ DENC   =     -2553.17349933
  -exchange      EXHF   =         0.00000000
  -V(xc)+E(xc)   XCENC  =       -34.02487593
  PAW double counting   =      1193.15788873    -1079.99237720
  entropy T*S    EENTRO =        -0.00000000
  eigenvalues    EBANDS =      -323.75267698
  atomic energy  EATOM  =      1448.49460871
  Solvation  Ediel_sol  =         0.00000000
  ---------------------------------------------------
  free energy    TOTEN  =       -32.47575678 eV

  energy without entropy =      -32.47575678  energy(sigma->0) =      -32.47575678


--------------------------------------------------------------------------------------------------------




--------------------------------------- Iteration      1(   5)  ---------------------------------------


     EDDAV:  cpu time     39.2703: real time     39.6391
       DOS:  cpu time      0.0020: real time      0.0020
    CHARGE:  cpu time      0.4807: real time      0.4838
    MIXING:  cpu time      0.0111: real time      0.0111
    --------------------------------------------
      LOOP:  cpu time     39.7640: real time     40.1361

 eigenvalue-minimisations  : 33440
 total energy-change (2. order) :-0.7881594E-03  (-0.7881387E-03)
 number of electron      40.0000002 magnetization       7.4975736
 augmentation part       -7.4656780 magnetization       7.5150622

 Broyden mixing:
  rms(total) = 0.96751E+00    rms(broyden)= 0.96751E+00
  rms(prec ) = 0.97806E+00
  weight for this iteration     100.00

 Free energy of the ion-electron system (eV)
  ---------------------------------------------------
  alpha Z        PSCENC =        31.21266086
  Ewald energy   TEWEN  =      1285.60251435
  -Hartree energ DENC   =     -2553.17349933
  -exchange      EXHF   =         0.00000000
  -V(xc)+E(xc)   XCENC  =       -34.02487593
  PAW double counting   =      1193.15788873    -1079.99237720
  entropy T*S    EENTRO =        -0.00000000
  eigenvalues    EBANDS =      -323.75346514
  atomic energy  EATOM  =      1448.49460871
  Solvation  Ediel_sol  =         0.00000000
  ---------------------------------------------------
  free energy    TOTEN  =       -32.47654494 eV

  energy without entropy =      -32.47654494  energy(sigma->0) =      -32.47654494


--------------------------------------------------------------------------------------------------------




--------------------------------------- Iteration      1(   6)  ---------------------------------------


    POTLOK:  cpu time      0.2816: real time      0.2835
    SETDIJ:  cpu time      1.1248: real time      1.1271
     EDDAV:  cpu time     37.4061: real time     37.7473
       DOS:  cpu time      0.0020: real time      0.0020
    CHARGE:  cpu time      0.4718: real time      0.4746
    MIXING:  cpu time      0.0108: real time      0.0108
    --------------------------------------------
      LOOP:  cpu time     39.2971: real time     39.6452

 eigenvalue-minimisations  : 31328
 total energy-change (2. order) : 0.8468974E+01  (-0.4803612E+00)
 number of electron      40.0000002 magnetization       6.8716686
 augmentation part       -7.4651602 magnetization       7.0862534

 Broyden mixing:
  rms(total) = 0.63292E+00    rms(broyden)= 0.63292E+00
  rms(prec ) = 0.63912E+00
  weight for this iteration     100.00

 eigenvalues of (default mixing * dielectric matrix)
  average eigenvalue GAMMA=   1.0479
  1.0479

 Free energy of the ion-electron system (eV)
  ---------------------------------------------------
  alpha Z        PSCENC =        31.21266086
  Ewald energy   TEWEN  =      1285.60251435
  -Hartree energ DENC   =     -2565.00354631
  -exchange      EXHF   =         0.00000000
  -V(xc)+E(xc)   XCENC  =       -27.32780644
  PAW double counting   =      1450.47397437    -1337.72648436
  entropy T*S    EENTRO =        -0.00000000
  eigenvalues    EBANDS =      -309.73349167
  atomic energy  EATOM  =      1448.49460871
  Solvation  Ediel_sol  =         0.00000000
  ---------------------------------------------------
  free energy    TOTEN  =       -24.00757050 eV

  energy without entropy =      -24.00757050  energy(sigma->0) =      -24.00757050


--------------------------------------------------------------------------------------------------------




--------------------------------------- Iteration      1(   7)  ---------------------------------------


    POTLOK:  cpu time      0.2777: real time      0.2796
    SETDIJ:  cpu time      1.1315: real time      1.1336
     EDDAV:  cpu time     37.8720: real time     38.2117
       DOS:  cpu time      0.0020: real time      0.0020
    CHARGE:  cpu time      0.4750: real time      0.4771
    MIXING:  cpu time      0.0109: real time      0.0109
    --------------------------------------------
      LOOP:  cpu time     39.7690: real time     40.1150

 eigenvalue-minimisations  : 31856
 total energy-change (2. order) : 0.1250097E+01  (-0.1001221E+00)
 number of electron      40.0000002 magnetization       5.9329351
 augmentation part       -7.4421219 magnetization       6.1628319

 Broyden mixing:
  rms(total) = 0.43697E+00    rms(broyden)= 0.43697E+00
  rms(prec ) = 0.44066E+00
  weight for this iteration     100.00

 eigenvalues of (default mixing * dielectric matrix)
  average eigenvalue GAMMA=   1.4215
  0.8572  1.9858

 Free energy of the ion-electron system (eV)
  ---------------------------------------------------
  alpha Z        PSCENC =        31.21266086
  Ewald energy   TEWEN  =      1285.60251435
  -Hartree energ DENC   =     -2577.65985381
  -exchange      EXHF   =         0.00000000
  -V(xc)+E(xc)   XCENC  =       -26.02295756
  PAW double counting   =      1705.70748500    -1593.21244271
  entropy T*S    EENTRO =        -0.00000000
  eigenvalues    EBANDS =      -296.87948790
  atomic energy  EATOM  =      1448.49460871
  Solvation  Ediel_sol  =         0.00000000
  ---------------------------------------------------
  free energy    TOTEN  =       -22.75747306 eV

  energy without entropy =      -22.75747306  energy(sigma->0) =      -22.75747306


--------------------------------------------------------------------------------------------------------




--------------------------------------- Iteration      1(   8)  ---------------------------------------


    POTLOK:  cpu time      0.2830: real time      0.2849
    SETDIJ:  cpu time      1.1274: real time      1.1295
     EDDAV:  cpu time     38.9012: real time     39.2432
       DOS:  cpu time      0.0020: real time      0.0021
    CHARGE:  cpu time      0.4714: real time      0.4742
    MIXING:  cpu time      0.0111: real time      0.0112
    --------------------------------------------
      LOOP:  cpu time     40.7961: real time     41.1451

 eigenvalue-minimisations  : 33056
 total energy-change (2. order) :-0.1051049E+01  (-0.2515913E-01)
 number of electron      40.0000002 magnetization       5.3479063
 augmentation part       -7.4140964 magnetization       5.5814009

 Broyden mixing:
  rms(total) = 0.29009E+00    rms(broyden)= 0.29009E+00
  rms(prec ) = 0.29122E+00
  weight for this iteration     100.00

 eigenvalues of (default mixing * dielectric matrix)
  average eigenvalue GAMMA=   1.4602
  2.6135  1.0604  0.7066

 Free energy of the ion-electron system (eV)
  ---------------------------------------------------
  alpha Z        PSCENC =        31.21266086
  Ewald energy   TEWEN  =      1285.60251435
  -Hartree energ DENC   =     -2591.84176507
  -exchange      EXHF   =         0.00000000
  -V(xc)+E(xc)   XCENC  =       -26.47758229
  PAW double counting   =      1963.94831900    -1851.58527285
  entropy T*S    EENTRO =        -0.00000000
  eigenvalues    EBANDS =      -283.16200440
  atomic energy  EATOM  =      1448.49460871
  Solvation  Ediel_sol  =         0.00000000
  ---------------------------------------------------
  free energy    TOTEN  =       -23.80852170 eV

  energy without entropy =      -23.80852170  energy(sigma->0) =      -23.80852170


--------------------------------------------------------------------------------------------------------




--------------------------------------- Iteration      1(   9)  ---------------------------------------


    POTLOK:  cpu time      0.2740: real time      0.2763
    SETDIJ:  cpu time      1.1261: real time      1.1286
     EDDAV:  cpu time     38.0398: real time     38.3822
       DOS:  cpu time      0.0020: real time      0.0020
    CHARGE:  cpu time      0.4756: real time      0.4775
    MIXING:  cpu time      0.0116: real time      0.0117
    --------------------------------------------
      LOOP:  cpu time     39.9290: real time     40.2782

 eigenvalue-minimisations  : 32160
 total energy-change (2. order) :-0.1915235E+01  (-0.1982853E-01)
 number of electron      40.0000002 magnetization       4.3820378
 augmentation part       -7.3907047 magnetization       4.5807792

 Broyden mixing:
  rms(total) = 0.24611E+00    rms(broyden)= 0.24611E+00
  rms(prec ) = 0.24674E+00
  weight for this iteration     100.00

 eigenvalues of (default mixing * dielectric matrix)
  average eigenvalue GAMMA=   1.4931
  2.6991  1.7002  0.9050  0.6682

 Free energy of the ion-electron system (eV)
  ---------------------------------------------------
  alpha Z        PSCENC =        31.21266086
  Ewald energy   TEWEN  =      1285.60251435
  -Hartree energ DENC   =     -2596.81174549
  -exchange      EXHF   =         0.00000000
  -V(xc)+E(xc)   XCENC  =       -27.60727227
  PAW double counting   =      2001.41087775    -1889.10132809
  entropy T*S    EENTRO =        -0.00000000
  eigenvalues    EBANDS =      -278.92407228
  atomic energy  EATOM  =      1448.49460871
  Solvation  Ediel_sol  =         0.00000000
  ---------------------------------------------------
  free energy    TOTEN  =       -25.72375647 eV

  energy without entropy =      -25.72375647  energy(sigma->0) =      -25.72375647


--------------------------------------------------------------------------------------------------------




--------------------------------------- Iteration      1(  10)  ---------------------------------------


    POTLOK:  cpu time      0.2866: real time      0.2885
    SETDIJ:  cpu time      1.1205: real time      1.1276
     EDDAV:  cpu time     37.7828: real time     38.1206
       DOS:  cpu time      0.0020: real time      0.0020
    CHARGE:  cpu time      0.4737: real time      0.4756
    MIXING:  cpu time      0.0110: real time      0.0111
    --------------------------------------------
      LOOP:  cpu time     39.6765: real time     40.0253

 eigenvalue-minimisations  : 31728
 total energy-change (2. order) :-0.3056754E+01  (-0.6724300E-01)
 number of electron      40.0000002 magnetization       3.2236797
 augmentation part       -7.3658680 magnetization       3.3568341

 Broyden mixing:
  rms(total) = 0.19426E+00    rms(broyden)= 0.19426E+00
  rms(prec ) = 0.19481E+00
  weight for this iteration     100.00

 eigenvalues of (default mixing * dielectric matrix)
  average eigenvalue GAMMA=   1.7377
  3.6943  2.5379  1.0077  0.8173  0.6311

 Free energy of the ion-electron system (eV)
  ---------------------------------------------------
  alpha Z        PSCENC =        31.21266086
  Ewald energy   TEWEN  =      1285.60251435
  -Hartree energ DENC   =     -2600.54693209
  -exchange      EXHF   =         0.00000000
  -V(xc)+E(xc)   XCENC  =       -29.45837397
  PAW double counting   =      1967.07812697    -1854.69976694
  entropy T*S    EENTRO =        -0.00000000
  eigenvalues    EBANDS =      -276.46334859
  atomic energy  EATOM  =      1448.49460871
  Solvation  Ediel_sol  =         0.00000000
  ---------------------------------------------------
  free energy    TOTEN  =       -28.78051070 eV

  energy without entropy =      -28.78051070  energy(sigma->0) =      -28.78051070


--------------------------------------------------------------------------------------------------------




--------------------------------------- Iteration      1(  11)  ---------------------------------------


    POTLOK:  cpu time      0.2752: real time      0.2766
    SETDIJ:  cpu time      1.1179: real time      1.1201
     EDDAV:  cpu time     37.9201: real time     38.2528
       DOS:  cpu time      0.0020: real time      0.0020
    CHARGE:  cpu time      0.4727: real time      0.4754
    MIXING:  cpu time      0.0111: real time      0.0113
    --------------------------------------------
      LOOP:  cpu time     39.7991: real time     40.1383

 eigenvalue-minimisations  : 31728
 total energy-change (2. order) :-0.2495812E+01  (-0.5084625E-01)
 number of electron      40.0000002 magnetization       2.2856864
 augmentation part       -7.3458859 magnetization       2.3597537

 Broyden mixing:
  rms(total) = 0.14900E+00    rms(broyden)= 0.14900E+00
  rms(prec ) = 0.15014E+00
  weight for this iteration     100.00

 eigenvalues of (default mixing * dielectric matrix)
  average eigenvalue GAMMA=   1.8500
  4.8369  2.6581  1.2248  1.0033  0.7532  0.6238

 Free energy of the ion-electron system (eV)
  ---------------------------------------------------
  alpha Z        PSCENC =        31.21266086
  Ewald energy   TEWEN  =      1285.60251435
  -Hartree energ DENC   =     -2602.75496417
  -exchange      EXHF   =         0.00000000
  -V(xc)+E(xc)   XCENC  =       -31.00289218
  PAW double counting   =      1928.70233099    -1816.28809747
  entropy T*S    EENTRO =        -0.00000000
  eigenvalues    EBANDS =      -275.24248366
  atomic energy  EATOM  =      1448.49460871
  Solvation  Ediel_sol  =         0.00000000
  ---------------------------------------------------
  free energy    TOTEN  =       -31.27632257 eV

  energy without entropy =      -31.27632257  energy(sigma->0) =      -31.27632257


--------------------------------------------------------------------------------------------------------




--------------------------------------- Iteration      1(  12)  ---------------------------------------


    POTLOK:  cpu time      0.2813: real time      0.2828
    SETDIJ:  cpu time      1.1169: real time      1.1190
     EDDAV:  cpu time     38.6855: real time     39.0245
       DOS:  cpu time      0.0020: real time      0.0020
    CHARGE:  cpu time      0.4717: real time      0.4750
    MIXING:  cpu time      0.0112: real time      0.0113
    --------------------------------------------
      LOOP:  cpu time     40.5687: real time     40.9146

 eigenvalue-minimisations  : 32768
 total energy-change (2. order) :-0.1017522E+01  (-0.1506796E-01)
 number of electron      40.0000002 magnetization       1.1312550
 augmentation part       -7.3433800 magnetization       1.1670601

 Broyden mixing:
  rms(total) = 0.11193E+00    rms(broyden)= 0.11193E+00
  rms(prec ) = 0.11297E+00
  weight for this iteration     100.00

 eigenvalues of (default mixing * dielectric matrix)
  average eigenvalue GAMMA=   2.0805
  6.4360  2.8346  2.0211  1.0450  0.8779  0.7277  0.6213

 Free energy of the ion-electron system (eV)
  ---------------------------------------------------
  alpha Z        PSCENC =        31.21266086
  Ewald energy   TEWEN  =      1285.60251435
  -Hartree energ DENC   =     -2600.92894538
  -exchange      EXHF   =         0.00000000
  -V(xc)+E(xc)   XCENC  =       -31.73164646
  PAW double counting   =      1902.34876790    -1789.91157553
  entropy T*S    EENTRO =        -0.00000000
  eigenvalues    EBANDS =      -277.38022947
  atomic energy  EATOM  =      1448.49460871
  Solvation  Ediel_sol  =         0.00000000
  ---------------------------------------------------
  free energy    TOTEN  =       -32.29384503 eV

  energy without entropy =      -32.29384503  energy(sigma->0) =      -32.29384503


--------------------------------------------------------------------------------------------------------




--------------------------------------- Iteration      1(  13)  ---------------------------------------


    POTLOK:  cpu time      0.2716: real time      0.2732
    SETDIJ:  cpu time      1.1175: real time      1.1196
     EDDAV:  cpu time     38.1605: real time     38.4972
       DOS:  cpu time      0.0020: real time      0.0020
    CHARGE:  cpu time      0.4698: real time      0.4751
    MIXING:  cpu time      0.0115: real time      0.0115
    --------------------------------------------
      LOOP:  cpu time     40.0328: real time     40.3786

 eigenvalue-minimisations  : 32288
 total energy-change (2. order) :-0.3409225E+00  (-0.8233909E-02)
 number of electron      40.0000002 magnetization       0.5591779
 augmentation part       -7.3501422 magnetization       0.5719316

 Broyden mixing:
  rms(total) = 0.66868E-01    rms(broyden)= 0.66868E-01
  rms(prec ) = 0.68078E-01
  weight for this iteration     100.00

 eigenvalues of (default mixing * dielectric matrix)
  average eigenvalue GAMMA=   2.3122
  8.7261  3.0896  2.4729  1.1297  1.0121  0.7632  0.6231  0.6813

 Free energy of the ion-electron system (eV)
  ---------------------------------------------------
  alpha Z        PSCENC =        31.21266086
  Ewald energy   TEWEN  =      1285.60251435
  -Hartree energ DENC   =     -2596.79339963
  -exchange      EXHF   =         0.00000000
  -V(xc)+E(xc)   XCENC  =       -32.05048878
  PAW double counting   =      1889.95921374    -1777.51447449
  entropy T*S    EENTRO =        -0.00000000
  eigenvalues    EBANDS =      -281.54540226
  atomic energy  EATOM  =      1448.49460871
  Solvation  Ediel_sol  =         0.00000000
  ---------------------------------------------------
  free energy    TOTEN  =       -32.63476752 eV

  energy without entropy =      -32.63476752  energy(sigma->0) =      -32.63476752


--------------------------------------------------------------------------------------------------------




--------------------------------------- Iteration      1(  14)  ---------------------------------------


    POTLOK:  cpu time      0.2861: real time      0.2886
    SETDIJ:  cpu time      1.1153: real time      1.1176
     EDDAV:  cpu time     37.4952: real time     37.8450
       DOS:  cpu time      0.0020: real time      0.0020
    CHARGE:  cpu time      0.4694: real time      0.4718
    MIXING:  cpu time      0.0119: real time      0.0120
    --------------------------------------------
      LOOP:  cpu time     39.3799: real time     39.7370

 eigenvalue-minimisations  : 31472
 total energy-change (2. order) :-0.8406325E-03  (-0.2491574E-02)
 number of electron      40.0000002 magnetization       0.1985556
 augmentation part       -7.3500316 magnetization       0.2051036

 Broyden mixing:
  rms(total) = 0.39892E-01    rms(broyden)= 0.39892E-01
  rms(prec ) = 0.41497E-01
  weight for this iteration     100.00

 eigenvalues of (default mixing * dielectric matrix)
  average eigenvalue GAMMA=   2.6261
 11.9583  3.5527  2.6618  1.5384  1.0379  0.8838  0.7491  0.6203  0.6325

 Free energy of the ion-electron system (eV)
  ---------------------------------------------------
  alpha Z        PSCENC =        31.21266086
  Ewald energy   TEWEN  =      1285.60251435
  -Hartree energ DENC   =     -2594.77078959
  -exchange      EXHF   =         0.00000000
  -V(xc)+E(xc)   XCENC  =       -32.06060662
  PAW double counting   =      1898.34524686    -1785.90883507
  entropy T*S    EENTRO =        -0.00000000
  eigenvalues    EBANDS =      -283.55040763
  atomic energy  EATOM  =      1448.49460871
  Solvation  Ediel_sol  =         0.00000000
  ---------------------------------------------------
  free energy    TOTEN  =       -32.63560815 eV

  energy without entropy =      -32.63560815  energy(sigma->0) =      -32.63560815


--------------------------------------------------------------------------------------------------------




--------------------------------------- Iteration      1(  15)  ---------------------------------------


    POTLOK:  cpu time      0.2707: real time      0.2725
    SETDIJ:  cpu time      1.1178: real time      1.1200
     EDDAV:  cpu time     37.4050: real time     37.7400
       DOS:  cpu time      0.0020: real time      0.0020
    CHARGE:  cpu time      0.4761: real time      0.4787
    MIXING:  cpu time      0.0118: real time      0.0118
    --------------------------------------------
      LOOP:  cpu time     39.2833: real time     39.6251

 eigenvalue-minimisations  : 31376
 total energy-change (2. order) :-0.4885462E+00  (-0.9395183E-03)
 number of electron      40.0000002 magnetization       0.0456289
 augmentation part       -7.3464461 magnetization       0.0484093

 Broyden mixing:
  rms(total) = 0.18644E-01    rms(broyden)= 0.18644E-01
  rms(prec ) = 0.20531E-01
  weight for this iteration     100.00

 eigenvalues of (default mixing * dielectric matrix)
  average eigenvalue GAMMA=   2.8078
 14.4935  3.9092  2.6492  2.0548  1.0834  1.0834  0.7990  0.7578  0.6188  0.6288

 Free energy of the ion-electron system (eV)
  ---------------------------------------------------
  alpha Z        PSCENC =        31.21266086
  Ewald energy   TEWEN  =      1285.60251435
  -Hartree energ DENC   =     -2592.99011932
  -exchange      EXHF   =         0.00000000
  -V(xc)+E(xc)   XCENC  =       -32.55970244
  PAW double counting   =      1906.67927709    -1794.25077258
  entropy T*S    EENTRO =        -0.00000000
  eigenvalues    EBANDS =      -285.31262104
  atomic energy  EATOM  =      1448.49460871
  Solvation  Ediel_sol  =         0.00000000
  ---------------------------------------------------
  free energy    TOTEN  =       -33.12415439 eV

  energy without entropy =      -33.12415439  energy(sigma->0) =      -33.12415439


--------------------------------------------------------------------------------------------------------




--------------------------------------- Iteration      1(  16)  ---------------------------------------


    POTLOK:  cpu time      0.2708: real time      0.2726
    SETDIJ:  cpu time      1.1149: real time      1.1173
     EDDAV:  cpu time     37.5896: real time     37.9296
       DOS:  cpu time      0.0020: real time      0.0020
    CHARGE:  cpu time      0.4695: real time      0.4720
    MIXING:  cpu time      0.0119: real time      0.0120
    --------------------------------------------
      LOOP:  cpu time     39.4587: real time     39.8055

 eigenvalue-minimisations  : 31680
 total energy-change (2. order) :-0.3667335E+00  (-0.2184036E-03)
 number of electron      40.0000002 magnetization       0.0156143
 augmentation part       -7.3449939 magnetization       0.0159492

 Broyden mixing:
  rms(total) = 0.80905E-02    rms(broyden)= 0.80905E-02
  rms(prec ) = 0.10272E-01
  weight for this iteration     100.00

 eigenvalues of (default mixing * dielectric matrix)
  average eigenvalue GAMMA=   2.8045
 15.5556  4.1098  2.5663  2.5663  1.3454  1.0257  0.9435  0.7718  0.7175  0.6237
  0.6237

 Free energy of the ion-electron system (eV)
  ---------------------------------------------------
  alpha Z        PSCENC =        31.21266086
  Ewald energy   TEWEN  =      1285.60251435
  -Hartree energ DENC   =     -2591.45502994
  -exchange      EXHF   =         0.00000000
  -V(xc)+E(xc)   XCENC  =       -32.93720088
  PAW double counting   =      1908.26808337    -1795.83956763
  entropy T*S    EENTRO =        -0.00000000
  eigenvalues    EBANDS =      -286.83695670
  atomic energy  EATOM  =      1448.49460871
  Solvation  Ediel_sol  =         0.00000000
  ---------------------------------------------------
  free energy    TOTEN  =       -33.49088787 eV

  energy without entropy =      -33.49088787  energy(sigma->0) =      -33.49088787


--------------------------------------------------------------------------------------------------------




--------------------------------------- Iteration      1(  17)  ---------------------------------------


    POTLOK:  cpu time      0.2540: real time      0.2557
    SETDIJ:  cpu time      1.1171: real time      1.1195
     EDDAV:  cpu time     37.9063: real time     38.2409
       DOS:  cpu time      0.0020: real time      0.0020
    CHARGE:  cpu time      0.4721: real time      0.4747
    MIXING:  cpu time      0.0120: real time      0.0121
    --------------------------------------------
      LOOP:  cpu time     39.7636: real time     40.1048

 eigenvalue-minimisations  : 32016
 total energy-change (2. order) :-0.2746481E-01  (-0.5279674E-04)
 number of electron      40.0000002 magnetization       0.0058008
 augmentation part       -7.3448725 magnetization       0.0059584

 Broyden mixing:
  rms(total) = 0.42314E-02    rms(broyden)= 0.42314E-02
  rms(prec ) = 0.64212E-02
  weight for this iteration     100.00

 eigenvalues of (default mixing * dielectric matrix)
  average eigenvalue GAMMA=   2.7424
 15.7850  4.2367  2.7087  2.7087  1.7084  1.0680  1.0680  0.9095  0.7762  0.6934
  0.6288  0.6171

 Free energy of the ion-electron system (eV)
  ---------------------------------------------------
  alpha Z        PSCENC =        31.21266086
  Ewald energy   TEWEN  =      1285.60251435
  -Hartree energ DENC   =     -2590.56304426
  -exchange      EXHF   =         0.00000000
  -V(xc)+E(xc)   XCENC  =       -32.96517513
  PAW double counting   =      1909.81757838    -1797.38843091
  entropy T*S    EENTRO =        -0.00000000
  eigenvalues    EBANDS =      -287.72906468
  atomic energy  EATOM  =      1448.49460871
  Solvation  Ediel_sol  =         0.00000000
  ---------------------------------------------------
  free energy    TOTEN  =       -33.51835268 eV

  energy without entropy =      -33.51835268  energy(sigma->0) =      -33.51835268


--------------------------------------------------------------------------------------------------------




--------------------------------------- Iteration      1(  18)  ---------------------------------------


    POTLOK:  cpu time      0.2876: real time      0.2890
    SETDIJ:  cpu time      1.1169: real time      1.1189
     EDDAV:  cpu time     38.4198: real time     38.7651
       DOS:  cpu time      0.0020: real time      0.0020
    CHARGE:  cpu time      0.4698: real time      0.4732
    MIXING:  cpu time      0.0127: real time      0.0127
    --------------------------------------------
      LOOP:  cpu time     40.3089: real time     40.6609

 eigenvalue-minimisations  : 32544
 total energy-change (2. order) :-0.1332403E-02  (-0.2331785E-04)
 number of electron      40.0000002 magnetization       0.0024774
 augmentation part       -7.3451979 magnetization       0.0026188

 Broyden mixing:
  rms(total) = 0.21960E-02    rms(broyden)= 0.21960E-02
  rms(prec ) = 0.40613E-02
  weight for this iteration     100.00

 eigenvalues of (default mixing * dielectric matrix)
  average eigenvalue GAMMA=   2.6595
 15.8864  4.3285  2.8421  2.8421  1.9553  1.1887  1.0295  0.9716  0.8410  0.7587
  0.6855  0.6318  0.6119

 Free energy of the ion-electron system (eV)
  ---------------------------------------------------
  alpha Z        PSCENC =        31.21266086
  Ewald energy   TEWEN  =      1285.60251435
  -Hartree energ DENC   =     -2589.56671696
  -exchange      EXHF   =         0.00000000
  -V(xc)+E(xc)   XCENC  =       -32.96888049
  PAW double counting   =      1910.74108348    -1798.31139933
  entropy T*S    EENTRO =        -0.00000000
  eigenvalues    EBANDS =      -288.72355570
  atomic energy  EATOM  =      1448.49460871
  Solvation  Ediel_sol  =         0.00000000
  ---------------------------------------------------
  free energy    TOTEN  =       -33.51968508 eV

  energy without entropy =      -33.51968508  energy(sigma->0) =      -33.51968508


--------------------------------------------------------------------------------------------------------




--------------------------------------- Iteration      1(  19)  ---------------------------------------


    POTLOK:  cpu time      0.2557: real time      0.2568
    SETDIJ:  cpu time      1.1168: real time      1.1190
     EDDAV:  cpu time     38.8512: real time     39.1783
       DOS:  cpu time      0.0020: real time      0.0020
    CHARGE:  cpu time      0.4715: real time      0.4740
    MIXING:  cpu time      0.0127: real time      0.0127
    --------------------------------------------
      LOOP:  cpu time     40.7098: real time     41.0429

 eigenvalue-minimisations  : 32992
 total energy-change (2. order) :-0.5416070E-04  (-0.5652778E-05)
 number of electron      40.0000002 magnetization       0.0008957
 augmentation part       -7.3456557 magnetization       0.0010468

 Broyden mixing:
  rms(total) = 0.16601E-02    rms(broyden)= 0.16601E-02
  rms(prec ) = 0.30966E-02
  weight for this iteration     100.00

 eigenvalues of (default mixing * dielectric matrix)
  average eigenvalue GAMMA=   2.5790
 15.9049  4.3745  3.1040  2.7042  2.0422  1.4511  1.0825  1.0825  0.9152  0.8026
  0.7113  0.6884  0.6101  0.6318

 Free energy of the ion-electron system (eV)
  ---------------------------------------------------
  alpha Z        PSCENC =        31.21266086
  Ewald energy   TEWEN  =      1285.60251435
  -Hartree energ DENC   =     -2588.91598299
  -exchange      EXHF   =         0.00000000
  -V(xc)+E(xc)   XCENC  =       -32.97497295
  PAW double counting   =      1910.69453901    -1798.26491734
  entropy T*S    EENTRO =        -0.00000000
  eigenvalues    EBANDS =      -289.36818890
  atomic energy  EATOM  =      1448.49460871
  Solvation  Ediel_sol  =         0.00000000
  ---------------------------------------------------
  free energy    TOTEN  =       -33.51973924 eV

  energy without entropy =      -33.51973924  energy(sigma->0) =      -33.51973924


--------------------------------------------------------------------------------------------------------




--------------------------------------- Iteration      1(  20)  ---------------------------------------


    POTLOK:  cpu time      0.4330: real time      0.4350
    SETDIJ:  cpu time      1.1163: real time      1.1186
     EDDAV:  cpu time     37.8040: real time     38.1476
       DOS:  cpu time      0.0020: real time      0.0020
    CHARGE:  cpu time      0.4715: real time      0.4740
    MIXING:  cpu time      0.0126: real time      0.0126
    --------------------------------------------
      LOOP:  cpu time     39.8394: real time     40.1898

 eigenvalue-minimisations  : 31744
 total energy-change (2. order) : 0.6205980E-04  (-0.5502151E-05)
 number of electron      40.0000002 magnetization       0.0003945
 augmentation part       -7.3460831 magnetization       0.0005025

 Broyden mixing:
  rms(total) = 0.11478E-02    rms(broyden)= 0.11478E-02
  rms(prec ) = 0.19349E-02
  weight for this iteration     100.00

 eigenvalues of (default mixing * dielectric matrix)
  average eigenvalue GAMMA=   2.5448
 15.9124  4.4385  3.5449  2.4622  2.4622  1.9293  1.1552  1.0250  1.0120  0.8410
  0.7950  0.6900  0.6091  0.6616  0.6331

 Free energy of the ion-electron system (eV)
  ---------------------------------------------------
  alpha Z        PSCENC =        31.21266086
  Ewald energy   TEWEN  =      1285.60251435
  -Hartree energ DENC   =     -2588.05657707
  -exchange      EXHF   =         0.00000000
  -V(xc)+E(xc)   XCENC  =       -32.98428081
  PAW double counting   =      1910.74151544    -1798.31282444
  entropy T*S    EENTRO =        -0.00000000
  eigenvalues    EBANDS =      -290.21729422
  atomic energy  EATOM  =      1448.49460871
  Solvation  Ediel_sol  =         0.00000000
  ---------------------------------------------------
  free energy    TOTEN  =       -33.51967718 eV

  energy without entropy =      -33.51967718  energy(sigma->0) =      -33.51967718


--------------------------------------------------------------------------------------------------------




--------------------------------------- Iteration      1(  21)  ---------------------------------------


    POTLOK:  cpu time      0.2611: real time      0.2624
    SETDIJ:  cpu time      1.1182: real time      1.1206
     EDDAV:  cpu time     37.9692: real time     38.3145
       DOS:  cpu time      0.0020: real time      0.0020
    CHARGE:  cpu time      0.4740: real time      0.4766
    MIXING:  cpu time      0.0131: real time      0.0131
    --------------------------------------------
      LOOP:  cpu time     39.8375: real time     40.1892

 eigenvalue-minimisations  : 32080
 total energy-change (2. order) : 0.1075747E-03  (-0.3747590E-05)
 number of electron      40.0000002 magnetization       0.0002936
 augmentation part       -7.3464400 magnetization       0.0003068

 Broyden mixing:
  rms(total) = 0.75798E-03    rms(broyden)= 0.75798E-03
  rms(prec ) = 0.10363E-02
  weight for this iteration     100.00

 eigenvalues of (default mixing * dielectric matrix)
  average eigenvalue GAMMA=   2.5691
 15.9116  5.0106  4.1877  2.7216  2.7216  2.0196  1.3362  1.0400  1.0400  0.9667
  0.8167  0.7762  0.6916  0.6064  0.6294  0.6294

 Free energy of the ion-electron system (eV)
  ---------------------------------------------------
  alpha Z        PSCENC =        31.21266086
  Ewald energy   TEWEN  =      1285.60251435
  -Hartree energ DENC   =     -2587.35807135
  -exchange      EXHF   =         0.00000000
  -V(xc)+E(xc)   XCENC  =       -32.99172944
  PAW double counting   =      1910.70751449    -1798.27952547
  entropy T*S    EENTRO =        -0.00000000
  eigenvalues    EBANDS =      -290.90754174
  atomic energy  EATOM  =      1448.49460871
  Solvation  Ediel_sol  =         0.00000000
  ---------------------------------------------------
  free energy    TOTEN  =       -33.51956961 eV

  energy without entropy =      -33.51956961  energy(sigma->0) =      -33.51956961


--------------------------------------------------------------------------------------------------------




--------------------------------------- Iteration      1(  22)  ---------------------------------------


    POTLOK:  cpu time      0.2624: real time      0.2638
    SETDIJ:  cpu time      1.0990: real time      1.1197
     EDDAV:  cpu time     38.2740: real time     38.6086
       DOS:  cpu time      0.0020: real time      0.0020
    CHARGE:  cpu time      0.4713: real time      0.4741
    MIXING:  cpu time      0.0133: real time      0.0134
    --------------------------------------------
      LOOP:  cpu time     40.1221: real time     40.4816

 eigenvalue-minimisations  : 32464
 total energy-change (2. order) : 0.2947594E-04  (-0.9838258E-06)
 number of electron      40.0000002 magnetization       0.0001230
 augmentation part       -7.3466224 magnetization       0.0001423

 Broyden mixing:
  rms(total) = 0.42988E-03    rms(broyden)= 0.42988E-03
  rms(prec ) = 0.53979E-03
  weight for this iteration     100.00

 eigenvalues of (default mixing * dielectric matrix)
  average eigenvalue GAMMA=   2.6258
 15.9193  6.6141  4.3232  2.8549  2.8549  2.1546  1.6822  1.1554  1.0447  1.0447
  0.8989  0.7958  0.7474  0.6930  0.6280  0.6080  0.6193

 Free energy of the ion-electron system (eV)
  ---------------------------------------------------
  alpha Z        PSCENC =        31.21266086
  Ewald energy   TEWEN  =      1285.60251435
  -Hartree energ DENC   =     -2587.04872152
  -exchange      EXHF   =         0.00000000
  -V(xc)+E(xc)   XCENC  =       -32.99538965
  PAW double counting   =      1910.69535355    -1798.26755046
  entropy T*S    EENTRO =        -0.00000000
  eigenvalues    EBANDS =      -291.21301597
  atomic energy  EATOM  =      1448.49460871
  Solvation  Ediel_sol  =         0.00000000
  ---------------------------------------------------
  free energy    TOTEN  =       -33.51954013 eV

  energy without entropy =      -33.51954013  energy(sigma->0) =      -33.51954013


--------------------------------------------------------------------------------------------------------




[...]
     50       7.2823      0.00000
     51       7.2824      0.00000
     52       7.2824      0.00000
     53       7.6807      0.00000
     54       7.6807      0.00000
     55       7.6808      0.00000
     56       7.6808      0.00000
     57       8.4769      0.00000
     58       8.4769      0.00000
     59       8.4770      0.00000
     60       8.4770      0.00000
     61       8.6471      0.00000
     62       8.6471      0.00000
     63       8.6472      0.00000
     64       8.6472      0.00000
     65       9.3668      0.00000
     66       9.3668      0.00000
     67       9.3669      0.00000
     68       9.3669      0.00000
     69       9.9544      0.00000
     70       9.9544      0.00000
     71       9.9544      0.00000
     72       9.9544      0.00000
     73      10.8910      0.00000
     74      10.8910      0.00000
     75      10.8910      0.00000
     76      10.8910      0.00000
     77      11.2966      0.00000
     78      11.2966      0.00000
     79      11.2966      0.00000
     80      11.2966      0.00000
     81      12.2686      0.00000
     82      12.2686      0.00000
     83      12.2686      0.00000
     84      12.2686      0.00000
     85      12.6344      0.00000
     86      12.6344      0.00000
     87      12.6344      0.00000
     88      12.6344      0.00000
     89      12.8592      0.00000
     90      12.8592      0.00000
     91      12.8592      0.00000
     92      12.8592      0.00000
     93      13.4073      0.00000
     94      13.4073      0.00000
     95      13.4073      0.00000
     96      13.4073      0.00000
     97      14.6105      0.00000
     98      14.6105      0.00000
     99      14.6105      0.00000
    100      14.6105      0.00000
    101      15.0535      0.00000
    102      15.0535      0.00000
    103      15.0535      0.00000
    104      15.0535      0.00000
    105      15.7981      0.00000
    106      15.7981      0.00000
    107      15.7981      0.00000
    108      15.7981      0.00000
    109      16.0770      0.00000
    110      16.0770      0.00000
    111      16.0770      0.00000
    112      16.0770      0.00000
    113      16.6078      0.00000
    114      16.6078      0.00000
    115      16.6078      0.00000
    116      16.6078      0.00000
    117      16.9228      0.00000
    118      16.9228      0.00000
    119      16.9228      0.00000
    120      16.9228      0.00000
    121      18.3623      0.00000
    122      18.3623      0.00000
    123      18.3623      0.00000
    124      18.3623      0.00000
    125      18.5730      0.00000
    126      18.5730      0.00000
    127      18.5730      0.00000
    128      18.5730      0.00000
    129      19.0727      0.00000
    130      19.0727      0.00000
    131      19.0727      0.00000
    132      19.0727      0.00000
    133      19.7929      0.00000
    134      19.7929      0.00000
    135      19.7929      0.00000
    136      19.7929      0.00000
    137      20.8133      0.00000
    138      20.8133      0.00000
    139      20.8133      0.00000
    140      20.8133      0.00000
    141      21.0951      0.00000
    142      21.0951      0.00000
    143      21.0952      0.00000
    144      21.0952      0.00000
    145      21.5562      0.00000
    146      21.5562      0.00000
    147      21.5562      0.00000
    148      21.5562      0.00000
    149      21.8327      0.00000
    150      21.8327      0.00000
    151      21.8327      0.00000
    152      21.8327      0.00000
    153      22.0001      0.00000
    154      22.0001      0.00000
    155      22.0003      0.00000
    156      22.0003      0.00000
    157      22.1263      0.00000
    158      22.1264      0.00000
    159      22.1264      0.00000
    160      22.1264      0.00000
    161      22.4161      0.00000
    162      22.4161      0.00000
    163      22.4161      0.00000
    164      22.4161      0.00000
    165      22.5877      0.00000
    166      22.5877      0.00000
    167      22.5878      0.00000
    168      22.5878      0.00000
    169      23.3551      0.00000
    170      23.3551      0.00000
    171      23.3551      0.00000
    172      23.3551      0.00000
    173      23.6521      0.00000
    174      23.6522      0.00000
    175      23.6522      0.00000
    176      23.6522      0.00000
    177      24.5055      0.00000
    178      24.5055      0.00000
    179      24.5055      0.00000
    180      24.5055      0.00000
    181      24.6368      0.00000
    182      24.6368      0.00000
    183      24.6369      0.00000
    184      24.6369      0.00000
    185      25.0940      0.00000
    186      25.0940      0.00000
    187      25.0941      0.00000
    188      25.0941      0.00000
    189      25.2891      0.00000
    190      25.2891      0.00000
    191      25.2892      0.00000
    192      25.2892      0.00000
    193      25.5754      0.00000
    194      25.5754      0.00000
    195      25.5755      0.00000
    196      25.5755      0.00000
    197      25.9168      0.00000
    198      25.9168      0.00000
    199      25.9168      0.00000
    200      25.9168      0.00000
    201      26.0020      0.00000
    202      26.0020      0.00000
    203      26.0020      0.00000
    204      26.0020      0.00000
    205      26.1988      0.00000
    206      26.1988      0.00000
    207      26.1988      0.00000
    208      26.1988      0.00000
    209      26.9426      0.00000
    210      26.9426      0.00000
    211      26.9426      0.00000
    212      26.9426      0.00000
    213      27.1312      0.00000
    214      27.1312      0.00000
    215      27.1312      0.00000
    216      27.1312      0.00000
    217      27.3788      0.00000
    218      27.3788      0.00000
    219      27.3788      0.00000
    220      27.3788      0.00000
    221      27.6322      0.00000
    222      27.6322      0.00000
    223      27.6322      0.00000
    224      27.6322      0.00000


--------------------------------------------------------------------------------------------------------


 soft charge-density along one line, spin component            1
         0         1         2         3         4         5         6         7         8         9
 total charge-density along one line
 
 soft charge-density along one line, spin component            2
         0         1         2         3         4         5         6         7         8         9
 total charge-density along one line
 
 pseudopotential strength for first ion, spin component:            1
 16.038  20.055   0.042   0.053  -0.000   0.076   0.095  -0.000
 20.055  25.096   0.053   0.066  -0.000   0.096   0.119  -0.000
  0.042   0.053   3.478  -0.003  -0.000   5.942  -0.005  -0.000
  0.053   0.066  -0.003   3.475  -0.000  -0.005   5.938  -0.000
 -0.000  -0.000  -0.000  -0.000   3.479  -0.000  -0.000   5.945
  0.076   0.096   5.942  -0.005  -0.000  10.215  -0.009  -0.000
  0.095   0.119  -0.005   5.938  -0.000  -0.009  10.209  -0.000
 -0.000  -0.000  -0.000  -0.000   5.945  -0.000  -0.000  10.219
 -0.000  -0.000  -0.000  -0.000   0.007  -0.000  -0.000   0.013
 -0.007  -0.008   0.013   0.013  -0.000   0.024   0.024  -0.000
 -0.003  -0.004  -0.004   0.013   0.000  -0.007   0.025   0.000
 -0.000  -0.000  -0.000  -0.000   0.013  -0.000  -0.000   0.024
  0.001   0.002  -0.013   0.000  -0.000  -0.023   0.000  -0.000
 pseudopotential strength for first ion, spin component:            2
 16.038  20.055   0.042   0.053  -0.000   0.076   0.095  -0.000
 20.055  25.096   0.053   0.066  -0.000   0.096   0.119  -0.000
  0.042   0.053   3.478  -0.003  -0.000   5.942  -0.005  -0.000
  0.053   0.066  -0.003   3.475  -0.000  -0.005   5.938  -0.000
 -0.000  -0.000  -0.000  -0.000   3.479  -0.000  -0.000   5.945
  0.076   0.096   5.942  -0.005  -0.000  10.215  -0.009  -0.000
  0.095   0.119  -0.005   5.938  -0.000  -0.009  10.209  -0.000
 -0.000  -0.000  -0.000  -0.000   5.945  -0.000  -0.000  10.219
 -0.000  -0.000  -0.000  -0.000   0.007  -0.000  -0.000   0.013
 -0.007  -0.008   0.013   0.013  -0.000   0.024   0.024  -0.000
 -0.003  -0.004  -0.004   0.013   0.000  -0.007   0.025   0.000
 -0.000  -0.000  -0.000  -0.000   0.013  -0.000  -0.000   0.024
  0.001   0.002  -0.013   0.000  -0.000  -0.023   0.000  -0.000
 total augmentation occupancy for first ion, spin component:            1
  2.687  -0.651   0.352   0.400  -0.000  -0.066  -0.073   0.000  -0.000  -0.009  -0.014  -0.000   0.009
 -0.651   0.614  -0.445  -0.550   0.000   0.071   0.087   0.000  -0.000   0.002   0.017  -0.000  -0.005
  0.352  -0.445   1.226   0.076   0.000  -0.198   0.000   0.000  -0.000   0.051  -0.099   0.000   0.001
  0.400  -0.550   0.076   1.275   0.000   0.000  -0.199   0.000   0.000  -0.016   0.111  -0.000  -0.003
  0.000   0.000   0.000   0.000   1.240  -0.000   0.000  -0.211   0.148   0.000  -0.000   0.045  -0.000
 -0.066   0.071  -0.198   0.000   0.000   0.036  -0.002   0.000   0.000  -0.009   0.017   0.000   0.000
 -0.073   0.087   0.000  -0.199   0.000  -0.002   0.035  -0.000   0.000   0.003  -0.020  -0.000   0.001
  0.000  -0.000   0.000  -0.000  -0.211   0.000   0.000   0.040  -0.026   0.000   0.000  -0.008   0.000
 -0.000  -0.000   0.000  -0.000   0.148   0.000   0.000  -0.026   0.030  -0.000  -0.000   0.003   0.000
 -0.009   0.002   0.051  -0.016  -0.000  -0.009   0.003   0.000   0.000   0.010  -0.007   0.000   0.001
 -0.014   0.017  -0.099   0.111  -0.000   0.017  -0.020   0.000   0.000  -0.007   0.028  -0.000  -0.002
 -0.000  -0.000   0.000   0.000   0.045   0.000   0.000  -0.008   0.003  -0.000  -0.000   0.009  -0.000
  0.009  -0.005   0.001  -0.003  -0.000   0.000   0.001   0.000   0.000   0.001  -0.002   0.000   0.008
 total augmentation occupancy for first ion, spin component:            2
 -0.000   0.000   0.000  -0.000   0.000  -0.000  -0.000   0.000   0.000  -0.000  -0.000   0.000   0.000
  0.000  -0.000  -0.000   0.000   0.000   0.000  -0.000   0.000  -0.000  -0.000   0.000   0.000   0.000
  0.000  -0.000  -0.000  -0.000   0.000   0.000  -0.000   0.000   0.000  -0.000  -0.000  -0.000  -0.000
 -0.000   0.000  -0.000  -0.000   0.000   0.000   0.000   0.000  -0.000   0.000  -0.000  -0.000  -0.000
  0.000   0.000   0.000   0.000  -0.000   0.000   0.000   0.000   0.000  -0.000  -0.000  -0.000  -0.000
 -0.000   0.000   0.000   0.000   0.000  -0.000   0.000   0.000  -0.000   0.000   0.000   0.000   0.000
 -0.000  -0.000  -0.000   0.000   0.000   0.000  -0.000   0.000   0.000  -0.000   0.000   0.000   0.000
  0.000   0.000   0.000   0.000   0.000   0.000   0.000  -0.000   0.000  -0.000   0.000   0.000   0.000
  0.000  -0.000   0.000  -0.000   0.000  -0.000   0.000   0.000   0.000  -0.000   0.000  -0.000   0.000
 -0.000  -0.000  -0.000   0.000  -0.000   0.000  -0.000  -0.000  -0.000  -0.000   0.000   0.000  -0.000
 -0.000   0.000  -0.000  -0.000  -0.000   0.000   0.000   0.000   0.000   0.000   0.000   0.000  -0.000
  0.000   0.000  -0.000  -0.000  -0.000   0.000   0.000   0.000  -0.000   0.000   0.000  -0.000  -0.000
  0.000   0.000  -0.000  -0.000  -0.000   0.000   0.000   0.000   0.000  -0.000  -0.000  -0.000  -0.000


------------------------ aborting loop because EDIFF is reached ----------------------------------------





 total charge

# of ion       s       p       d       tot
------------------------------------------
    1        1.318   0.790   0.051   2.158
    2        1.318   0.790   0.051   2.158
    3        1.318   0.790   0.051   2.158
    4        1.318   0.790   0.051   2.158
    5        1.472   2.313   0.029   3.813
    6        1.472   2.313   0.029   3.813
    7        1.472   2.313   0.029   3.813
    8        1.472   2.313   0.029   3.813
--------------------------------------------------
tot         11.157  12.410   0.319  23.886



 magnetization (x)

# of ion       s       p       d       tot
------------------------------------------
    1       -0.000  -0.000   0.000  -0.000
    2       -0.000  -0.000   0.000  -0.000
    3       -0.000  -0.000   0.000  -0.000
    4       -0.000  -0.000   0.000  -0.000
    5        0.000   0.000   0.000   0.000
    6        0.000   0.000   0.000   0.000
    7        0.000   0.000   0.000   0.000
    8        0.000   0.000   0.000   0.000
--------------------------------------------------
tot         -0.000  -0.000   0.000  -0.000
 
    CHARGE:  cpu time      0.4581: real time      0.4613
    FORLOC:  cpu time      0.0102: real time      0.0102
    FORNL :  cpu time      4.5522: real time      4.5762
    STRESS:  cpu time     12.1255: real time     12.2600
    FORCOR:  cpu time      0.2558: real time      0.2576
    FORHAR:  cpu time      0.0298: real time      0.0300
    MIXING:  cpu time      0.0188: real time      0.0188
    OFIELD:  cpu time      0.0000: real time      0.0000

  FORCE on cell =-STRESS in cart. coord.  units (eV):
  Direction    XX          YY          ZZ          XY          YZ          ZX
  --------------------------------------------------------------------------------------
  Alpha Z    31.21266    31.21266    31.21266
  Ewald    2263.21534  2206.85000 -3184.46502    -0.00000     0.00000    -0.00000
  Hartree  2511.01858  2487.73095 -2411.82760    -0.00000    -0.00000    -0.00000
  E(xc)    -140.51302  -140.54843  -141.78272     0.00000    -0.00000     0.00000
  Local   -5281.91894 -5208.91334  5077.58138     0.00000    -0.00000    -0.00000
  n-local   240.24373   239.63035   241.75473     0.86169     0.00000     0.00000
  augment   -11.30455   -11.74959   -12.16244     0.00000     0.00000     0.00000
  Kinetic   388.86035   396.48761   398.05201     6.68818    -0.00000    -0.00000
  Fock        0.00000     0.00000     0.00000     0.00000     0.00000     0.00000
  -------------------------------------------------------------------------------------
  Total       0.81415     0.70023    -1.63699     0.00000     0.00000     0.00000
  in kB       2.40282     2.06658    -4.83127     0.00000     0.00000     0.00000
  external pressure =       -0.12 kB  Pullay stress =        0.00 kB


 VOLUME and BASIS-vectors are now :
 -----------------------------------------------------------------------------
  energy-cutoff  :      520.00
  volume of cell :      542.87
      direct lattice vectors                 reciprocal lattice vectors
     3.858100176  0.000000000  0.000000000     0.259194929  0.000000000  0.000000000
     0.000000000  4.526575088  0.000000000     0.000000000  0.220917577  0.000000000
     0.000000000  0.000000000 31.085176468     0.000000000  0.000000000  0.032169674

  length of vectors
     3.858100176  4.526575088 31.085176468     0.259194929  0.220917577  0.032169674


 FORCES acting on ions
    electron-ion (+dipol)            ewald-force                    non-local-force                 convergence-correction
 -----------------------------------------------------------------------------------------------
   0.384E-09 0.159E+02 0.157E+03   0.206E-08 -.186E+02 -.161E+03   0.139E-16 0.254E+01 0.364E+01   -.131E-13 -.457E-05 -.538E-04
   -.408E-08 -.159E+02 -.157E+03   -.206E-08 0.186E+02 0.161E+03   -.139E-16 -.254E+01 -.364E+01   0.149E-13 0.457E-05 0.537E-04
   -.408E-08 0.159E+02 -.157E+03   -.206E-08 -.186E+02 0.161E+03   -.139E-16 0.254E+01 -.364E+01   0.149E-13 -.457E-05 0.537E-04
   0.384E-09 -.159E+02 0.157E+03   0.206E-08 0.186E+02 -.161E+03   0.139E-16 -.254E+01 0.364E+01   -.134E-13 0.457E-05 -.538E-04
   0.417E-09 0.170E+02 -.188E+03   0.238E-08 -.186E+02 0.190E+03   0.278E-16 0.149E+01 -.185E+01   -.198E-13 -.167E-04 0.831E-04
   -.197E-07 -.170E+02 0.188E+03   -.238E-08 0.186E+02 -.190E+03   0.278E-16 -.149E+01 0.185E+01   0.457E-13 0.167E-04 -.831E-04
   -.197E-07 0.170E+02 0.188E+03   -.238E-08 -.186E+02 -.190E+03   0.000E+00 0.149E+01 0.185E+01   0.460E-13 -.167E-04 -.831E-04
   0.417E-09 -.170E+02 -.188E+03   0.238E-08 0.186E+02 0.190E+03   0.000E+00 -.149E+01 -.185E+01   -.204E-13 0.167E-04 0.831E-04
 -----------------------------------------------------------------------------------------------
   -.461E-07 0.790E-04 -.182E-03   0.478E-14 0.355E-14 0.000E+00   0.555E-16 -.444E-15 -.222E-15   0.547E-13 -.523E-10 -.511E-07
 
 
 POSITION                                       TOTAL-FORCE (eV/Angst)
 -----------------------------------------------------------------------------------
      0.96453      0.52346      1.36947         0.000000     -0.082556      0.271866
      2.89358      4.00311     19.71571        -0.000000      0.082556     -0.271866
      2.89358      2.78675      4.17312         0.000000     -0.082556     -0.271866
      0.96453      1.73983     16.91205        -0.000000      0.082556      0.271866
      0.96453      2.28569     19.45155         0.000000     -0.082509     -0.023360
      2.89358      2.24089      1.63362        -0.000000      0.082509      0.023360
      2.89358      0.02240     17.17621        -0.000000     -0.082509      0.023360
      0.96453      4.50417      3.90897         0.000000      0.082509     -0.023360
 -----------------------------------------------------------------------------------
    total drift:                               -0.000000      0.000079     -0.000182


--------------------------------------------------------------------------------------------------------



  FREE ENERGIE OF THE ION-ELECTRON SYSTEM (eV)
  ---------------------------------------------------
  free  energy   TOTEN  =       -33.51960940 eV

  energy  without entropy=      -33.51960940  energy(sigma->0) =      -33.51960940
 


--------------------------------------------------------------------------------------------------------


    POTLOK:  cpu time      1.3754: real time      1.3797


--------------------------------------------------------------------------------------------------------


 writing wavefunctions
     LOOP+:  cpu time   1179.7131: real time   1203.7590
    4ORBIT:  cpu time      0.0000: real time      0.0000



 total charge

# of ion       s       p       d       tot
------------------------------------------
    1        1.318   0.790   0.051   2.158
    2        1.318   0.790   0.051   2.158
    3        1.318   0.790   0.051   2.158
    4        1.318   0.790   0.051   2.158
    5        1.472   2.313   0.029   3.813
    6        1.472   2.313   0.029   3.813
    7        1.472   2.313   0.029   3.813
    8        1.472   2.313   0.029   3.813
--------------------------------------------------
tot         11.157  12.410   0.319  23.886



 magnetization (x)

# of ion       s       p       d       tot
------------------------------------------
    1       -0.000  -0.000   0.000  -0.000
    2       -0.000  -0.000   0.000  -0.000
    3       -0.000  -0.000   0.000  -0.000
    4       -0.000  -0.000   0.000  -0.000
    5        0.000   0.000   0.000   0.000
    6        0.000   0.000   0.000   0.000
    7        0.000   0.000   0.000   0.000
    8        0.000   0.000   0.000   0.000
--------------------------------------------------
tot         -0.000  -0.000   0.000  -0.000
 

 total amount of memory used by VASP MPI-rank0   379778. kBytes
=======================================================================

   base      :      30000. kBytes
   nonl-proj :      99751. kBytes
   fftplans  :       5630. kBytes
   grid      :      31866. kBytes
   one-center:        129. kBytes
   wavefun   :     212402. kBytes
 
  
  
 General timing and accounting informations for this job:
 ========================================================
  
                  Total CPU time used (sec):     1197.969
                            User time (sec):     1175.779
                          System time (sec):       22.190
                         Elapsed time (sec):     1223.057
  
                   Maximum memory used (kb):      558704.
                   Average memory used (kb):          N/A
  
                          Minor page faults:       468062
                          Major page faults:           61
                 Voluntary context switches:       204274
