 running   32 mpi-ranks, with    1 threads/rank, on    2 nodes
 distrk:  each k-point on   16 cores,    2 groups
 distr:  one band on    1 cores,   16 groups
 vasp.6.4.2 20Jul23 (build Oct 12 2023 10:31:02) complex                         
 POSCAR found type information on POSCAR GeSe
 POSCAR found :  2 types and       8 ions
 Reading from existing POTCAR
 -----------------------------------------------------------------------------
|                                                                             |
|           W    W    AA    RRRRR   N    N  II  N    N   GGGG   !!!           |
|           W    W   A  A   R    R  NN   N  II  NN   N  G    G  !!!           |
|           W    W  A    A  R    R  N N  N  II  N N  N  G       !!!           |
|           W WW W  AAAAAA  RRRRR   N  N N  II  N  N N  G  GGG   !            |
|           WW  WW  A    A  R   R   N   NN  II  N   NN  G    G                |
|           W    W  A    A  R    R  N    N  II  N    N   GGGG   !!!           |
|                                                                             |
|     You use a magnetic or noncollinear calculation, but did not specify     |
|     the initial magnetic moment with the MAGMOM tag. Note that a            |
|     default of 1 will be used for all atoms. This ferromagnetic setup       |
|     may break the symmetry of the crystal, in particular it may rule        |
|     out finding an antiferromagnetic solution. Thence, we recommend         |
|     setting the initial magnetic moment manually or verifying carefully     |
|     that this magnetic setup is desired.                                    |
|                                                                             |
 -----------------------------------------------------------------------------

 scaLAPACK will be used
 Reading from existing POTCAR
 LDA part: xc-table for Pade appr. of Perdew
 -----------------------------------------------------------------------------
|                                                                             |
|           W    W    AA    RRRRR   N    N  II  N    N   GGGG   !!!           |
|           W    W   A  A   R    R  NN   N  II  NN   N  G    G  !!!           |
|           W    W  A    A  R    R  N N  N  II  N N  N  G       !!!           |
|           W WW W  AAAAAA  RRRRR   N  N N  II  N  N N  G  GGG   !            |
|           WW  WW  A    A  R   R   N   NN  II  N   NN  G    G                |
|           W    W  A    A  R    R  N    N  II  N    N   GGGG   !!!           |
|                                                                             |
|     The number of bands has been changed from the values supplied in        |
|     the INCAR file. This is a result of running the parallel version.       |
|     The orbitals not found in the WAVECAR file will be initialized with     |
|     random numbers, which is usually adequate. For correlated               |
|     calculations, however, you should redo the groundstate calculation.     |
|     I found NBANDS = 220. Now, NBANDS = 224.                                |
|                                                                             |
 -----------------------------------------------------------------------------

 POSCAR, INCAR and KPOINTS ok, starting setup
 FFT: planning ... GRIDC
 FFT: planning ... GRID_SOFT
 FFT: planning ... GRID
 WAVECAR not read
 WARNING: random wavefunctions but no delay for mixing, default for NELMDL
 entering main loop
       N       E                     dE             d eps       ncg     rms          rms(c)
DAV:   1     0.181925920978E+03    0.18193E+03   -0.90590E+03 28672   0.129E+02
DAV:   2    -0.192943666462E+02   -0.20122E+03   -0.18072E+03 34784   0.386E+01
DAV:   3    -0.323612175068E+02   -0.13067E+02   -0.12839E+02 34544   0.978E+00
DAV:   4    -0.324757567839E+02   -0.11454E+00   -0.11450E+00 33696   0.852E-01
DAV:   5    -0.324765449433E+02   -0.78816E-03   -0.78814E-03 33440   0.741E-02    0.968E+00
DAV:   6    -0.240075704967E+02    0.84690E+01   -0.48036E+00 31328   0.206E+00    0.633E+00
DAV:   7    -0.227574730552E+02    0.12501E+01   -0.10012E+00 31856   0.828E-01    0.437E+00
DAV:   8    -0.238085216962E+02   -0.10510E+01   -0.25159E-01 33056   0.456E-01    0.290E+00
DAV:   9    -0.257237564687E+02   -0.19152E+01   -0.19829E-01 32160   0.381E-01    0.246E+00
DAV:  10    -0.287805106990E+02   -0.30568E+01   -0.67243E-01 31728   0.662E-01    0.194E+00
DAV:  11    -0.312763225717E+02   -0.24958E+01   -0.50846E-01 31728   0.567E-01    0.149E+00
DAV:  12    -0.322938450305E+02   -0.10175E+01   -0.15068E-01 32768   0.330E-01    0.112E+00
DAV:  13    -0.326347675154E+02   -0.34092E+00   -0.82339E-02 32288   0.256E-01    0.669E-01
DAV:  14    -0.326356081479E+02   -0.84063E-03   -0.24916E-02 31472   0.150E-01    0.399E-01
DAV:  15    -0.331241543882E+02   -0.48855E+00   -0.93952E-03 31376   0.966E-02    0.186E-01
DAV:  16    -0.334908878705E+02   -0.36673E+00   -0.21840E-03 31680   0.482E-02    0.809E-02
DAV:  17    -0.335183526793E+02   -0.27465E-01   -0.52797E-04 32016   0.202E-02    0.423E-02
DAV:  18    -0.335196850827E+02   -0.13324E-02   -0.23318E-04 32544   0.146E-02    0.220E-02
DAV:  19    -0.335197392434E+02   -0.54161E-04   -0.56528E-05 32992   0.796E-03    0.166E-02
DAV:  20    -0.335196771836E+02    0.62060E-04   -0.55022E-05 31744   0.825E-03    0.115E-02
DAV:  21    -0.335195696089E+02    0.10757E-03   -0.37476E-05 32080   0.699E-03    0.758E-03
DAV:  22    -0.335195401330E+02    0.29476E-04   -0.98383E-06 32464   0.359E-03    0.430E-03
DAV:  23    -0.335195677342E+02   -0.27601E-04   -0.23034E-06 32064   0.157E-03    0.217E-03
DAV:  24    -0.335195866966E+02   -0.18962E-04   -0.73271E-07 32336   0.109E-03    0.128E-03
DAV:  25    -0.335195958563E+02   -0.91597E-05   -0.60142E-07 33040   0.103E-03    0.755E-04
DAV:  26    -0.335196018282E+02   -0.59719E-05   -0.42125E-07 30992   0.837E-04    0.426E-04
DAV:  27    -0.335196065132E+02   -0.46850E-05   -0.17700E-07 31424   0.512E-04    0.224E-04
DAV:  28    -0.335196090600E+02   -0.25468E-05   -0.57424E-08 31552   0.260E-04    0.984E-05
DAV:  29    -0.335196093974E+02   -0.33733E-06   -0.67283E-09 31568   0.870E-05
   1 F= -.33519609E+02 E0= -.33519609E+02  d E =-.513951E-12  mag=     0.0000
 writing wavefunctions
