 vasp.6.4.2 20Jul23 (build Oct 12 2023 10:31:02) complex                         
 executed on              LinuxNV date 2024.11.01  23:33:48
 running  128 mpi-ranks, with    1 threads/rank, on    2 nodes
 distrk:  each k-point on   64 cores,    2 groups
 distr:  one band on NCORE=   8 cores,    8 groups


--------------------------------------------------------------------------------------------------------


 INCAR:
   ENCUT = 520.000000
   SIGMA = 0.050000
   EDIFF = 1.00e-06
   ALGO = N
   GGA = PE
   PREC = Accurate
   SYSTEM = 01_AOPT
   ICHARG = 0
   ISMEAR = 0
   ISPIN = 2
   ISTART = 1
   ISYM = -1
   KPAR = 2
   LORBIT = 11
   NBANDS = 220
   NELM = 100
   NELMIN = 5
   NPAR = 8
   LASPH = .TRUE.
   LCHARG = .FALSE.
   LWAVE = .FALSE.
   LREAL = .FALSE.

 POTCAR:    PAW_PBE Ge 05Jan2001                  
 POTCAR:    PAW_PBE Se 06Sep2000                  
 -----------------------------------------------------------------------------
|                                                                             |
|           W    W    AA    RRRRR   N    N  II  N    N   GGGG   !!!           |
|           W    W   A  A   R    R  NN   N  II  NN   N  G    G  !!!           |
|           W    W  A    A  R    R  N N  N  II  N N  N  G       !!!           |
|           W WW W  AAAAAA  RRRRR   N  N N  II  N  N N  G  GGG   !            |
|           WW  WW  A    A  R   R   N   NN  II  N   NN  G    G                |
|           W    W  A    A  R    R  N    N  II  N    N   GGGG   !!!           |
|                                                                             |
|     You use a magnetic or noncollinear calculation, but did not specify     |
|     the initial magnetic moment with the MAGMOM tag. Note that a            |
|     default of 1 will be used for all atoms. This ferromagnetic setup       |
|     may break the symmetry of the crystal, in particular it may rule        |
|     out finding an antiferromagnetic solution. Thence, we recommend         |
|     setting the initial magnetic moment manually or verifying carefully     |
|     that this magnetic setup is desired.                                    |
|                                                                             |
 -----------------------------------------------------------------------------

 POTCAR:    PAW_PBE Ge 05Jan2001                  
   VRHFIN =Ge: s2p2                                                                                 
   LEXCH  = PE                                                                                      
   EATOM  =   104.9960 eV,    7.7170 Ry                                                             
                                                                                                    
   TITEL  = PAW_PBE Ge 05Jan2001                                                                    
   LULTRA =        F    use ultrasoft PP ?                                                          
   IUNSCR =        1    unscreen: 0-lin 1-nonlin 2-no                                               
   RPACOR =    2.170    partial core radius                                                         
   POMASS =   72.610; ZVAL   =    4.000    mass and valenz                                          
   RCORE  =    2.300    outmost cutoff radius                                                       
   RWIGS  =    2.300; RWIGS  =    1.217    wigner-seitz radius (au A)                               
   ENMAX  =  173.807; ENMIN  =  130.355 eV                                                          
   ICORE  =        3    local potential                                                             
   LCOR   =        T    correct aug charges                                                         
   LPAW   =        T    paw PP                                                                      
   EAUG   =  385.843                                                                                
   DEXC   =    0.000                                                                                
   RMAX   =    2.342    core radius for proj-oper                                                   
   RAUG   =    1.300    factor for augmentation sphere                                              
   RDEP   =    2.318    radius for radial grids                                                     
   RDEPT  =    2.103    core radius for aug-charge                                                  
                                                                                                    
   Atomic configuration                                                                             
   10 entries                                                                                       
     n  l   j            E        occ.                                                              
     1  0  0.50    -10959.8463   2.0000                                                             
     2  0  0.50     -1371.6056   2.0000                                                             
     2  1  1.50     -1198.4791   6.0000                                                             
     3  0  0.50      -168.4733   2.0000                                                             
     3  1  1.50      -115.6019   6.0000                                                             
     3  2  2.50       -29.3106  10.0000                                                             
     4  0  0.50       -11.7309   2.0000                                                             
     4  1  0.50        -3.8952   2.0000                                                             
     4  2  1.50        -4.0817   0.0000                                                             
     4  3  2.50        -4.0817   0.0000                                                             
   Description                                                                                      
     l       E           TYP  RCUT    TYP  RCUT                                                     
     0    -11.7309493     23  2.300                                                                 
     0     -7.4578696     23  2.300                                                                 
     1     -3.8952261     23  2.300                                                                 
     1      6.1178114     23  2.300                                                                 
     2     -4.0817478     23  2.300                                                                 
     3     -1.3605826      7  2.300                                                                 
  local pseudopotential read in
  partial core-charges read in
  partial kinetic energy density read in
  atomic valenz-charges read in
  non local Contribution for L=            0  read in
    real space projection operators read in
  non local Contribution for L=            0  read in
    real space projection operators read in
  non local Contribution for L=            1  read in
    real space projection operators read in
  non local Contribution for L=            1  read in
    real space projection operators read in
  non local Contribution for L=            2  read in
    real space projection operators read in
    PAW grid and wavefunctions read in
 
   number of l-projection  operators is LMAX  =            5
   number of lm-projection operators is LMMAX =           13
 
 POTCAR:    PAW_PBE Se 06Sep2000                  
   VRHFIN =Se: s2p4                                                                                 
   LEXCH  = PE                                                                                      
   EATOM  =   257.1286 eV,   18.8984 Ry                                                             
                                                                                                    
   TITEL  = PAW_PBE Se 06Sep2000                                                                    
   LULTRA =        F    use ultrasoft PP ?                                                          
   IUNSCR =        1    unscreen: 0-lin 1-nonlin 2-no                                               
   RPACOR =    1.900    partial core radius                                                         
   POMASS =   78.960; ZVAL   =    6.000    mass and valenz                                          
   RCORE  =    2.100    outmost cutoff radius                                                       
   RWIGS  =    2.200; RWIGS  =    1.164    wigner-seitz radius (au A)                               
   ENMAX  =  211.555; ENMIN  =  158.666 eV                                                          
   ICORE  =        3    local potential                                                             
   LCOR   =        T    correct aug charges                                                         
   LPAW   =        T    paw PP                                                                      
   EAUG   =  446.842                                                                                
   DEXC   =    0.000                                                                                
   RMAX   =    2.147    core radius for proj-oper                                                   
   RAUG   =    1.300    factor for augmentation sphere                                              
   RDEP   =    2.177    radius for radial grids                                                     
   RDEPT  =    1.928    core radius for aug-charge                                                  
                                                                                                    
   Atomic configuration                                                                             
   10 entries                                                                                       
     n  l   j            E        occ.                                                              
     1  0  0.50    -12503.4787   2.0000                                                             
     2  0  0.50     -1606.9547   2.0000                                                             
     2  1  1.50     -1413.3140   6.0000                                                             
     3  0  0.50      -213.4885   2.0000                                                             
     3  1  1.50      -152.9538   6.0000                                                             
     3  2  2.50       -53.1221  10.0000                                                             
     4  0  0.50       -17.2865   2.0000                                                             
     4  1  0.50        -6.5110   4.0000                                                             
     4  2  2.50        -6.8029   0.0000                                                             
     4  3  2.50        -6.8029   0.0000                                                             
   Description                                                                                      
     l       E           TYP  RCUT    TYP  RCUT                                                     
     0    -17.2865377     23  2.100                                                                 
     0    -15.3094411     23  2.100                                                                 
     1     -6.5110275     23  2.100                                                                 
     1     -0.0695192     23  2.100                                                                 
     2     -6.8029130     23  2.100                                                                 
     3     -1.3605826      7  2.100                                                                 
  local pseudopotential read in
  partial core-charges read in
  partial kinetic energy density read in
  atomic valenz-charges read in
  non local Contribution for L=            0  read in
    real space projection operators read in
  non local Contribution for L=            0  read in
    real space projection operators read in
  non local Contribution for L=            1  read in
    real space projection operators read in
  non local Contribution for L=            1  read in
    real space projection operators read in
  non local Contribution for L=            2  read in
    real space projection operators read in
    PAW grid and wavefunctions read in
 
   number of l-projection  operators is LMAX  =            5
   number of lm-projection operators is LMMAX =           13
 
 -----------------------------------------------------------------------------
|                                                                             |
|               ----> ADVICE to this user running VASP <----                  |
|                                                                             |
|     You have a (more or less) 'large supercell' and for larger cells it     |
|     might be more efficient to use real-space projection operators.         |
|     Therefore, try LREAL= Auto in the INCAR file.                           |
|     Mind: For very accurate calculation, you might also keep the            |
|     reciprocal projection scheme (i.e. LREAL=.FALSE.).                      |
|                                                                             |
 -----------------------------------------------------------------------------

  PAW_PBE Ge 05Jan2001                  :
 energy of atom  1       EATOM= -104.9960
 kinetic energy error for atom=    0.0002 (will be added to EATOM!!)
  PAW_PBE Se 06Sep2000                  :
 energy of atom  2       EATOM= -257.1286
 kinetic energy error for atom=    0.0007 (will be added to EATOM!!)
 
 
 POSCAR: Ge Se
  positions in cartesian coordinates
  No initial velocities read in
 exchange correlation table for  LEXCH =        8
   RHO(1)=    0.500       N(1)  =     2000
   RHO(2)=  100.500       N(2)  =     4000
 


--------------------------------------------------------------------------------------------------------


 ion  position               nearest neighbor table
   1  0.063  0.047  0.127-  45 2.55  55 2.58  54 2.83
   2  0.248  0.889  0.380-  48 2.60  67 2.60  45 2.69
   3  0.571  0.231  0.362-  49 2.53  56 2.61  68 2.62
   4  0.580  0.551  0.360-  69 2.42  50 2.63  72 2.73
   5  0.571  0.881  0.364-  70 2.56  48 2.69
   6  0.901  0.225  0.367-  55 2.57  56 2.65  46 2.76
   7  0.905  0.548  0.394-  71 2.55  72 2.62  47 2.64
   8  0.896  0.852  0.361-  53 2.54  44 2.69  72 2.75
   9  0.063  0.151  0.613-  51 2.61  57 2.69  37 2.74
  10  0.064  0.506  0.635-  58 2.47  43 2.71  52 2.72
  11  0.096  0.833  0.644-  59 2.46  39 2.60  51 2.83
  12  0.371  0.178  0.652-  38 2.53  60 2.54  51 2.71
  13  0.411  0.470  0.643-  61 2.47  38 2.54  41 2.64
  14  0.394  0.822  0.628-  39 2.54  62 2.60  42 2.71
  15  0.747  0.148  0.615-  63 2.56  40 2.71  37 2.75
  16  0.752  0.472  0.631-  43 2.49  64 2.55  41 2.58
  17  0.238  0.547  0.369-  66 2.53  50 2.65  47 2.82
  18  0.204  0.210  0.372-  46 2.53  45 2.65  54 2.66
  19  0.715  0.836  0.631-  65 2.55  42 2.77
  20  0.891  0.658  0.871-  64 2.51  52 2.57
  21  0.903  0.990  0.871-  37 2.62  65 2.77  59 2.79
  22  0.047  0.375  0.135-  71 2.49  46 2.63
  23  0.069  0.706  0.135-  47 2.48  67 2.68  53 2.75
  24  0.394  0.050  0.123-  48 2.58  54 2.64  68 2.83
  25  0.411  0.384  0.143-  49 2.49  66 2.69  69 2.80
  26  0.713  0.030  0.132-  44 2.53  68 2.57  70 2.76
  27  0.713  0.366  0.110-  56 2.54  69 2.64  68 2.84
  28  0.370  0.705  0.135-  67 2.52  50 2.53  66 2.69
  29  0.225  0.324  0.871-  38 2.63  57 2.64  60 2.81
  30  0.215  0.651  0.883-  39 2.59  58 2.67
  31  0.233  0.997  0.874-  51 2.63  59 2.65
  32  0.573  0.309  0.857-  41 2.59  63 2.68  60 2.71
  33  0.549  0.656  0.878-  61 2.54  42 2.59
  34  0.573  0.983  0.852-  40 2.50  62 2.68  65 2.83
  35  0.887  0.312  0.866-  43 2.58  63 2.65
  36  0.735  0.704  0.115-  72 2.72  53 2.75  70 2.79
  37  0.907  0.997  0.634-  21 2.62   9 2.74  15 2.75
  38  0.253  0.342  0.637-  12 2.53  13 2.54  29 2.63
  39  0.244  0.686  0.655-  14 2.54  30 2.59  11 2.60
  40  0.570  0.022  0.630-  34 2.50  15 2.71
  41  0.585  0.350  0.627-  16 2.58  32 2.59  13 2.64
  42  0.557  0.680  0.646-  33 2.59  14 2.71  19 2.77
  43  0.911  0.351  0.639-  16 2.49  35 2.58  10 2.71
  44  0.757  0.017  0.355-  26 2.53   8 2.69
  45  0.088  0.033  0.355-   1 2.55  18 2.65   2 2.69
  46  0.073  0.364  0.371-  18 2.53  22 2.63   6 2.76
  47  0.061  0.687  0.358-  23 2.48   7 2.64  17 2.82
  48  0.407  0.021  0.354-  24 2.58   2 2.60   5 2.69
  49  0.417  0.364  0.367-  25 2.49   3 2.53
  50  0.409  0.674  0.357-  28 2.53   4 2.63  17 2.65
  51  0.224  0.020  0.638-   9 2.61  31 2.63  12 2.71  11 2.83
  52  0.910  0.661  0.639-  20 2.57  10 2.72
  53  0.901  0.849  0.131-   8 2.54  23 2.75  36 2.75
  54  0.237  0.192  0.135-  24 2.64  18 2.66   1 2.83
  55  0.908  0.184  0.140-   6 2.57   1 2.58
  56  0.737  0.356  0.338-  27 2.54   3 2.61   6 2.65
  57  0.076  0.174  0.854-  29 2.64   9 2.69
  58  0.065  0.500  0.857-  10 2.47  30 2.67
  59  0.078  0.851  0.865-  11 2.46  31 2.65  21 2.79
  60  0.399  0.181  0.879-  12 2.54  32 2.71  29 2.81
  61  0.403  0.514  0.861-  13 2.47  33 2.54
  62  0.407  0.846  0.861-  14 2.60  34 2.68
  63  0.734  0.167  0.846-  15 2.56  35 2.65  32 2.68
  64  0.753  0.513  0.857-  20 2.51  16 2.55
  65  0.745  0.835  0.860-  19 2.55  21 2.77  34 2.83
  66  0.249  0.527  0.142-  17 2.53  25 2.69  28 2.69
  67  0.229  0.849  0.150-  28 2.52   2 2.60  23 2.68
  68  0.577  0.185  0.131-  26 2.57   3 2.62  24 2.83  27 2.84
  69  0.582  0.530  0.143-   4 2.42  27 2.64  25 2.80
  70  0.573  0.859  0.134-   5 2.56  26 2.76  36 2.79
  71  0.902  0.510  0.168-  22 2.49   7 2.55
  72  0.751  0.687  0.359-   7 2.62  36 2.72   4 2.73   8 2.75
 

IMPORTANT INFORMATION: All symmetrisations will be switched off!
NOSYMM: (Re-)initialisation of all symmetry stuff for point group C_1.


----------------------------------------------------------------------------------------

                                     Primitive cell                                     

  volume of cell :    1720.5087

  direct lattice vectors                    reciprocal lattice vectors
    12.446030352  0.000001242 -0.000001823     0.080346904 -0.000000008  0.000000015
     0.000001248 12.501365410 -0.000000952    -0.000000008  0.079991262  0.000000008
    -0.000002085 -0.000001084 11.057796113     0.000000013  0.000000007  0.090433934

  length of vectors
    12.446030352 12.501365410 11.057796113     0.080346904  0.079991262  0.090433934

  position of ions in fractional coordinates (direct lattice)
     0.062658743  0.047124695  0.126576368
     0.247754027  0.889453005  0.379886861
     0.570551310  0.231314573  0.362429057
     0.579725816  0.550618970  0.360201684
     0.571020370  0.881097350  0.364176027
     0.901083518  0.224565092  0.367217520
     0.904781173  0.547604170  0.394409308
     0.896199851  0.852465807  0.361192417
     0.062622206  0.151434255  0.613195721
     0.063832418  0.505821885  0.634512735
     0.095783800  0.833206218  0.644316071
     0.371454583  0.178265024  0.651559557
     0.411432766  0.469738123  0.643142309
     0.393655115  0.821541221  0.628082843
     0.747387031  0.147554837  0.615356768
     0.751810704  0.471597417  0.631030710
     0.238297077  0.546745156  0.369010547
     0.204452778  0.209717411  0.371695853
     0.715113330  0.835679779  0.631360926
     0.890860007  0.658485656  0.870830202
     0.903270387  0.990142635  0.870958359
     0.046788198  0.374974867  0.135322428
     0.068617592  0.706173814  0.134762751
     0.394404063  0.049972938  0.123109187
     0.410643993  0.384220922  0.143162820
     0.713237125  0.030154929  0.131680531
     0.712774477  0.365577052  0.110149262
     0.370172645  0.704702207  0.135026775
     0.224822962  0.323591929  0.870971646
     0.215345592  0.650634760  0.883192911
     0.232655898  0.997195868  0.873775648
     0.573302535  0.309081397  0.856670945
     0.549334612  0.655502063  0.878325391
     0.572748783  0.982776369  0.851712577
     0.887385578  0.311927468  0.865930819
     0.734639742  0.704124901  0.115033227
     0.907400800  0.997085381  0.634083756
     0.253068343  0.342191779  0.636639322
     0.243701897  0.686166302  0.654781461
     0.570349674  0.022066633  0.629834273
     0.584899617  0.349568311  0.627106313
     0.557368550  0.679570967  0.645840792
     0.911158427  0.351488475  0.638860561
     0.757171960  0.017165231  0.354756629
     0.088192142  0.032596595  0.354996541
     0.072665136  0.363932177  0.371362710
     0.060930015  0.687091254  0.357628398
     0.407392191  0.020986740  0.353665201
     0.417012694  0.363660334  0.366795281
     0.408545160  0.673952247  0.356963080
     0.224064190  0.019678431  0.637505214
     0.910326130  0.660972156  0.639179777
     0.900740352  0.849019969  0.131405840
     0.237118218  0.191814141  0.135271750
     0.907638249  0.184021087  0.139695469
     0.736769949  0.356339200  0.337997730
     0.076194904  0.173996231  0.854238469
     0.064635389  0.500096862  0.857406127
     0.078304482  0.851004379  0.865160734
     0.399394595  0.180736746  0.878766472
     0.403476853  0.513768925  0.861051239
     0.407203114  0.845971754  0.860857719
     0.733566102  0.166798127  0.845736911
     0.752693196  0.512586784  0.856790687
     0.745186890  0.834932253  0.859506093
     0.249114790  0.526793809  0.142063626
     0.228799621  0.848828567  0.150302739
     0.576721480  0.184627022  0.131289674
     0.582067366  0.529567334  0.142559055
     0.573345612  0.858656262  0.134347459
     0.902487194  0.509723688  0.168097541
     0.750645679  0.686901755  0.359486563

  ion indices of the primitive-cell ions
   primitive index   ion index
                 1           1
                 2           2
                 3           3
                 4           4
                 5           5
                 6           6
                 7           7
                 8           8
                 9           9
                10          10
                11          11
                12          12
                13          13
                14          14
                15          15
                16          16
                17          17
                18          18
                19          19
                20          20
                21          21
                22          22
                23          23
                24          24
                25          25
                26          26
                27          27
                28          28
                29          29
                30          30
                31          31
                32          32
                33          33
                34          34
                35          35
                36          36
                37          37
                38          38
                39          39
                40          40
                41          41
                42          42
                43          43
                44          44
                45          45
                46          46
                47          47
                48          48
                49          49
                50          50
                51          51
                52          52
                53          53
                54          54
                55          55
                56          56
                57          57
                58          58
                59          59
                60          60
                61          61
                62          62
                63          63
                64          64
                65          65
                66          66
                67          67
                68          68
                69          69
                70          70
                71          71
                72          72

----------------------------------------------------------------------------------------

 
 
 KPOINTS: KPOINTS created by Atomic Simulation Env

Automatic generation of k-mesh.
 Grid dimensions read from file:
 generate k-points for:    2    2    2

 Generating k-lattice:

  Cartesian coordinates                     Fractional coordinates (reciprocal lattice)
     0.040173452 -0.000000004  0.000000008     0.500000000  0.000000000  0.000000000
    -0.000000004  0.039995631  0.000000004     0.000000000  0.500000000  0.000000000
     0.000000007  0.000000003  0.045216967     0.000000000 -0.000000000  0.500000000

  Length of vectors
     0.040173452  0.039995631  0.045216967

  Shift w.r.t. Gamma in fractional coordinates (k-lattice)
     0.000000000  0.000000000  0.000000000

 
 Subroutine IBZKPT returns following result:
 ===========================================
 
 Found      8 irreducible k-points:
 
 Following reciprocal coordinates:
            Coordinates               Weight
  0.000000  0.000000  0.000000      1.000000
  0.500000  0.000000  0.000000      1.000000
  0.000000  0.500000  0.000000      1.000000
  0.500000  0.500000  0.000000      1.000000
  0.000000  0.000000  0.500000      1.000000
  0.500000  0.000000  0.500000      1.000000
  0.000000  0.500000  0.500000      1.000000
  0.500000  0.500000  0.500000      1.000000
 
 Following cartesian coordinates:
            Coordinates               Weight
  0.000000  0.000000  0.000000      1.000000
  0.040173 -0.000000  0.000000      1.000000
 -0.000000  0.039996  0.000000      1.000000
  0.040173  0.039996  0.000000      1.000000
  0.000000  0.000000  0.045217      1.000000
  0.040173 -0.000000  0.045217      1.000000
  0.000000  0.039996  0.045217      1.000000
  0.040173  0.039996  0.045217      1.000000
 
 -----------------------------------------------------------------------------
|                                                                             |
|           W    W    AA    RRRRR   N    N  II  N    N   GGGG   !!!           |
|           W    W   A  A   R    R  NN   N  II  NN   N  G    G  !!!           |
|           W    W  A    A  R    R  N N  N  II  N N  N  G       !!!           |
|           W WW W  AAAAAA  RRRRR   N  N N  II  N  N N  G  GGG   !            |
|           WW  WW  A    A  R   R   N   NN  II  N   NN  G    G                |
|           W    W  A    A  R    R  N    N  II  N    N   GGGG   !!!           |
|                                                                             |
|     The number of bands has been changed from the values supplied in        |
|     the INCAR file. This is a result of running the parallel version.       |
|     The orbitals not found in the WAVECAR file will be initialized with     |
|     random numbers, which is usually adequate. For correlated               |
|     calculations, however, you should redo the groundstate calculation.     |
|     I found NBANDS = 220. Now, NBANDS = 224.                                |
|                                                                             |
 -----------------------------------------------------------------------------



--------------------------------------------------------------------------------------------------------




 Dimension of arrays:
   k-points           NKPTS =      8   k-points in BZ     NKDIM =      8   number of bands    NBANDS=    224
   number of dos      NEDOS =    301   number of ions     NIONS =     72
   non local maximal  LDIM  =      5   non local SUM 2l+1 LMDIM =     13
   total plane-waves  NPLWV = 774144
   max r-space proj   IRMAX =      1   max aug-charges    IRDMAX=  24652
   dimension x,y,z NGX =    96 NGY =   96 NGZ =   84
   dimension x,y,z NGXF=   192 NGYF=  192 NGZF=  168
   support grid    NGXF=   192 NGYF=  192 NGZF=  168
   ions per type =              36  36
   NGX,Y,Z   is equivalent  to a cutoff of  12.82, 12.77, 12.63 a.u.
   NGXF,Y,Z  is equivalent  to a cutoff of  25.65, 25.53, 25.26 a.u.

 SYSTEM =  01_AOPT                                 
 POSCAR =  Ge Se                                   

 Startparameter for this run:
   NWRITE =      2    write-flag & timer
   PREC   = accura    normal or accurate (medium, high low for compatibility)
   ISTART =      0    job   : 0-new  1-cont  2-samecut
   ICHARG =      2    charge: 1-file 2-atom 10-const
   ISPIN  =      2    spin polarized calculation?
   LNONCOLLINEAR =      F non collinear calculations
   LSORBIT =      F    spin-orbit coupling
   INIWAV =      1    electr: 0-lowe 1-rand  2-diag
   LASPH  =      T    aspherical Exc in radial PAW
 Electronic Relaxation 1
   ENCUT  =  520.0 eV  38.22 Ry    6.18 a.u.  23.14 23.24 20.56*2*pi/ulx,y,z
   ENINI  =  520.0     initial cutoff
   ENAUG  =  446.8 eV  augmentation charge cutoff
   NELM   =    100;   NELMIN=  5; NELMDL=  0     # of ELM steps 
   EDIFF  = 0.1E-05   stopping-criterion for ELM
   LREAL  =      F    real-space projection
   NLSPLINE    = F    spline interpolate recip. space projectors
   LCOMPAT=      F    compatible to vasp.4.4
   GGA_COMPAT  = T    GGA compatible to vasp.4.4-vasp.4.6
   LMAXPAW     = -100 max onsite density
   LMAXMIX     =    2 max onsite mixed and CHGCAR
   VOSKOWN=      0    Vosko Wilk Nusair interpolation
   ROPT   =    0.00000   0.00000
 Ionic relaxation
   EDIFFG = 0.1E-04   stopping-criterion for IOM
   NSW    =      0    number of steps for IOM
   NBLOCK =      1;   KBLOCK =      1    inner block; outer block 
   IBRION =     -1    ionic relax: 0-MD 1-quasi-New 2-CG
   NFREE  =      0    steps in history (QN), initial steepest desc. (CG)
   ISIF   =      2    stress and relaxation
   IWAVPR =     10    prediction:  0-non 1-charg 2-wave 3-comb
   ISYM   =     -1    0-nonsym 1-usesym 2-fastsym
   LCORR  =      T    Harris-Foulkes like correction to forces

   POTIM  = 0.5000    time-step for ionic-motion
   TEIN   =    0.0    initial temperature
   TEBEG  =    0.0;   TEEND  =   0.0 temperature during run
   SMASS  =  -3.00    Nose mass-parameter (am)
   estimated Nose-frequenzy (Omega)   =  0.10E-29 period in steps = 0.13E+47 mass=  -0.354E-26a.u.
   SCALEE = 1.0000    scale energy and forces
   NPACO  =    256;   APACO  = 10.0  distance and # of slots for P.C.
   PSTRESS=    0.0 pullay stress

  Mass of Ions in am
   POMASS =  72.61 78.96
  Ionic Valenz
   ZVAL   =   4.00  6.00
  Atomic Wigner-Seitz radii
   RWIGS  =  -1.00 -1.00
  virtual crystal weights 
   VCA    =   1.00  1.00
   NELECT =     360.0000    total number of electrons
   NUPDOWN=      -1.0000    fix difference up-down

 DOS related values:
   EMIN   =  10.00;   EMAX   =-10.00  energy-range for DOS
   EFERMI =   0.00;   METHOD = LEGACY      
   ISMEAR =     0;   SIGMA  =   0.05  broadening in eV -4-tet -1-fermi 0-gaus

 Electronic relaxation 2 (details)
   IALGO  =     38    algorithm
   LDIAG  =      T    sub-space diagonalisation (order eigenvalues)
   LSUBROT=      F    optimize rotation matrix (better conditioning)
   TURBO    =      0    0=normal 1=particle mesh
   IRESTART =      0    0=no restart 2=restart with 2 vectors
   NREBOOT  =      0    no. of reboots
   NMIN     =      0    reboot dimension
   EREF     =   0.00    reference energy to select bands
   IMIX   =      4    mixing-type and parameters
     AMIX     =   0.40;   BMIX     =  1.00
     AMIX_MAG =   1.60;   BMIX_MAG =  1.00
     AMIN     =   0.10
     WC   =   100.;   INIMIX=   1;  MIXPRE=   1;  MAXMIX= -45

 Intra band minimization:
   WEIMIN = 0.0000     energy-eigenvalue tresh-hold
   EBREAK =  0.11E-08  absolut break condition
   DEPER  =   0.30     relativ break condition  

   TIME   =   0.40     timestep for ELM

  volume/ion in A,a.u.               =      23.90       161.26
  Fermi-wavevector in a.u.,A,eV,Ry     =   0.971904  1.836632 12.852028  0.944597
  Thomas-Fermi vector in A             =   2.102159
 
 Write flags
   LWAVE        =      F    write WAVECAR
   LDOWNSAMPLE  =      F    k-point downsampling of WAVECAR
   LCHARG       =      F    write CHGCAR
   LVTOT        =      F    write LOCPOT, total local potential
   LVHAR        =      F    write LOCPOT, Hartree potential only
   LELF         =      F    write electronic localiz. function (ELF)
   LORBIT       =     11    0 simple, 1 ext, 2 COOP (PROOUT), +10 PAW based schemes


 Dipole corrections
   LMONO  =      F    monopole corrections only (constant potential shift)
   LDIPOL =      F    correct potential (dipole corrections)
   IDIPOL =      0    1-x, 2-y, 3-z, 4-all directions 
   EPSILON=  1.0000000 bulk dielectric constant

 Exchange correlation treatment:
   GGA     =    PE    GGA type
   LEXCH   =     8    internal setting for exchange type
   LIBXC   =     F    Libxc                    
   VOSKOWN =     0    Vosko Wilk Nusair interpolation
   LHFCALC =     F    Hartree Fock is set to
   LHFONE  =     F    Hartree Fock one center treatment
   AEXX    =    0.0000 exact exchange contribution

 Linear response parameters
   LEPSILON=     F    determine dielectric tensor
   LRPA    =     F    only Hartree local field effects (RPA)
   LNABLA  =     F    use nabla operator in PAW spheres
   LVEL    =     F    velocity operator in full k-point grid
   CSHIFT  =0.1000    complex shift for real part using Kramers Kronig
   OMEGAMAX=  -1.0    maximum frequency
   DEG_THRESHOLD= 0.2000000E-02 threshold for treating states as degnerate
   RTIME   =   -0.100 relaxation time in fs
  (WPLASMAI=    0.000 imaginary part of plasma frequency in eV, 0.658/RTIME)
   DFIELD  = 0.0000000 0.0000000 0.0000000 field for delta impulse in time
 
  Optional k-point grid parameters
   LKPOINTS_OPT  =     F    use optional k-point grid
   KPOINTS_OPT_MODE=     1    mode for optional k-point grid
 
 Orbital magnetization related:
   ORBITALMAG=     F  switch on orbital magnetization
   LCHIMAG   =     F  perturbation theory with respect to B field
   DQ        =  0.001000  dq finite difference perturbation B field
   LLRAUG    =     F  two centre corrections for induced B field
   LBONE     =     F  B-component reconstruction in AE one-centre
   LVGVCALC  =     T  calculate vGv susceptibility
   LVGVAPPL  =     F  apply vGv susceptibility instead of pGv for G=0

 Random number generation:
   RANDOM_GENERATOR = DEFAULT
   PCG_SEED         = not used


--------------------------------------------------------------------------------------------------------


 Static calculation
 charge density and potential will be updated during run
 spin polarized calculation
 Variant of blocked Davidson
 Davidson routine will perform the subspace rotation
 perform sub-space diagonalisation
    after iterative eigenvector-optimisation
 modified Broyden-mixing scheme, WC =      100.0
 initial mixing is a Kerker type mixing with AMIX =  0.4000 and BMIX =      1.0000
 Hartree-type preconditioning will be used
 using additional bands            44
 reciprocal scheme for non local part
 use partial core corrections
 calculate Harris-corrections to forces 
   (improved forces if not selfconsistent)
 use gradient corrections 
 use of overlap-Matrix (Vanderbilt PP)
 Gauss-broadening in eV      SIGMA  =   0.05


--------------------------------------------------------------------------------------------------------


  energy-cutoff  :      520.00
  volume of cell :     1720.51
      direct lattice vectors                 reciprocal lattice vectors
    12.446030352  0.000001242 -0.000001823     0.080346904 -0.000000008  0.000000015
     0.000001248 12.501365410 -0.000000952    -0.000000008  0.079991262  0.000000008
    -0.000002085 -0.000001084 11.057796113     0.000000013  0.000000007  0.090433934

  length of vectors
    12.446030352 12.501365410 11.057796113     0.080346904  0.079991262  0.090433934


 
 k-points in units of 2pi/SCALE and weight: KPOINTS created by Atomic Simulation Env
   0.00000000  0.00000000  0.00000000       0.125
   0.04017345 -0.00000000  0.00000001       0.125
  -0.00000000  0.03999563  0.00000000       0.125
   0.04017345  0.03999563  0.00000001       0.125
   0.00000001  0.00000000  0.04521697       0.125
   0.04017346 -0.00000000  0.04521697       0.125
   0.00000000  0.03999563  0.04521697       0.125
   0.04017345  0.03999563  0.04521698       0.125
 
 k-points in reciprocal lattice and weights: KPOINTS created by Atomic Simulation Env
   0.00000000  0.00000000  0.00000000       0.125
   0.50000000  0.00000000  0.00000000       0.125
   0.00000000  0.50000000  0.00000000       0.125
   0.50000000  0.50000000  0.00000000       0.125
   0.00000000  0.00000000  0.50000000       0.125
   0.50000000  0.00000000  0.50000000       0.125
   0.00000000  0.50000000  0.50000000       0.125
   0.50000000  0.50000000  0.50000000       0.125
 
 position of ions in fractional coordinates (direct lattice) 
   0.06265874  0.04712470  0.12657637
   0.24775403  0.88945301  0.37988686
   0.57055131  0.23131457  0.36242906
   0.57972582  0.55061897  0.36020168
   0.57102037  0.88109735  0.36417603
   0.90108352  0.22456509  0.36721752
   0.90478117  0.54760417  0.39440931
   0.89619985  0.85246581  0.36119242
   0.06262221  0.15143426  0.61319572
   0.06383242  0.50582188  0.63451273
   0.09578380  0.83320622  0.64431607
   0.37145458  0.17826502  0.65155956
   0.41143277  0.46973812  0.64314231
   0.39365512  0.82154122  0.62808284
   0.74738703  0.14755484  0.61535677
   0.75181070  0.47159742  0.63103071
   0.23829708  0.54674516  0.36901055
   0.20445278  0.20971741  0.37169585
   0.71511333  0.83567978  0.63136093
   0.89086001  0.65848566  0.87083020
   0.90327039  0.99014263  0.87095836
   0.04678820  0.37497487  0.13532243
   0.06861759  0.70617381  0.13476275
   0.39440406  0.04997294  0.12310919
   0.41064399  0.38422092  0.14316282
   0.71323712  0.03015493  0.13168053
   0.71277448  0.36557705  0.11014926
   0.37017265  0.70470221  0.13502678
   0.22482296  0.32359193  0.87097165
   0.21534559  0.65063476  0.88319291
   0.23265590  0.99719587  0.87377565
   0.57330254  0.30908140  0.85667094
   0.54933461  0.65550206  0.87832539
   0.57274878  0.98277637  0.85171258
   0.88738558  0.31192747  0.86593082
   0.73463974  0.70412490  0.11503323
   0.90740080  0.99708538  0.63408376
   0.25306834  0.34219178  0.63663932
   0.24370190  0.68616630  0.65478146
   0.57034967  0.02206663  0.62983427
   0.58489962  0.34956831  0.62710631
   0.55736855  0.67957097  0.64584079
   0.91115843  0.35148847  0.63886056
   0.75717196  0.01716523  0.35475663
   0.08819214  0.03259659  0.35499654
   0.07266514  0.36393218  0.37136271
   0.06093002  0.68709125  0.35762840
   0.40739219  0.02098674  0.35366520
   0.41701269  0.36366033  0.36679528
   0.40854516  0.67395225  0.35696308
   0.22406419  0.01967843  0.63750521
   0.91032613  0.66097216  0.63917978
   0.90074035  0.84901997  0.13140584
   0.23711822  0.19181414  0.13527175
   0.90763825  0.18402109  0.13969547
   0.73676995  0.35633920  0.33799773
   0.07619490  0.17399623  0.85423847
   0.06463539  0.50009686  0.85740613
   0.07830448  0.85100438  0.86516073
   0.39939459  0.18073675  0.87876647
   0.40347685  0.51376893  0.86105124
   0.40720311  0.84597175  0.86085772
   0.73356610  0.16679813  0.84573691
   0.75269320  0.51258678  0.85679069
   0.74518689  0.83493225  0.85950609
   0.24911479  0.52679381  0.14206363
   0.22879962  0.84882857  0.15030274
   0.57672148  0.18462702  0.13128967
   0.58206737  0.52956733  0.14255905
   0.57334561  0.85865626  0.13434746
   0.90248719  0.50972369  0.16809754
   0.75064568  0.68690176  0.35948656
 
 position of ions in cartesian coordinates  (Angst):
   0.77985241  0.58912298  1.39965551
   3.08355446 11.11937693  4.20071016
   7.10109845  2.89174831  4.00766535
   7.21528504  6.88348928  3.98303520
   7.10693720 11.01492025  4.02698237
  11.21491233  2.80737100  4.06061461
  11.26093381  6.84580053  4.36129554
  11.15413086 10.65698728  3.99398966
   0.77939679  1.89313437  6.78059300
   0.79445951  6.32346361  7.01631185
   1.19212778 10.41621481  7.12471478
   4.62313388  2.22855596  7.20481188
   5.12070394  5.87236773  7.11173532
   4.89944323 10.27038681  6.94521052
   9.30200057  1.84463720  6.80448817
   9.35705811  5.89561188  6.97780711
   2.96585257  6.83506087  4.08044243
   2.54462497  2.62175384  4.11013639
   8.90032194 10.44713849  6.98145830
  11.08766969  8.23196996  9.62946058
  11.24213007 12.37813507  9.63087737
   0.58232752  4.68769775  1.49636738
   0.85401723  8.82813683  1.49017822
   4.90876475  0.62473031  1.36131553
   5.11088778  4.80328650  1.58306416
   8.87697067  0.37697853  1.45609514
   8.87121300  4.57021308  1.21800643
   4.60718057  8.80974010  1.49309721
   2.79815200  4.04534029  9.63102617
   2.68019675  8.13382219  9.76616613
   2.89564179 12.46630927  9.66203159
   7.13533935  3.86393927  9.47289130
   6.83703424  8.19467055  9.71234147
   7.12844819 12.28604629  9.41806204
  11.04442642  3.89951942  9.57528452
   9.14334917  8.80252347  1.27201196
  11.29353782 12.46492913  7.01156629
   3.14969538  4.27786410  7.03982703
   3.03312070  8.57801527  7.24043880
   7.09858806  0.27586307  6.96457792
   7.27967752  4.37008124  6.93441235
   6.93702539  8.49556497  7.14157413
  11.34030455  4.39408630  7.06438783
   9.42378448  0.21458938  3.92282507
   1.09764138  0.40750166  3.92547918
   0.90439216  4.54964881  4.10645265
   0.75833693  8.58957852  3.95458115
   5.07041487  0.26236303  3.91075692
   5.19015234  4.54625084  4.05594632
   5.08476556  8.42532343  3.94722357
   2.78870841  0.24600684  7.04940225
  11.32994613  8.26305488  7.06791736
  11.21064255 10.61390985  1.45305653
   2.95118050  2.39793882  1.49580682
  11.29649313  2.30051583  1.54472219
   9.16986089  4.45472710  3.73750830
   0.94832252  2.17518963  9.44599451
   0.80445285  6.25189276  9.48102154
   0.97457922 10.63871587  9.56677005
   4.97087564  2.25945564  9.71721958
   5.02168401  6.42281264  9.52132782
   5.06806158 10.57580160  9.51918759
   9.12998442  2.08520433  9.35198483
   9.36804121  6.40803469  9.47421487
   9.27461790 10.43779318  9.50424098
   3.10049060  6.58564206  1.57090965
   2.84764778 10.61151621  1.66201582
   7.17789300  2.30809044  1.45177322
   7.24442847  6.62031532  1.57638740
   7.13587768 10.73437626  1.48558495
  11.23238330  6.37224302  1.85878621
   9.34255901  8.58721039  3.97512710
 


--------------------------------------------------------------------------------------------------------


 k-point   1 :   0.0000 0.0000 0.0000  plane waves:   46297
 k-point   2 :   0.5000 0.0000 0.0000  plane waves:   46334
 k-point   3 :   0.0000 0.5000 0.0000  plane waves:   46326
 k-point   4 :   0.5000 0.5000 0.0000  plane waves:   46436
 k-point   5 :   0.0000 0.0000 0.5000  plane waves:   46346
 k-point   6 :   0.5000 0.0000 0.5000  plane waves:   46316
 k-point   7 :   0.0000 0.5000 0.5000  plane waves:   46344
 k-point   8 :   0.5000 0.5000 0.5000  plane waves:   46336

 maximum and minimum number of plane-waves per node :      5848     5754

 maximum number of plane-waves:     46436
 maximum index in each direction: 
   IXMAX=   23   IYMAX=   23   IZMAX=   20
   IXMIN=  -23   IYMIN=  -23   IZMIN=  -21


 parallel 3D FFT for wavefunctions:
    minimum data exchange during FFTs selected (reduces bandwidth)
 parallel 3D FFT for charge:
    minimum data exchange during FFTs selected (reduces bandwidth)


 total amount of memory used by VASP MPI-rank0   110684. kBytes
=======================================================================

   base      :      30000. kBytes
   nonl-proj :      16332. kBytes
   fftplans  :       6179. kBytes
   grid      :      15593. kBytes
   one-center:        146. kBytes
   wavefun   :      42434. kBytes
 
     INWAV:  cpu time      0.0000: real time      0.0001
 Broyden mixing: mesh for mixing (old mesh)
   NGX = 47   NGY = 47   NGZ = 41
  (NGX  =192   NGY  =192   NGZ  =168)
  gives a total of  90569 points

 initial charge density was supplied:
 charge density of overlapping atoms calculated
 number of electron     360.0000000 magnetization      72.0000000
 keeping initial charge density in first step


--------------------------------------------------------------------------------------------------------


 Maximum index for augmentation-charges           838 (set IRDMAX)


--------------------------------------------------------------------------------------------------------


 First call to EWALD:  gamma=   0.148
 Maximum number of real-space cells 3x 3x 3
 Maximum number of reciprocal cells 3x 3x 3

    FEWALD:  cpu time      0.0059: real time      0.0059


--------------------------------------- Ionic step        1  -------------------------------------------




--------------------------------------- Iteration      1(   1)  ---------------------------------------


    POTLOK:  cpu time      0.1399: real time      0.1408
    SETDIJ:  cpu time      0.5957: real time      0.5972
     EDDAV:  cpu time      8.6095: real time      8.6528
       DOS:  cpu time      0.0018: real time      0.0018
    --------------------------------------------
      LOOP:  cpu time      9.3470: real time      9.3926

 eigenvalue-minimisations  :  7168
 total energy-change (2. order) : 0.1818381E+04  (-0.1419080E+05)
 number of electron     360.0000000 magnetization      72.0000000
 augmentation part      360.0000000 magnetization      72.0000000

 Free energy of the ion-electron system (eV)
  ---------------------------------------------------
  alpha Z        PSCENC =       797.72921103
  Ewald energy   TEWEN  =    -12875.86572171
  -Hartree energ DENC   =     -1106.25544494
  -exchange      EXHF   =         0.00000000
  -V(xc)+E(xc)   XCENC  =      -293.82819125
  PAW double counting   =     10738.42099860    -9719.93139476
  entropy T*S    EENTRO =        -0.02133191
  eigenvalues    EBANDS =      1241.68128082
  atomic energy  EATOM  =     13036.45147835
  Solvation  Ediel_sol  =         0.00000000
  ---------------------------------------------------
  free energy    TOTEN  =      1818.38088424 eV

  energy without entropy =     1818.40221615  energy(sigma->0) =     1818.39155020


--------------------------------------------------------------------------------------------------------




--------------------------------------- Iteration      1(   2)  ---------------------------------------


     EDDAV:  cpu time      9.7715: real time      9.8229
       DOS:  cpu time      0.0013: real time      0.0013
    --------------------------------------------
      LOOP:  cpu time      9.7728: real time      9.8241

 eigenvalue-minimisations  :  8480
 total energy-change (2. order) :-0.1881349E+04  (-0.1805956E+04)
 number of electron     360.0000000 magnetization      72.0000000
 augmentation part      360.0000000 magnetization      72.0000000

 Free energy of the ion-electron system (eV)
  ---------------------------------------------------
  alpha Z        PSCENC =       797.72921103
  Ewald energy   TEWEN  =    -12875.86572171
  -Hartree energ DENC   =     -1106.25544494
  -exchange      EXHF   =         0.00000000
  -V(xc)+E(xc)   XCENC  =      -293.82819125
  PAW double counting   =     10738.42099860    -9719.93139476
  entropy T*S    EENTRO =        -0.02027484
  eigenvalues    EBANDS =      -639.66897621
  atomic energy  EATOM  =     13036.45147835
  Solvation  Ediel_sol  =         0.00000000
  ---------------------------------------------------
  free energy    TOTEN  =       -62.96831571 eV

  energy without entropy =      -62.94804087  energy(sigma->0) =      -62.95817829


--------------------------------------------------------------------------------------------------------




--------------------------------------- Iteration      1(   3)  ---------------------------------------


     EDDAV:  cpu time      9.8359: real time      9.8926
       DOS:  cpu time      0.0012: real time      0.0012
    --------------------------------------------
      LOOP:  cpu time      9.8371: real time      9.8938

 eigenvalue-minimisations  :  8640
 total energy-change (2. order) :-0.2184855E+03  (-0.2122909E+03)
 number of electron     360.0000000 magnetization      72.0000000
 augmentation part      360.0000000 magnetization      72.0000000

 Free energy of the ion-electron system (eV)
  ---------------------------------------------------
  alpha Z        PSCENC =       797.72921103
  Ewald energy   TEWEN  =    -12875.86572171
  -Hartree energ DENC   =     -1106.25544494
  -exchange      EXHF   =         0.00000000
  -V(xc)+E(xc)   XCENC  =      -293.82819125
  PAW double counting   =     10738.42099860    -9719.93139476
  entropy T*S    EENTRO =        -0.00022098
  eigenvalues    EBANDS =      -858.17452809
  atomic energy  EATOM  =     13036.45147835
  Solvation  Ediel_sol  =         0.00000000
  ---------------------------------------------------
  free energy    TOTEN  =      -281.45381373 eV

  energy without entropy =     -281.45359275  energy(sigma->0) =     -281.45370324


--------------------------------------------------------------------------------------------------------




--------------------------------------- Iteration      1(   4)  ---------------------------------------


     EDDAV:  cpu time      9.9536: real time     10.0030
       DOS:  cpu time      0.0012: real time      0.0013
    --------------------------------------------
      LOOP:  cpu time      9.9548: real time     10.0042

 eigenvalue-minimisations  :  8664
 total energy-change (2. order) :-0.7923907E+01  (-0.7832435E+01)
 number of electron     360.0000000 magnetization      72.0000000
 augmentation part      360.0000000 magnetization      72.0000000

 Free energy of the ion-electron system (eV)
  ---------------------------------------------------
  alpha Z        PSCENC =       797.72921103
  Ewald energy   TEWEN  =    -12875.86572171
  -Hartree energ DENC   =     -1106.25544494
  -exchange      EXHF   =         0.00000000
  -V(xc)+E(xc)   XCENC  =      -293.82819125
  PAW double counting   =     10738.42099860    -9719.93139476
  entropy T*S    EENTRO =        -0.00000868
  eigenvalues    EBANDS =      -866.09864742
  atomic energy  EATOM  =     13036.45147835
  Solvation  Ediel_sol  =         0.00000000
  ---------------------------------------------------
  free energy    TOTEN  =      -289.37772077 eV

  energy without entropy =     -289.37771208  energy(sigma->0) =     -289.37771643


--------------------------------------------------------------------------------------------------------




--------------------------------------- Iteration      1(   5)  ---------------------------------------


     EDDAV:  cpu time     10.3570: real time     10.4087
       DOS:  cpu time      0.0012: real time      0.0012
    CHARGE:  cpu time      0.4265: real time      0.4284
    MIXING:  cpu time      0.0071: real time      0.0072
    --------------------------------------------
      LOOP:  cpu time     10.7918: real time     10.8455

 eigenvalue-minimisations  :  9160
 total energy-change (2. order) :-0.3122304E+00  (-0.3114293E+00)
 number of electron     360.0000000 magnetization      48.7682326
 augmentation part      -66.8669156 magnetization      48.9811153

 Broyden mixing:
  rms(total) = 0.29106E+01    rms(broyden)= 0.29106E+01
  rms(prec ) = 0.30704E+01
  weight for this iteration     100.00

 Free energy of the ion-electron system (eV)
  ---------------------------------------------------
  alpha Z        PSCENC =       797.72921103
  Ewald energy   TEWEN  =    -12875.86572171
  -Hartree energ DENC   =     -1106.25544494
  -exchange      EXHF   =         0.00000000
  -V(xc)+E(xc)   XCENC  =      -293.82819125
  PAW double counting   =     10738.42099860    -9719.93139476
  entropy T*S    EENTRO =        -0.00000777
  eigenvalues    EBANDS =      -866.41087876
  atomic energy  EATOM  =     13036.45147835
  Solvation  Ediel_sol  =         0.00000000
  ---------------------------------------------------
  free energy    TOTEN  =      -289.68995120 eV

  energy without entropy =     -289.68994343  energy(sigma->0) =     -289.68994731


--------------------------------------------------------------------------------------------------------




--------------------------------------- Iteration      1(   6)  ---------------------------------------


    POTLOK:  cpu time      0.1340: real time      0.1354
    SETDIJ:  cpu time      0.5979: real time      0.6000
     EDDAV:  cpu time      9.2861: real time      9.3334
       DOS:  cpu time      0.0013: real time      0.0013
    CHARGE:  cpu time      0.4229: real time      0.4245
    MIXING:  cpu time      0.0078: real time      0.0078
    --------------------------------------------
      LOOP:  cpu time     10.4500: real time     10.5025

 eigenvalue-minimisations  :  7920
 total energy-change (2. order) : 0.6728770E+00  (-0.2728635E+01)
 number of electron     360.0000000 magnetization      27.8938401
 augmentation part      -66.2485947 magnetization      29.0758761

 Broyden mixing:
  rms(total) = 0.17231E+01    rms(broyden)= 0.17231E+01
  rms(prec ) = 0.17593E+01
  weight for this iteration     100.00

 eigenvalues of (default mixing * dielectric matrix)
  average eigenvalue GAMMA=   1.0086
  1.0086

 Free energy of the ion-electron system (eV)
  ---------------------------------------------------
  alpha Z        PSCENC =       797.72921103
  Ewald energy   TEWEN  =    -12875.86572171
  -Hartree energ DENC   =     -1160.02667188
  -exchange      EXHF   =         0.00000000
  -V(xc)+E(xc)   XCENC  =      -287.36904950
  PAW double counting   =     12995.74565266   -11980.72855157
  entropy T*S    EENTRO =        -0.00000329
  eigenvalues    EBANDS =      -814.95341825
  atomic energy  EATOM  =     13036.45147835
  Solvation  Ediel_sol  =         0.00000000
  ---------------------------------------------------
  free energy    TOTEN  =      -289.01707416 eV

  energy without entropy =     -289.01707087  energy(sigma->0) =     -289.01707252


--------------------------------------------------------------------------------------------------------




--------------------------------------- Iteration      1(   7)  ---------------------------------------


    POTLOK:  cpu time      0.1308: real time      0.1315
    SETDIJ:  cpu time      0.6011: real time      0.6034
     EDDAV:  cpu time      9.3587: real time      9.4082
       DOS:  cpu time      0.0008: real time      0.0008
    CHARGE:  cpu time      0.4229: real time      0.4248
    MIXING:  cpu time      0.0085: real time      0.0085
    --------------------------------------------
      LOOP:  cpu time     10.5229: real time     10.5771

 eigenvalue-minimisations  :  8024
 total energy-change (2. order) :-0.7454951E+01  (-0.8828256E+00)
 number of electron     360.0000000 magnetization       9.3702963
 augmentation part      -66.2368782 magnetization      10.0453136

 Broyden mixing:
  rms(total) = 0.90731E+00    rms(broyden)= 0.90731E+00
  rms(prec ) = 0.92297E+00
  weight for this iteration     100.00

 eigenvalues of (default mixing * dielectric matrix)
  average eigenvalue GAMMA=   1.4451
  0.8631  2.0271

 Free energy of the ion-electron system (eV)
  ---------------------------------------------------
  alpha Z        PSCENC =       797.72921103
  Ewald energy   TEWEN  =    -12875.86572171
  -Hartree energ DENC   =     -1176.71902129
  -exchange      EXHF   =         0.00000000
  -V(xc)+E(xc)   XCENC  =      -290.32828047
  PAW double counting   =     15057.85001407   -14044.40880980
  entropy T*S    EENTRO =        -0.00000000
  eigenvalues    EBANDS =      -801.18089566
  atomic energy  EATOM  =     13036.45147835
  Solvation  Ediel_sol  =         0.00000000
  ---------------------------------------------------
  free energy    TOTEN  =      -296.47202547 eV

  energy without entropy =     -296.47202547  energy(sigma->0) =     -296.47202547


--------------------------------------------------------------------------------------------------------




--------------------------------------- Iteration      1(   8)  ---------------------------------------


    POTLOK:  cpu time      0.1295: real time      0.1301
    SETDIJ:  cpu time      0.5994: real time      0.6016
     EDDAV:  cpu time      9.5501: real time      9.6001
       DOS:  cpu time      0.0008: real time      0.0008
    CHARGE:  cpu time      0.4142: real time      0.4158
    MIXING:  cpu time      0.0072: real time      0.0073
    --------------------------------------------
      LOOP:  cpu time     10.7012: real time     10.7557

 eigenvalue-minimisations  :  8176
 total energy-change (2. order) :-0.3216454E+01  (-0.1723307E+00)
 number of electron     360.0000000 magnetization       4.4322844
 augmentation part      -66.2507073 magnetization       4.7431886

 Broyden mixing:
  rms(total) = 0.33702E+00    rms(broyden)= 0.33702E+00
  rms(prec ) = 0.34233E+00
  weight for this iteration     100.00

 eigenvalues of (default mixing * dielectric matrix)
  average eigenvalue GAMMA=   1.3544
  2.4889  0.9247  0.6496

 Free energy of the ion-electron system (eV)
  ---------------------------------------------------
  alpha Z        PSCENC =       797.72921103
  Ewald energy   TEWEN  =    -12875.86572171
  -Hartree energ DENC   =     -1180.62382119
  -exchange      EXHF   =         0.00000000
  -V(xc)+E(xc)   XCENC  =      -290.14590121
  PAW double counting   =     16785.27047829   -15772.71220834
  entropy T*S    EENTRO =        -0.00000000
  eigenvalues    EBANDS =      -799.79199477
  atomic energy  EATOM  =     13036.45147835
  Solvation  Ediel_sol  =         0.00000000
  ---------------------------------------------------
  free energy    TOTEN  =      -299.68847954 eV

  energy without entropy =     -299.68847954  energy(sigma->0) =     -299.68847954


--------------------------------------------------------------------------------------------------------




--------------------------------------- Iteration      1(   9)  ---------------------------------------


    POTLOK:  cpu time      0.1290: real time      0.1300
    SETDIJ:  cpu time      0.6023: real time      0.6044
     EDDAV:  cpu time     10.3147: real time     10.3726
       DOS:  cpu time      0.0009: real time      0.0009
    CHARGE:  cpu time      0.4252: real time      0.4268
    MIXING:  cpu time      0.0079: real time      0.0079
    --------------------------------------------
      LOOP:  cpu time     11.4800: real time     11.5426

 eigenvalue-minimisations  :  9064
 total energy-change (2. order) :-0.3898057E+00  (-0.4293600E-01)
 number of electron     360.0000000 magnetization       2.2739675
 augmentation part      -66.2912247 magnetization       2.4280402

 Broyden mixing:
  rms(total) = 0.14923E+00    rms(broyden)= 0.14923E+00
  rms(prec ) = 0.15085E+00
  weight for this iteration     100.00

 eigenvalues of (default mixing * dielectric matrix)
  average eigenvalue GAMMA=   1.3295
  2.6298  1.2358  0.8346  0.6179

 Free energy of the ion-electron system (eV)
  ---------------------------------------------------
  alpha Z        PSCENC =       797.72921103
  Ewald energy   TEWEN  =    -12875.86572171
  -Hartree energ DENC   =     -1179.47812126
  -exchange      EXHF   =         0.00000000
  -V(xc)+E(xc)   XCENC  =      -290.19948617
  PAW double counting   =     17079.08714940   -16066.86856878
  entropy T*S    EENTRO =        -0.00000000
  eigenvalues    EBANDS =      -800.93422610
  atomic energy  EATOM  =     13036.45147835
  Solvation  Ediel_sol  =         0.00000000
  ---------------------------------------------------
  free energy    TOTEN  =      -300.07828523 eV

  energy without entropy =     -300.07828523  energy(sigma->0) =     -300.07828523


--------------------------------------------------------------------------------------------------------




--------------------------------------- Iteration      1(  10)  ---------------------------------------


    POTLOK:  cpu time      0.1292: real time      0.1298
    SETDIJ:  cpu time      0.5997: real time      0.6020
     EDDAV:  cpu time      9.4296: real time      9.4797
       DOS:  cpu time      0.0009: real time      0.0009
    CHARGE:  cpu time      0.4264: real time      0.4283
    MIXING:  cpu time      0.0088: real time      0.0088
    --------------------------------------------
      LOOP:  cpu time     10.5945: real time     10.6496

 eigenvalue-minimisations  :  8112
 total energy-change (2. order) :-0.1094515E+00  (-0.9946016E-02)
 number of electron     360.0000000 magnetization       0.7399696
 augmentation part      -66.2942866 magnetization       0.8075264

 Broyden mixing:
  rms(total) = 0.72971E-01    rms(broyden)= 0.72971E-01
  rms(prec ) = 0.74043E-01
  weight for this iteration     100.00

 eigenvalues of (default mixing * dielectric matrix)
  average eigenvalue GAMMA=   1.3741
  2.7025  1.7434  0.9743  0.8255  0.6248

 Free energy of the ion-electron system (eV)
  ---------------------------------------------------
  alpha Z        PSCENC =       797.72921103
  Ewald energy   TEWEN  =    -12875.86572171
  -Hartree energ DENC   =     -1179.62152322
  -exchange      EXHF   =         0.00000000
  -V(xc)+E(xc)   XCENC  =      -290.19713663
  PAW double counting   =     17093.21491804   -16081.01005992
  entropy T*S    EENTRO =        -0.00000000
  eigenvalues    EBANDS =      -800.88890268
  atomic energy  EATOM  =     13036.45147835
  Solvation  Ediel_sol  =         0.00000000
  ---------------------------------------------------
  free energy    TOTEN  =      -300.18773673 eV

  energy without entropy =     -300.18773673  energy(sigma->0) =     -300.18773673


--------------------------------------------------------------------------------------------------------




--------------------------------------- Iteration      1(  11)  ---------------------------------------


    POTLOK:  cpu time      0.1292: real time      0.1299
    SETDIJ:  cpu time      0.5833: real time      0.6001
     EDDAV:  cpu time     10.2267: real time     10.2847
       DOS:  cpu time      0.0010: real time      0.0010
    CHARGE:  cpu time      0.4252: real time      0.4269
    MIXING:  cpu time      0.0085: real time      0.0085
    --------------------------------------------
      LOOP:  cpu time     11.3739: real time     11.4510

 eigenvalue-minimisations  :  9008
 total energy-change (2. order) :-0.3108853E-01  (-0.3639601E-02)
 number of electron     360.0000000 magnetization       0.1858420
 augmentation part      -66.2797673 magnetization       0.2048535

 Broyden mixing:
  rms(total) = 0.28567E-01    rms(broyden)= 0.28567E-01
  rms(prec ) = 0.29072E-01
  weight for this iteration     100.00

 eigenvalues of (default mixing * dielectric matrix)
  average eigenvalue GAMMA=   1.4038
  2.9051  2.1585  1.1768  0.8592  0.6992  0.6238

 Free energy of the ion-electron system (eV)
  ---------------------------------------------------
  alpha Z        PSCENC =       797.72921103
  Ewald energy   TEWEN  =    -12875.86572171
  -Hartree energ DENC   =     -1180.73843040
  -exchange      EXHF   =         0.00000000
  -V(xc)+E(xc)   XCENC  =      -290.15549135
  PAW double counting   =     17017.42202257   -16005.19178193
  entropy T*S    EENTRO =        -0.00000000
  eigenvalues    EBANDS =      -799.87011182
  atomic energy  EATOM  =     13036.45147835
  Solvation  Ediel_sol  =         0.00000000
  ---------------------------------------------------
  free energy    TOTEN  =      -300.21882526 eV

  energy without entropy =     -300.21882526  energy(sigma->0) =     -300.21882526


--------------------------------------------------------------------------------------------------------




--------------------------------------- Iteration      1(  12)  ---------------------------------------


    POTLOK:  cpu time      0.1292: real time      0.1306
    SETDIJ:  cpu time      0.6017: real time      0.6034
     EDDAV:  cpu time      9.7714: real time      9.8205
       DOS:  cpu time      0.0008: real time      0.0008
    CHARGE:  cpu time      0.4228: real time      0.4245
    MIXING:  cpu time      0.0078: real time      0.0078
    --------------------------------------------
      LOOP:  cpu time     10.9337: real time     10.9876

 eigenvalue-minimisations  :  8480
 total energy-change (2. order) :-0.3277936E-02  (-0.4495052E-03)
 number of electron     360.0000000 magnetization       0.0608551
 augmentation part      -66.2791794 magnetization       0.0655979

 Broyden mixing:
  rms(total) = 0.10961E-01    rms(broyden)= 0.10961E-01
  rms(prec ) = 0.11569E-01
  weight for this iteration     100.00

 eigenvalues of (default mixing * dielectric matrix)
  average eigenvalue GAMMA=   1.3666
  3.0004  2.3240  1.2015  0.8878  0.8878  0.6103  0.6540

 Free energy of the ion-electron system (eV)
  ---------------------------------------------------
  alpha Z        PSCENC =       797.72921103
  Ewald energy   TEWEN  =    -12875.86572171
  -Hartree energ DENC   =     -1180.83561164
  -exchange      EXHF   =         0.00000000
  -V(xc)+E(xc)   XCENC  =      -290.15902068
  PAW double counting   =     16981.34415059   -15969.09135546
  entropy T*S    EENTRO =        -0.00000000
  eigenvalues    EBANDS =      -799.79523369
  atomic energy  EATOM  =     13036.45147835
  Solvation  Ediel_sol  =         0.00000000
  ---------------------------------------------------
  free energy    TOTEN  =      -300.22210320 eV

  energy without entropy =     -300.22210320  energy(sigma->0) =     -300.22210320


--------------------------------------------------------------------------------------------------------




--------------------------------------- Iteration      1(  13)  ---------------------------------------


    POTLOK:  cpu time      0.1285: real time      0.1292
    SETDIJ:  cpu time      0.6007: real time      0.6028
     EDDAV:  cpu time     11.0069: real time     11.0732
       DOS:  cpu time      0.0008: real time      0.0008
    CHARGE:  cpu time      0.4291: real time      0.4306
    MIXING:  cpu time      0.0079: real time      0.0079
    --------------------------------------------
      LOOP:  cpu time     12.1738: real time     12.2445

 eigenvalue-minimisations  :  9824
 total energy-change (2. order) :-0.1267278E-03  (-0.6626962E-04)
 number of electron     360.0000000 magnetization       0.0158041
 augmentation part      -66.2804644 magnetization       0.0166208

 Broyden mixing:
  rms(total) = 0.44276E-02    rms(broyden)= 0.44276E-02
  rms(prec ) = 0.46167E-02
  weight for this iteration     100.00

 eigenvalues of (default mixing * dielectric matrix)
  average eigenvalue GAMMA=   1.3489
  3.0509  2.4320  1.0855  1.0855  1.0180  0.8620  0.6483  0.6087

 Free energy of the ion-electron system (eV)
  ---------------------------------------------------
  alpha Z        PSCENC =       797.72921103
  Ewald energy   TEWEN  =    -12875.86572171
  -Hartree energ DENC   =     -1180.73896780
  -exchange      EXHF   =         0.00000000
  -V(xc)+E(xc)   XCENC  =      -290.16964984
  PAW double counting   =     16967.09113303   -15954.82705965
  entropy T*S    EENTRO =        -0.00000000
  eigenvalues    EBANDS =      -799.89265335
  atomic energy  EATOM  =     13036.45147835
  Solvation  Ediel_sol  =         0.00000000
  ---------------------------------------------------
  free energy    TOTEN  =      -300.22222993 eV

  energy without entropy =     -300.22222993  energy(sigma->0) =     -300.22222993


--------------------------------------------------------------------------------------------------------




--------------------------------------- Iteration      1(  14)  ---------------------------------------


    POTLOK:  cpu time      0.1308: real time      0.1315
    SETDIJ:  cpu time      0.5988: real time      0.6010
     EDDAV:  cpu time      9.5997: real time      9.6517
       DOS:  cpu time      0.0009: real time      0.0009
    CHARGE:  cpu time      0.4288: real time      0.4303
    MIXING:  cpu time      0.0084: real time      0.0084
    --------------------------------------------
      LOOP:  cpu time     10.7674: real time     10.8238

 eigenvalue-minimisations  :  8240
 total energy-change (2. order) :-0.1821632E-04  (-0.9048307E-05)
 number of electron     360.0000000 magnetization       0.0054938
 augmentation part      -66.2801024 magnetization       0.0058282

 Broyden mixing:
  rms(total) = 0.17039E-02    rms(broyden)= 0.17039E-02
  rms(prec ) = 0.18063E-02
  weight for this iteration     100.00

 eigenvalues of (default mixing * dielectric matrix)
  average eigenvalue GAMMA=   1.3300
  3.0756  2.4626  1.4181  1.2040  0.8877  0.8877  0.7816  0.6107  0.6420

 Free energy of the ion-electron system (eV)
  ---------------------------------------------------
  alpha Z        PSCENC =       797.72921103
  Ewald energy   TEWEN  =    -12875.86572171
  -Hartree energ DENC   =     -1180.74731847
  -exchange      EXHF   =         0.00000000
  -V(xc)+E(xc)   XCENC  =      -290.17001448
  PAW double counting   =     16962.65236892   -15950.38554629
  entropy T*S    EENTRO =        -0.00000000
  eigenvalues    EBANDS =      -799.88670549
  atomic energy  EATOM  =     13036.45147835
  Solvation  Ediel_sol  =         0.00000000
  ---------------------------------------------------
  free energy    TOTEN  =      -300.22224814 eV

  energy without entropy =     -300.22224814  energy(sigma->0) =     -300.22224814


--------------------------------------------------------------------------------------------------------




--------------------------------------- Iteration      1(  15)  ---------------------------------------


    POTLOK:  cpu time      0.1286: real time      0.1293
    SETDIJ:  cpu time      0.6023: real time      0.6045
     EDDAV:  cpu time      9.9332: real time      9.9923
       DOS:  cpu time      0.0008: real time      0.0008
    CHARGE:  cpu time      0.4237: real time      0.4252
    MIXING:  cpu time      0.0081: real time      0.0082
    --------------------------------------------
      LOOP:  cpu time     11.0967: real time     11.1602

 eigenvalue-minimisations  :  8624
 total energy-change (2. order) :-0.2961932E-05  (-0.1532597E-05)
 number of electron     360.0000000 magnetization       0.0019384
 augmentation part      -66.2802469 magnetization       0.0021484

 Broyden mixing:
  rms(total) = 0.79727E-03    rms(broyden)= 0.79727E-03
  rms(prec ) = 0.84263E-03
  weight for this iteration     100.00

 eigenvalues of (default mixing * dielectric matrix)
  average eigenvalue GAMMA=   1.2994
  3.0865  2.4355  1.6586  1.1125  0.9643  0.9643  0.8322  0.7022  0.6192  0.6192

 Free energy of the ion-electron system (eV)
  ---------------------------------------------------
  alpha Z        PSCENC =       797.72921103
  Ewald energy   TEWEN  =    -12875.86572171
  -Hartree energ DENC   =     -1180.73407796
  -exchange      EXHF   =         0.00000000
  -V(xc)+E(xc)   XCENC  =      -290.17045516
  PAW double counting   =     16962.19601993   -15949.92842493
  entropy T*S    EENTRO =        -0.00000000
  eigenvalues    EBANDS =      -799.90028066
  atomic energy  EATOM  =     13036.45147835
  Solvation  Ediel_sol  =         0.00000000
  ---------------------------------------------------
  free energy    TOTEN  =      -300.22225110 eV

  energy without entropy =     -300.22225110  energy(sigma->0) =     -300.22225110


--------------------------------------------------------------------------------------------------------




--------------------------------------- Iteration      1(  16)  ---------------------------------------


    POTLOK:  cpu time      0.1287: real time      0.1293
    SETDIJ:  cpu time      0.6014: real time      0.6031
     EDDAV:  cpu time      6.6218: real time      6.6563
       DOS:  cpu time      0.0011: real time      0.0011
    --------------------------------------------
      LOOP:  cpu time      7.3529: real time      7.3898

 eigenvalue-minimisations  :  4736
 total energy-change (2. order) :-0.5800377E-06  (-0.1471981E-06)
 number of electron     360.0000000 magnetization       0.0019384
 augmentation part      -66.2802469 magnetization       0.0021484

 Free energy of the ion-electron system (eV)
  ---------------------------------------------------
  alpha Z        PSCENC =       797.72921103
  Ewald energy   TEWEN  =    -12875.86572171
  -Hartree energ DENC   =     -1180.72647573
  -exchange      EXHF   =         0.00000000
  -V(xc)+E(xc)   XCENC  =      -290.17076531
  PAW double counting   =     16962.15612138   -15949.88823547
  entropy T*S    EENTRO =        -0.00000000
  eigenvalues    EBANDS =      -799.90786424
  atomic energy  EATOM  =     13036.45147835
  Solvation  Ediel_sol  =         0.00000000
  ---------------------------------------------------
  free energy    TOTEN  =      -300.22225168 eV

  energy without entropy =     -300.22225168  energy(sigma->0) =     -300.22225168


--------------------------------------------------------------------------------------------------------




 average (electrostatic) potential at core
  the test charge radii are     1.1631  1.0808
  (the norm of the test charge is              1.0000)
       1 -33.4798       2 -33.4860       3 -33.3108       4 -33.3503       5 -33.4922
       6 -33.5393       7 -33.3837       8 -33.4465       9 -33.6367      10 -33.4711
      11 -33.4052      12 -33.4055      13 -33.2800      14 -33.3984      15 -33.5380
      16 -33.2597      17 -33.5664      18 -33.3859      19 -33.5987      20 -33.3766
      21 -33.6592      22 -33.4757      23 -33.3785      24 -33.5359      25 -33.4857
      26 -33.3513      27 -33.6398      28 -33.3301      29 -33.5481      30 -33.6846
      31 -33.6804      32 -33.6444      33 -33.4858      34 -33.4290      35 -33.5892
      36 -33.6748      37 -54.8380      38 -54.9977      39 -54.9155      40 -54.7024
      41 -54.9760      42 -54.5874      43 -54.9406      44 -54.6234      45 -54.8312
      46 -54.9526      47 -54.8370      48 -54.7608      49 -54.6890      50 -54.8064
      51 -55.0566      52 -54.4933      53 -54.7029      54 -54.7006      55 -54.7645
      56 -54.9271      57 -54.7890      58 -54.8751      59 -54.9120      60 -54.8658
      61 -54.7884      62 -54.7361      63 -55.0025      64 -54.7045      65 -54.8961
      66 -54.8985      67 -54.8958      68 -54.9667      69 -54.9476      70 -54.7001
      71 -54.5837      72 -54.8873
 
 
 
 E-fermi :   3.4760     XC(G=0):  -9.3831     alpha+bet : -8.8302

 Fermi energy:         3.4759821776

 spin component 1

 k-point     1 :       0.0000    0.0000    0.0000
  band No.  band energies     occupation 
      1     -10.8843      1.00000
      2     -10.5578      1.00000
      3     -10.4221      1.00000
      4     -10.3134      1.00000
      5     -10.2998      1.00000
      6     -10.2417      1.00000
      7     -10.1383      1.00000
      8     -10.0514      1.00000
      9      -9.9947      1.00000
     10      -9.9389      1.00000
     11      -9.8530      1.00000
     12      -9.8380      1.00000
     13      -9.7355      1.00000
     14      -9.7013      1.00000
     15      -9.6488      1.00000
     16      -9.6219      1.00000
     17      -9.5848      1.00000
     18      -9.5384      1.00000
     19      -9.5037      1.00000
     20      -9.4746      1.00000
     21      -9.4216      1.00000
     22      -9.3909      1.00000
     23      -9.3315      1.00000
     24      -9.3048      1.00000
     25      -9.2771      1.00000
     26      -9.2640      1.00000
     27      -9.2203      1.00000
     28      -9.1648      1.00000
     29      -9.1356      1.00000
     30      -9.1251      1.00000
     31      -9.1050      1.00000
     32      -9.0375      1.00000
     33      -8.9718      1.00000
     34      -8.9538      1.00000
     35      -8.8724      1.00000
     36      -8.8105      1.00000
     37      -5.4341      1.00000
     38      -5.3901      1.00000
     39      -5.2561      1.00000
     40      -5.2193      1.00000
     41      -5.0997      1.00000
     42      -5.0318      1.00000
     43      -5.0096      1.00000
     44      -4.8782      1.00000
     45      -4.7414      1.00000
     46      -4.6917      1.00000
     47      -4.5811      1.00000
     48      -4.5480      1.00000
     49      -4.4725      1.00000
     50      -4.4417      1.00000
     51      -4.4364      1.00000
     52      -4.3961      1.00000
     53      -4.3871      1.00000
     54      -4.3482      1.00000
     55      -4.3124      1.00000
     56      -4.2752      1.00000
     57      -4.2539      1.00000
     58      -4.2162      1.00000
     59      -4.1819      1.00000
     60      -4.1597      1.00000
     61      -4.1002      1.00000
     62      -4.0228      1.00000
     63      -3.9426      1.00000
     64      -3.8919      1.00000
     65      -3.8660      1.00000
     66      -3.7839      1.00000
     67      -3.6573      1.00000
     68      -3.6341      1.00000
     69      -3.5614      1.00000
     70      -3.4762      1.00000
     71      -2.5611      1.00000
     72      -2.4375      1.00000
     73      -1.8324      1.00000
     74      -1.5926      1.00000
     75      -1.5588      1.00000
     76      -1.5408      1.00000
     77      -1.4283      1.00000
     78      -1.4064      1.00000
     79      -1.3685      1.00000
     80      -1.3179      1.00000
     81      -1.2566      1.00000
     82      -1.2404      1.00000
     83      -1.1194      1.00000
     84      -1.0782      1.00000
     85      -1.0433      1.00000
     86      -0.8596      1.00000
     87      -0.7741      1.00000
     88      -0.7215      1.00000
     89      -0.6854      1.00000
     90      -0.6202      1.00000
     91      -0.5540      1.00000
     92      -0.5163      1.00000
     93      -0.4354      1.00000
     94      -0.3058      1.00000
     95      -0.1595      1.00000
     96      -0.0566      1.00000
     97      -0.0302      1.00000
     98      -0.0099      1.00000
     99       0.0636      1.00000
    100       0.1041      1.00000
    101       0.1330      1.00000
    102       0.1609      1.00000
    103       0.2171      1.00000
    104       0.2459      1.00000
    105       0.2863      1.00000
    106       0.3008      1.00000
    107       0.3497      1.00000
    108       0.3824      1.00000
    109       0.4222      1.00000
    110       0.4364      1.00000
    111       0.4763      1.00000
    112       0.5219      1.00000
    113       0.5503      1.00000
    114       0.6063      1.00000
    115       0.6128      1.00000
    116       0.6484      1.00000
    117       0.7083      1.00000
    118       0.7309      1.00000
    119       0.7921      1.00000
    120       0.8247      1.00000
    121       0.8373      1.00000
    122       0.8529      1.00000
    123       0.8871      1.00000
    124       0.9717      1.00000
    125       0.9815      1.00000
    126       0.9972      1.00000
    127       1.0840      1.00000
    128       1.0920      1.00000
    129       1.1216      1.00000
    130       1.1546      1.00000
    131       1.1796      1.00000
    132       1.2172      1.00000
    133       1.2619      1.00000
    134       1.3170      1.00000
    135       1.3287      1.00000
    136       1.4040      1.00000
    137       1.4382      1.00000
    138       1.4902      1.00000
    139       1.4942      1.00000
    140       1.5553      1.00000
    141       1.5982      1.00000
    142       1.6063      1.00000
    143       1.6555      1.00000
    144       1.7005      1.00000
    145       1.7614      1.00000
    146       1.8319      1.00000
    147       1.8357      1.00000
    148       1.8760      1.00000
    149       1.8868      1.00000
    150       1.9240      1.00000
    151       1.9429      1.00000
[...]
   -.379E+01 -.662E+00 -.275E+02   0.459E+01 0.204E+01 0.303E+02   -.603E+00 -.132E+01 -.270E+01   -.192E-03 0.153E-04 -.534E-04
   0.305E+01 0.459E+01 0.197E+02   -.277E+01 -.574E+01 -.218E+02   -.334E+00 0.164E+01 0.264E+01   0.773E-05 -.616E-04 0.130E-03
   0.451E+01 0.161E+02 0.269E+02   -.452E+01 -.172E+02 -.284E+02   0.327E-01 0.181E+01 0.187E+01   -.655E-04 0.526E-05 -.344E-03
   0.160E+02 -.100E+02 0.268E+02   -.173E+02 0.104E+02 -.286E+02   0.495E+00 -.359E+00 0.207E+01   0.379E-03 0.446E-04 -.143E-03
   -.318E+01 0.198E+02 0.308E+02   0.309E+01 -.213E+02 -.325E+02   -.272E+00 0.104E+01 0.165E+01   -.517E-04 0.199E-03 -.423E-03
   0.186E+02 -.243E+01 0.339E+02   -.198E+02 0.262E+01 -.359E+02   0.167E+01 -.584E+00 0.178E+01   -.127E-03 0.155E-03 -.291E-03
   0.405E+01 0.125E+02 0.196E+02   -.396E+01 -.136E+02 -.213E+02   -.421E+00 0.375E+00 0.219E+01   0.297E-03 0.249E-03 -.350E-03
   -.120E+02 0.852E+01 0.294E+02   0.123E+02 -.953E+01 -.312E+02   -.603E-01 0.152E+01 0.180E+01   0.809E-04 -.172E-03 -.325E-03
   -.699E+01 0.239E+02 0.195E+02   0.767E+01 -.253E+02 -.212E+02   -.296E+00 0.675E+00 0.170E+01   -.651E-03 0.327E-03 -.104E-03
   0.444E+01 -.926E+01 -.285E+02   -.428E+01 0.997E+01 0.303E+02   -.711E+00 -.957E+00 -.164E+01   -.360E-03 0.167E-03 0.204E-04
   0.183E+02 0.155E+02 -.197E+02   -.195E+02 -.160E+02 0.212E+02   0.918E+00 0.139E+00 -.142E+01   0.204E-03 -.486E-04 -.390E-05
   -.122E+02 -.108E+02 -.187E+02   0.121E+02 0.116E+02 0.201E+02   -.920E-01 -.111E+01 -.204E+01   -.141E-03 -.138E-03 -.268E-03
   -.191E+02 -.173E+02 -.327E+02   0.198E+02 0.185E+02 0.347E+02   -.137E+00 -.134E+01 -.160E+01   0.911E-04 0.162E-03 -.724E-04
   -.105E+02 -.158E+02 -.297E+02   0.110E+02 0.175E+02 0.315E+02   -.293E+00 -.172E+01 -.184E+01   0.764E-04 0.495E-05 0.348E-03
   0.196E+02 0.717E+01 -.264E+02   -.206E+02 -.698E+01 0.282E+02   0.765E+00 -.758E-01 -.185E+01   0.480E-03 -.329E-03 0.589E-05
   -.551E+01 -.215E+02 -.350E+02   0.566E+01 0.227E+02 0.370E+02   -.808E-01 -.565E+00 -.174E+01   -.192E-04 0.270E-03 0.977E-04
   -.218E+02 0.105E+02 0.250E+02   0.225E+02 -.110E+02 -.268E+02   -.321E+00 0.434E+00 0.191E+01   0.348E-03 -.258E-03 -.337E-03
   0.890E+01 -.308E+02 0.181E+02   -.926E+01 0.317E+02 -.196E+02   0.775E+00 -.279E+00 0.171E+01   -.930E-04 -.303E-03 0.123E-04
   -.293E+01 -.152E+02 0.249E+02   0.302E+01 0.160E+02 -.266E+02   0.327E+00 -.101E+01 0.171E+01   0.279E-03 -.239E-03 0.200E-03
   -.429E+01 -.165E+02 0.149E+02   0.428E+01 0.175E+02 -.164E+02   0.717E-01 -.107E+01 0.187E+01   -.977E-04 0.214E-04 0.319E-03
   0.119E+02 0.285E+01 0.297E+02   -.129E+02 -.256E+01 -.313E+02   0.112E+01 0.175E-01 0.163E+01   -.231E-04 0.250E-03 0.412E-04
   -.673E+00 0.130E+00 -.292E+02   0.849E+00 0.133E+01 0.306E+02   -.810E-01 -.154E+01 -.108E+01   -.327E-03 -.813E-04 0.349E-03
   0.121E+02 -.807E+00 -.238E+02   -.127E+02 0.344E+00 0.250E+02   0.219E+00 0.715E+00 -.154E+01   -.133E-03 0.165E-03 0.194E-03
   -.118E+01 0.702E+01 -.388E+02   0.702E+00 -.757E+01 0.406E+02   0.957E+00 0.972E+00 -.128E+01   -.322E-03 0.320E-03 0.102E-03
   0.100E+02 0.122E+02 -.287E+02   -.103E+02 -.130E+02 0.308E+02   0.200E+00 0.876E+00 -.159E+01   0.185E-03 -.406E-03 -.148E-03
   -.108E+02 0.778E+01 -.213E+02   0.109E+02 -.829E+01 0.231E+02   0.166E+00 0.621E+00 -.221E+01   0.102E-03 0.510E-04 -.245E-03
   0.196E+01 0.105E+02 -.277E+02   -.246E+01 -.115E+02 0.299E+02   0.269E+00 0.777E+00 -.154E+01   0.248E-03 -.253E-04 -.260E-03
   0.200E+01 -.700E+00 -.272E+02   -.222E+01 0.286E+00 0.287E+02   0.281E+00 0.759E+00 -.188E+01   0.941E-04 -.797E-04 -.240E-03
   0.978E+00 0.111E+02 -.259E+02   -.932E+00 -.121E+02 0.276E+02   0.301E+00 0.125E+01 -.160E+01   0.425E-04 0.309E-03 -.102E-03
   0.219E+02 0.304E+01 -.278E+02   -.229E+02 -.359E+01 0.298E+02   0.338E+00 0.278E+00 -.168E+01   0.187E-03 -.293E-04 -.524E-03
   0.521E+01 0.377E+01 -.157E+02   -.538E+01 -.411E+01 0.174E+02   0.253E+00 0.810E+00 -.180E+01   -.121E-03 -.267E-03 -.255E-03
   0.147E+02 0.158E+02 0.301E+02   -.156E+02 -.164E+02 -.319E+02   0.703E+00 0.225E+00 0.173E+01   -.738E-04 0.222E-03 -.731E-04
   -.262E+01 -.180E+02 0.209E+02   0.237E+01 0.192E+02 -.225E+02   0.215E+00 -.103E+01 0.170E+01   0.100E-03 -.304E-03 0.202E-03
   0.975E+01 0.190E+01 0.187E+02   -.102E+02 -.162E+01 -.205E+02   -.582E-01 -.176E+00 0.189E+01   0.197E-03 0.163E-03 0.492E-03
   0.854E+01 -.120E+02 0.388E+02   -.906E+01 0.129E+02 -.411E+02   0.338E+00 -.125E+01 0.125E+01   -.126E-03 -.340E-03 0.182E-03
   0.162E+02 0.447E+01 0.211E+02   -.172E+02 -.472E+01 -.228E+02   0.137E+01 -.393E-01 0.191E+01   -.135E-03 0.121E-03 0.411E-03
   0.353E+01 -.103E+02 0.411E+02   -.432E+01 0.113E+02 -.425E+02   0.585E+00 -.704E+00 0.721E+00   0.234E-03 -.964E-04 -.140E-04
   0.211E+02 -.166E+02 -.297E+02   -.219E+02 0.172E+02 0.312E+02   0.614E+00 -.297E+00 -.179E+01   -.830E-04 -.247E-03 0.552E-03
 -----------------------------------------------------------------------------------------------
   0.133E+02 0.474E+00 -.873E+00   -.107E-12 0.142E-13 -.234E-12   -.133E+02 -.474E+00 0.874E+00   -.114E-04 0.251E-05 -.111E-02
 
 
 POSITION                                       TOTAL-FORCE (eV/Angst)
 -----------------------------------------------------------------------------------
      0.77985      0.58912      1.39966         0.110981      0.187174      0.027565
      3.08355     11.11938      4.20071        -0.122544      0.163282     -0.152856
      7.10110      2.89175      4.00767         0.107873     -0.607787      0.270780
      7.21529      6.88349      3.98304        -0.230951     -0.277288      0.984968
      7.10694     11.01492      4.02698         0.021782      0.233199     -0.158597
     11.21491      2.80737      4.06061        -0.176526     -0.230554     -0.128533
     11.26093      6.84580      4.36130        -0.099278      0.052705     -0.142803
     11.15413     10.65699      3.99399        -0.198494      0.438401     -0.148060
      0.77940      1.89313      6.78059        -0.295316     -0.285316      0.602297
      0.79446      6.32346      7.01631        -0.441867      0.130709     -0.225414
      1.19213     10.41621      7.12471        -0.543271     -0.363012     -0.574702
      4.62313      2.22856      7.20481         0.619681     -0.575684     -0.274517
      5.12070      5.87237      7.11174         0.260851      0.888909     -0.760400
      4.89944     10.27039      6.94521         0.632946     -0.135826      0.321875
      9.30200      1.84464      6.80449        -0.254296     -0.407168     -0.014656
      9.35706      5.89561      6.97781        -0.176001      1.157006     -0.244752
      2.96585      6.83506      4.08044        -0.159948     -0.004823      0.118764
      2.54462      2.62175      4.11014         0.712612     -0.180065     -0.317381
      8.90032     10.44714      6.98146        -0.391469     -0.298412      0.047541
     11.08767      8.23197      9.62946         0.216398     -0.069323     -0.416145
     11.24213     12.37814      9.63088        -0.063060     -0.405808     -0.398601
      0.58233      4.68770      1.49637         0.081881     -0.205198      0.270509
      0.85402      8.82814      1.49018        -0.427600      0.080919     -0.379904
      4.90876      0.62473      1.36132        -0.089848      0.118415      0.244048
      5.11089      4.80329      1.58306        -0.215789      0.101883     -0.208983
      8.87697      0.37698      1.45610         0.422427     -0.301756     -0.070148
      8.87121      4.57021      1.21801         0.401817      0.451058      0.094966
      4.60718      8.80974      1.49310         0.541962     -0.147872     -0.318991
      2.79815      4.04534      9.63103        -0.071135     -0.080145     -0.034406
      2.68020      8.13382      9.76617         0.163888     -0.242840     -0.133767
      2.89564     12.46631      9.66203         0.000847     -0.166682     -0.179527
      7.13534      3.86394      9.47289        -0.101888      0.009718     -0.012489
      6.83703      8.19467      9.71234         0.144416      0.184532     -0.420063
      7.12845     12.28605      9.41806        -0.268376     -0.095230      0.272705
     11.04443      3.89952      9.57528         0.195254      0.055091      0.086468
      9.14335      8.80252      1.27201        -0.049984      0.493874      0.542307
     11.29354     12.46493      7.01157         0.022555      0.656177      0.278583
      3.14970      4.27786      7.03983        -0.752405     -0.003885      0.350035
      3.03312      8.57802      7.24044        -0.367589     -0.404495     -0.090676
      7.09859      0.27586      6.96458         0.456908     -0.395918     -0.131715
      7.27968      4.37008      6.93441        -0.328290     -0.713769      0.488237
      6.93703      8.49556      7.14157         0.265874      0.513348      0.000720
     11.34030      4.39409      7.06439         0.389338     -0.726612      0.019337
      9.42378      0.21459      3.92283        -0.552673     -0.248970      0.201144
      1.09764      0.40750      3.92548        -0.285272     -0.400888      0.145729
      0.90439      4.54965      4.10645        -0.221170     -0.230244     -0.558114
      0.75834      8.58958      3.95458         0.574874     -0.217401      0.465469
      5.07041      0.26236      3.91076         0.172705     -0.009694     -0.040374
      5.19015      4.54625      4.05595        -0.228531      0.115455     -0.048249
      5.08477      8.42532      3.94722         0.060890      0.594412      0.320797
      2.78871      0.24601      7.04940         0.434323     -0.016862      0.183054
     11.32995      8.26305      7.06792         0.413834      0.616022      0.259255
     11.21064     10.61391      1.45306         0.418440     -0.194956      0.083530
      2.95118      2.39794      1.49581         0.063127     -0.023807      0.360911
     11.29649      2.30052      1.54472         0.184862      0.311119      0.038533
      9.16986      4.45473      3.73751         0.094920     -0.085638      0.298718
      0.94832      2.17519      9.44599        -0.293264      0.252218     -0.348429
      0.80445      6.25189      9.48102         0.475267      0.421502      0.558575
      0.97458     10.63872      9.56677        -0.090576      0.064871      0.477784
      4.97088      2.25946      9.71722         0.236905      0.108071     -0.404382
      5.02168      6.42281      9.52133        -0.231403     -0.212122      0.729342
      5.06806     10.57580      9.51919         0.057033      0.345055     -0.293883
      9.12998      2.08520      9.35198         0.346558      0.295960      0.106267
      9.36804      6.40803      9.47421        -0.678177     -0.272366      0.323723
      9.27462     10.43779      9.50424         0.077109      0.466672     -0.130529
      3.10049      6.58564      1.57091        -0.197224     -0.369663     -0.118608
      2.84765     10.61152      1.66202        -0.035706      0.169568      0.114008
      7.17789      2.30809      1.45177        -0.514146      0.110120      0.104331
      7.24443      6.62032      1.57639        -0.182019     -0.411828     -1.034126
      7.13588     10.73438      1.48558         0.309701     -0.288950      0.213263
     11.23238      6.37224      1.85879        -0.202534      0.260197     -0.722699
      9.34256      8.58721      3.97513        -0.152218      0.261217     -0.368657
 -----------------------------------------------------------------------------------
    total drift:                               -0.001092     -0.000066      0.000190


--------------------------------------------------------------------------------------------------------



  FREE ENERGIE OF THE ION-ELECTRON SYSTEM (eV)
  ---------------------------------------------------
  free  energy   TOTEN  =      -300.22225168 eV

  energy  without entropy=     -300.22225168  energy(sigma->0) =     -300.22225168
 


--------------------------------------------------------------------------------------------------------


    POTLOK:  cpu time      0.7305: real time      0.7335


--------------------------------------------------------------------------------------------------------


     LOOP+:  cpu time    181.4117: real time    182.3798
    4ORBIT:  cpu time      0.0000: real time      0.0000



 total charge

# of ion       s       p       d       tot
------------------------------------------
    1        1.321   0.757   0.054   2.132
    2        1.317   0.763   0.054   2.135
    3        1.324   0.784   0.058   2.165
    4        1.329   0.785   0.064   2.177
    5        1.329   0.728   0.048   2.104
    6        1.326   0.746   0.053   2.125
    7        1.313   0.785   0.065   2.163
    8        1.334   0.736   0.056   2.126
    9        1.323   0.738   0.052   2.113
   10        1.323   0.768   0.060   2.151
   11        1.325   0.774   0.060   2.159
   12        1.326   0.785   0.059   2.170
   13        1.321   0.815   0.064   2.200
   14        1.314   0.774   0.057   2.145
   15        1.328   0.734   0.052   2.114
   16        1.312   0.820   0.067   2.199
   17        1.331   0.739   0.054   2.124
   18        1.320   0.776   0.056   2.152
   19        1.336   0.705   0.046   2.087
   20        1.313   0.777   0.058   2.149
   21        1.337   0.704   0.048   2.089
   22        1.327   0.750   0.053   2.129
   23        1.319   0.772   0.057   2.149
   24        1.331   0.730   0.051   2.112
   25        1.330   0.749   0.054   2.132
   26        1.322   0.771   0.058   2.150
   27        1.327   0.739   0.055   2.121
   28        1.313   0.804   0.061   2.178
   29        1.341   0.717   0.053   2.111
   30        1.330   0.721   0.049   2.100
   31        1.335   0.713   0.053   2.101
   32        1.327   0.741   0.050   2.118
   33        1.327   0.738   0.052   2.117
   34        1.324   0.757   0.054   2.135
   35        1.335   0.727   0.050   2.113
   36        1.339   0.691   0.049   2.078
   37        1.480   2.270   0.028   3.777
   38        1.482   2.314   0.039   3.835
   39        1.474   2.317   0.034   3.826
   40        1.481   2.274   0.028   3.784
   41        1.480   2.295   0.034   3.808
   42        1.476   2.279   0.026   3.780
   43        1.476   2.319   0.036   3.831
   44        1.477   2.286   0.028   3.790
   45        1.475   2.302   0.031   3.808
   46        1.482   2.292   0.035   3.808
   47        1.477   2.307   0.033   3.817
   48        1.477   2.294   0.029   3.800
   49        1.477   2.310   0.032   3.819
   50        1.475   2.309   0.032   3.816
   51        1.477   2.298   0.036   3.811
   52        1.477   2.279   0.027   3.783
   53        1.477   2.289   0.029   3.795
   54        1.477   2.275   0.027   3.779
   55        1.476   2.290   0.029   3.795
   56        1.477   2.311   0.035   3.823
   57        1.476   2.280   0.027   3.783
   58        1.478   2.298   0.032   3.808
   59        1.477   2.308   0.034   3.818
   60        1.482   2.280   0.032   3.794
   61        1.473   2.317   0.032   3.822
   62        1.479   2.275   0.027   3.781
   63        1.478   2.299   0.034   3.811
   64        1.474   2.307   0.030   3.811
   65        1.478   2.281   0.031   3.790
   66        1.477   2.300   0.034   3.811
   67        1.476   2.310   0.033   3.819
   68        1.477   2.299   0.033   3.808
   69        1.476   2.322   0.037   3.835
   70        1.479   2.275   0.027   3.781
   71        1.473   2.319   0.030   3.822
   72        1.475   2.294   0.032   3.801
--------------------------------------------------
tot        100.905 109.785   3.114 213.804



 magnetization (x)

# of ion       s       p       d       tot
------------------------------------------
    1       -0.000   0.000   0.000   0.000
    2       -0.000   0.000  -0.000  -0.000
    3       -0.000   0.000   0.000   0.000
    4       -0.000   0.000  -0.000  -0.000
    5       -0.000  -0.000  -0.000  -0.000
    6       -0.000   0.000   0.000   0.000
    7       -0.000   0.000  -0.000   0.000
    8       -0.000  -0.000  -0.000  -0.000
    9       -0.000   0.000   0.000   0.000
   10       -0.000   0.000   0.000   0.000
   11       -0.000   0.000  -0.000  -0.000
   12       -0.000   0.000   0.000   0.000
   13       -0.000   0.000   0.000   0.000
   14       -0.000   0.000  -0.000   0.000
   15       -0.000   0.000   0.000   0.000
   16       -0.000   0.000  -0.000  -0.000
   17       -0.000   0.000  -0.000   0.000
   18       -0.000   0.000   0.000   0.000
   19       -0.000  -0.000  -0.000  -0.000
   20       -0.000   0.000  -0.000  -0.000
   21       -0.000   0.000   0.000   0.000
   22       -0.000   0.000   0.000   0.000
   23       -0.000   0.000  -0.000   0.000
   24       -0.000   0.000   0.000   0.000
   25       -0.000   0.000   0.000   0.000
   26       -0.000   0.000   0.000   0.000
   27       -0.000   0.000   0.000   0.000
   28       -0.000   0.000  -0.000   0.000
   29       -0.000   0.000   0.000   0.000
   30       -0.000   0.000   0.000   0.000
   31       -0.000   0.000   0.000   0.000
   32       -0.000   0.000   0.000   0.000
   33       -0.000   0.000  -0.000   0.000
   34       -0.000   0.000   0.000   0.000
   35       -0.000   0.000   0.000   0.000
   36       -0.000   0.000  -0.000  -0.000
   37       -0.000  -0.000   0.000  -0.000
   38       -0.000  -0.000   0.000  -0.000
   39       -0.000  -0.000   0.000  -0.000
   40       -0.000  -0.000   0.000  -0.000
   41       -0.000  -0.000   0.000  -0.000
   42       -0.000  -0.000  -0.000  -0.000
   43       -0.000  -0.000   0.000  -0.000
   44       -0.000  -0.000  -0.000  -0.000
   45       -0.000  -0.000   0.000  -0.000
   46       -0.000  -0.000   0.000  -0.000
   47       -0.000  -0.000  -0.000  -0.000
   48       -0.000  -0.000   0.000  -0.000
   49       -0.000  -0.000   0.000  -0.000
   50       -0.000  -0.000  -0.000  -0.000
   51       -0.000  -0.000   0.000  -0.000
   52       -0.000  -0.000  -0.000  -0.000
   53       -0.000  -0.000  -0.000  -0.000
   54       -0.000  -0.000   0.000  -0.000
   55       -0.000  -0.000   0.000  -0.000
   56       -0.000  -0.000   0.000  -0.000
   57       -0.000  -0.000   0.000  -0.000
   58       -0.000  -0.000   0.000  -0.000
   59       -0.000  -0.000   0.000  -0.000
   60       -0.000  -0.000   0.000  -0.000
   61       -0.000  -0.000   0.000  -0.000
   62       -0.000  -0.000   0.000  -0.000
   63       -0.000  -0.000   0.000  -0.000
   64       -0.000  -0.000  -0.000  -0.000
   65       -0.000  -0.000  -0.000  -0.000
   66       -0.000  -0.000   0.000  -0.000
   67       -0.000  -0.000   0.000  -0.000
   68       -0.000  -0.000   0.000  -0.000
   69       -0.000  -0.000   0.000  -0.000
   70       -0.000  -0.000  -0.000  -0.000
   71       -0.000  -0.000   0.000  -0.000
   72       -0.000  -0.000  -0.000  -0.000
--------------------------------------------------
tot         -0.000  -0.000   0.000  -0.000
 

 total amount of memory used by VASP MPI-rank0   110684. kBytes
=======================================================================

   base      :      30000. kBytes
   nonl-proj :      16332. kBytes
   fftplans  :       6179. kBytes
   grid      :      15593. kBytes
   one-center:        146. kBytes
   wavefun   :      42434. kBytes
 
  
  
 General timing and accounting informations for this job:
 ========================================================
  
                  Total CPU time used (sec):      192.904
                            User time (sec):      187.149
                          System time (sec):        5.755
                         Elapsed time (sec):      195.781
  
                   Maximum memory used (kb):      316420.
                   Average memory used (kb):          N/A
  
                          Minor page faults:       107163
                          Major page faults:           43
                 Voluntary context switches:        10086
