 vasp.6.4.2 20Jul23 (build Oct 12 2023 10:31:02) complex                         
 executed on              LinuxNV date 2025.05.27  20:32:16
 running  128 mpi-ranks, with    1 threads/rank, on    2 nodes
 distrk:  each k-point on   64 cores,    2 groups
 distr:  one band on NCORE=   4 cores,   16 groups


--------------------------------------------------------------------------------------------------------


 INCAR:
   ENCUT = 360.000000
   SIGMA = 0.050000
   EDIFF = 1.00e-06
   ALGO = Normal
   GGA = PE
   PREC = Normal
   SYSTEM = ./
   ICHARG = 2
   ISMEAR = 0
   ISPIN = 1
   ISTART = 0
   ISYM = 0
   KPAR = 2
   LMAXMIX = 4
   NELM = 100
   NPAR = 16
   LASPH = .TRUE.
   LCHARG = .FALSE.
   LWAVE = .FALSE.

 POTCAR:    PAW_PBE Ge 05Jan2001                  
 POTCAR:    PAW_PBE Se 06Sep2000                  
 POTCAR:    PAW_PBE Ge 05Jan2001                  
   VRHFIN =Ge: s2p2                                                                                 
   LEXCH  = PE                                                                                      
   EATOM  =   104.9960 eV,    7.7170 Ry                                                             
                                                                                                    
   TITEL  = PAW_PBE Ge 05Jan2001                                                                    
   LULTRA =        F    use ultrasoft PP ?                                                          
   IUNSCR =        1    unscreen: 0-lin 1-nonlin 2-no                                               
   RPACOR =    2.170    partial core radius                                                         
   POMASS =   72.610; ZVAL   =    4.000    mass and valenz                                          
   RCORE  =    2.300    outmost cutoff radius                                                       
   RWIGS  =    2.300; RWIGS  =    1.217    wigner-seitz radius (au A)                               
   ENMAX  =  173.807; ENMIN  =  130.355 eV                                                          
   ICORE  =        3    local potential                                                             
   LCOR   =        T    correct aug charges                                                         
   LPAW   =        T    paw PP                                                                      
   EAUG   =  385.843                                                                                
   DEXC   =    0.000                                                                                
   RMAX   =    2.342    core radius for proj-oper                                                   
   RAUG   =    1.300    factor for augmentation sphere                                              
   RDEP   =    2.318    radius for radial grids                                                     
   RDEPT  =    2.103    core radius for aug-charge                                                  
                                                                                                    
   Atomic configuration                                                                             
   10 entries                                                                                       
     n  l   j            E        occ.                                                              
     1  0  0.50    -10959.8463   2.0000                                                             
     2  0  0.50     -1371.6056   2.0000                                                             
     2  1  1.50     -1198.4791   6.0000                                                             
     3  0  0.50      -168.4733   2.0000                                                             
     3  1  1.50      -115.6019   6.0000                                                             
     3  2  2.50       -29.3106  10.0000                                                             
     4  0  0.50       -11.7309   2.0000                                                             
     4  1  0.50        -3.8952   2.0000                                                             
     4  2  1.50        -4.0817   0.0000                                                             
     4  3  2.50        -4.0817   0.0000                                                             
   Description                                                                                      
     l       E           TYP  RCUT    TYP  RCUT                                                     
     0    -11.7309493     23  2.300                                                                 
     0     -7.4578696     23  2.300                                                                 
     1     -3.8952261     23  2.300                                                                 
     1      6.1178114     23  2.300                                                                 
     2     -4.0817478     23  2.300                                                                 
     3     -1.3605826      7  2.300                                                                 
  local pseudopotential read in
  partial core-charges read in
  partial kinetic energy density read in
  atomic valenz-charges read in
  non local Contribution for L=            0  read in
    real space projection operators read in
  non local Contribution for L=            0  read in
    real space projection operators read in
  non local Contribution for L=            1  read in
    real space projection operators read in
  non local Contribution for L=            1  read in
    real space projection operators read in
  non local Contribution for L=            2  read in
    real space projection operators read in
    PAW grid and wavefunctions read in
 
   number of l-projection  operators is LMAX  =            5
   number of lm-projection operators is LMMAX =           13
 
 POTCAR:    PAW_PBE Se 06Sep2000                  
   VRHFIN =Se: s2p4                                                                                 
   LEXCH  = PE                                                                                      
   EATOM  =   257.1286 eV,   18.8984 Ry                                                             
                                                                                                    
   TITEL  = PAW_PBE Se 06Sep2000                                                                    
   LULTRA =        F    use ultrasoft PP ?                                                          
   IUNSCR =        1    unscreen: 0-lin 1-nonlin 2-no                                               
   RPACOR =    1.900    partial core radius                                                         
   POMASS =   78.960; ZVAL   =    6.000    mass and valenz                                          
   RCORE  =    2.100    outmost cutoff radius                                                       
   RWIGS  =    2.200; RWIGS  =    1.164    wigner-seitz radius (au A)                               
   ENMAX  =  211.555; ENMIN  =  158.666 eV                                                          
   ICORE  =        3    local potential                                                             
   LCOR   =        T    correct aug charges                                                         
   LPAW   =        T    paw PP                                                                      
   EAUG   =  446.842                                                                                
   DEXC   =    0.000                                                                                
   RMAX   =    2.147    core radius for proj-oper                                                   
   RAUG   =    1.300    factor for augmentation sphere                                              
   RDEP   =    2.177    radius for radial grids                                                     
   RDEPT  =    1.928    core radius for aug-charge                                                  
                                                                                                    
   Atomic configuration                                                                             
   10 entries                                                                                       
     n  l   j            E        occ.                                                              
     1  0  0.50    -12503.4787   2.0000                                                             
     2  0  0.50     -1606.9547   2.0000                                                             
     2  1  1.50     -1413.3140   6.0000                                                             
     3  0  0.50      -213.4885   2.0000                                                             
     3  1  1.50      -152.9538   6.0000                                                             
     3  2  2.50       -53.1221  10.0000                                                             
     4  0  0.50       -17.2865   2.0000                                                             
     4  1  0.50        -6.5110   4.0000                                                             
     4  2  2.50        -6.8029   0.0000                                                             
     4  3  2.50        -6.8029   0.0000                                                             
   Description                                                                                      
     l       E           TYP  RCUT    TYP  RCUT                                                     
     0    -17.2865377     23  2.100                                                                 
     0    -15.3094411     23  2.100                                                                 
     1     -6.5110275     23  2.100                                                                 
     1     -0.0695192     23  2.100                                                                 
     2     -6.8029130     23  2.100                                                                 
     3     -1.3605826      7  2.100                                                                 
  local pseudopotential read in
  partial core-charges read in
  partial kinetic energy density read in
  atomic valenz-charges read in
  non local Contribution for L=            0  read in
    real space projection operators read in
  non local Contribution for L=            0  read in
    real space projection operators read in
  non local Contribution for L=            1  read in
    real space projection operators read in
  non local Contribution for L=            1  read in
    real space projection operators read in
  non local Contribution for L=            2  read in
    real space projection operators read in
    PAW grid and wavefunctions read in
 
   number of l-projection  operators is LMAX  =            5
   number of lm-projection operators is LMMAX =           13
 
  PAW_PBE Ge 05Jan2001                  :
 energy of atom  1       EATOM= -104.9960
 kinetic energy error for atom=    0.0005 (will be added to EATOM!!)
  PAW_PBE Se 06Sep2000                  :
 energy of atom  2       EATOM= -257.1286
 kinetic energy error for atom=    0.0030 (will be added to EATOM!!)
 
 
 POSCAR: Ge Se
  positions in cartesian coordinates
  No initial velocities read in
 exchange correlation table for  LEXCH =        8
   RHO(1)=    0.500       N(1)  =     2000
   RHO(2)=  100.500       N(2)  =     4000
 


--------------------------------------------------------------------------------------------------------


 ion  position               nearest neighbor table
   1  0.250  0.117  0.123-   6 2.56   6 2.56   5 2.61
   2  0.750  0.617  0.377-   5 2.56   5 2.56   6 2.61
   3  0.750  0.883  0.877-   8 2.56   8 2.56   7 2.61
   4  0.250  0.383  0.623-   7 2.56   7 2.56   8 2.61
   5  0.250  0.981  0.350-   2 2.56   2 2.56   1 2.61
   6  0.750  0.481  0.150-   1 2.56   1 2.56   2 2.61
   7  0.750  0.019  0.650-   4 2.56   4 2.56   3 2.61
   8  0.250  0.519  0.850-   3 2.56   3 2.56   4 2.61
 

IMPORTANT INFORMATION: All symmetrisations will be switched off!
NOSYMM: (Re-)initialisation of all symmetry stuff for point group C_1.


----------------------------------------------------------------------------------------

                                     Primitive cell                                     

  volume of cell :     197.8858

  direct lattice vectors                    reciprocal lattice vectors
     3.700000000  0.000000000  0.000000000     0.270270270  0.000000000  0.000000000
     0.000000000  4.800000000  0.000000000     0.000000000  0.208333333  0.000000000
     0.000000000  0.000000000 11.142221000     0.000000000  0.000000000  0.089748713

  length of vectors
     3.700000000  4.800000000 11.142221000     0.270270270  0.208333333  0.089748713

  position of ions in fractional coordinates (direct lattice)
     0.250000000  0.117184189  0.123034386
     0.750000000  0.617184189  0.376965614
     0.750000000  0.882815811  0.876965614
     0.250000000  0.382815811  0.623034386
     0.250000000  0.980526235  0.349804809
     0.750000000  0.480526235  0.150195191
     0.750000000  0.019473765  0.650195191
     0.250000000  0.519473765  0.849804809

  ion indices of the primitive-cell ions
   primitive index   ion index
                 1           1
                 2           2
                 3           3
                 4           4
                 5           5
                 6           6
                 7           7
                 8           8

----------------------------------------------------------------------------------------

 
 
 KPOINTS: KPOINTS created by Atomic Simulation Env

Automatic generation of k-mesh.
 Grid dimensions read from file:
 generate k-points for:    6    6    2

 Generating k-lattice:

  Cartesian coordinates                     Fractional coordinates (reciprocal lattice)
     0.045045045  0.000000000  0.000000000     0.166666667  0.000000000  0.000000000
     0.000000000  0.034722222  0.000000000     0.000000000  0.166666667  0.000000000
     0.000000000  0.000000000  0.044874357     0.000000000  0.000000000  0.500000000

  Length of vectors
     0.045045045  0.034722222  0.044874357

  Shift w.r.t. Gamma in fractional coordinates (k-lattice)
     0.000000000  0.000000000  0.000000000

 
 Subroutine IBZKPT returns following result:
 ===========================================
 
 Found     40 irreducible k-points:
 
 Following reciprocal coordinates:
            Coordinates               Weight
  0.000000  0.000000  0.000000      1.000000
  0.166667  0.000000  0.000000      2.000000
  0.333333  0.000000  0.000000      2.000000
  0.500000  0.000000  0.000000      1.000000
  0.000000  0.166667  0.000000      2.000000
  0.166667  0.166667  0.000000      2.000000
  0.166667 -0.166667  0.000000      2.000000
  0.333333  0.166667  0.000000      2.000000
  0.333333 -0.166667  0.000000      2.000000
  0.500000  0.166667  0.000000      2.000000
  0.000000  0.333333  0.000000      2.000000
  0.166667  0.333333  0.000000      2.000000
  0.166667 -0.333333  0.000000      2.000000
  0.333333  0.333333  0.000000      2.000000
  0.333333 -0.333333  0.000000      2.000000
  0.500000  0.333333  0.000000      2.000000
  0.000000  0.500000  0.000000      1.000000
  0.166667  0.500000  0.000000      2.000000
  0.333333  0.500000  0.000000      2.000000
  0.500000  0.500000  0.000000      1.000000
  0.000000  0.000000  0.500000      1.000000
  0.166667  0.000000  0.500000      2.000000
  0.333333  0.000000  0.500000      2.000000
  0.500000  0.000000  0.500000      1.000000
  0.000000  0.166667  0.500000      2.000000
  0.166667  0.166667  0.500000      2.000000
  0.166667 -0.166667  0.500000      2.000000
  0.333333  0.166667  0.500000      2.000000
  0.333333 -0.166667  0.500000      2.000000
  0.500000  0.166667  0.500000      2.000000
  0.000000  0.333333  0.500000      2.000000
  0.166667  0.333333  0.500000      2.000000
  0.166667 -0.333333  0.500000      2.000000
  0.333333  0.333333  0.500000      2.000000
  0.333333 -0.333333  0.500000      2.000000
  0.500000  0.333333  0.500000      2.000000
  0.000000  0.500000  0.500000      1.000000
  0.166667  0.500000  0.500000      2.000000
  0.333333  0.500000  0.500000      2.000000
  0.500000  0.500000  0.500000      1.000000
 
 Following cartesian coordinates:
            Coordinates               Weight
  0.000000  0.000000  0.000000      1.000000
  0.045045  0.000000  0.000000      2.000000
  0.090090  0.000000  0.000000      2.000000
  0.135135  0.000000  0.000000      1.000000
  0.000000  0.034722  0.000000      2.000000
  0.045045  0.034722  0.000000      2.000000
  0.045045 -0.034722  0.000000      2.000000
  0.090090  0.034722  0.000000      2.000000
  0.090090 -0.034722  0.000000      2.000000
  0.135135  0.034722  0.000000      2.000000
  0.000000  0.069444  0.000000      2.000000
  0.045045  0.069444  0.000000      2.000000
  0.045045 -0.069444  0.000000      2.000000
  0.090090  0.069444  0.000000      2.000000
  0.090090 -0.069444  0.000000      2.000000
  0.135135  0.069444  0.000000      2.000000
  0.000000  0.104167  0.000000      1.000000
  0.045045  0.104167  0.000000      2.000000
  0.090090  0.104167  0.000000      2.000000
  0.135135  0.104167  0.000000      1.000000
  0.000000  0.000000  0.044874      1.000000
  0.045045  0.000000  0.044874      2.000000
  0.090090  0.000000  0.044874      2.000000
  0.135135  0.000000  0.044874      1.000000
  0.000000  0.034722  0.044874      2.000000
  0.045045  0.034722  0.044874      2.000000
  0.045045 -0.034722  0.044874      2.000000
  0.090090  0.034722  0.044874      2.000000
  0.090090 -0.034722  0.044874      2.000000
  0.135135  0.034722  0.044874      2.000000
  0.000000  0.069444  0.044874      2.000000
  0.045045  0.069444  0.044874      2.000000
  0.045045 -0.069444  0.044874      2.000000
  0.090090  0.069444  0.044874      2.000000
  0.090090 -0.069444  0.044874      2.000000
  0.135135  0.069444  0.044874      2.000000
  0.000000  0.104167  0.044874      1.000000
  0.045045  0.104167  0.044874      2.000000
  0.090090  0.104167  0.044874      2.000000
  0.135135  0.104167  0.044874      1.000000
 


--------------------------------------------------------------------------------------------------------




 Dimension of arrays:
   k-points           NKPTS =     40   k-points in BZ     NKDIM =     40   number of bands    NBANDS=     32
   number of dos      NEDOS =    301   number of ions     NIONS =      8
   non local maximal  LDIM  =      5   non local SUM 2l+1 LMDIM =     13
   total plane-waves  NPLWV =  23328
   max r-space proj   IRMAX =      1   max aug-charges    IRDMAX=   6606
   dimension x,y,z NGX =    18 NGY =   24 NGZ =   54
   dimension x,y,z NGXF=    36 NGYF=   48 NGZF=  108
   support grid    NGXF=    36 NGYF=   48 NGZF=  108
   ions per type =               4   4
   NGX,Y,Z   is equivalent  to a cutoff of   8.09,  8.31,  8.06 a.u.
   NGXF,Y,Z  is equivalent  to a cutoff of  16.18, 16.62, 16.11 a.u.

 SYSTEM =  ./                                      
 POSCAR =  Ge Se                                   

 Startparameter for this run:
   NWRITE =      2    write-flag & timer
   PREC   = normal    normal or accurate (medium, high low for compatibility)
   ISTART =      0    job   : 0-new  1-cont  2-samecut
   ICHARG =      2    charge: 1-file 2-atom 10-const
   ISPIN  =      1    spin polarized calculation?
   LNONCOLLINEAR =      F non collinear calculations
   LSORBIT =      F    spin-orbit coupling
   INIWAV =      1    electr: 0-lowe 1-rand  2-diag
   LASPH  =      T    aspherical Exc in radial PAW
 Electronic Relaxation 1
   ENCUT  =  360.0 eV  26.46 Ry    5.14 a.u.   5.72  7.43 17.24*2*pi/ulx,y,z
   ENINI  =  360.0     initial cutoff
   ENAUG  =  446.8 eV  augmentation charge cutoff
   NELM   =    100;   NELMIN=  2; NELMDL= -5     # of ELM steps 
   EDIFF  = 0.1E-05   stopping-criterion for ELM
   LREAL  =      F    real-space projection
   NLSPLINE    = F    spline interpolate recip. space projectors
   LCOMPAT=      F    compatible to vasp.4.4
   GGA_COMPAT  = T    GGA compatible to vasp.4.4-vasp.4.6
   LMAXPAW     = -100 max onsite density
   LMAXMIX     =    4 max onsite mixed and CHGCAR
   VOSKOWN=      0    Vosko Wilk Nusair interpolation
   ROPT   =    0.00000   0.00000
 Ionic relaxation
   EDIFFG = 0.1E-04   stopping-criterion for IOM
   NSW    =      0    number of steps for IOM
   NBLOCK =      1;   KBLOCK =      1    inner block; outer block 
   IBRION =     -1    ionic relax: 0-MD 1-quasi-New 2-CG
   NFREE  =      0    steps in history (QN), initial steepest desc. (CG)
   ISIF   =      2    stress and relaxation
   IWAVPR =     10    prediction:  0-non 1-charg 2-wave 3-comb
   ISYM   =      0    0-nonsym 1-usesym 2-fastsym
   LCORR  =      T    Harris-Foulkes like correction to forces

   POTIM  = 0.5000    time-step for ionic-motion
   TEIN   =    0.0    initial temperature
   TEBEG  =    0.0;   TEEND  =   0.0 temperature during run
   SMASS  =  -3.00    Nose mass-parameter (am)
   estimated Nose-frequenzy (Omega)   =  0.10E-29 period in steps = 0.13E+47 mass=  -0.313E-27a.u.
   SCALEE = 1.0000    scale energy and forces
   NPACO  =    256;   APACO  = 10.0  distance and # of slots for P.C.
   PSTRESS=    0.0 pullay stress

  Mass of Ions in am
   POMASS =  72.61 78.96
  Ionic Valenz
   ZVAL   =   4.00  6.00
  Atomic Wigner-Seitz radii
   RWIGS  =  -1.00 -1.00
  virtual crystal weights 
   VCA    =   1.00  1.00
   NELECT =      40.0000    total number of electrons
   NUPDOWN=      -1.0000    fix difference up-down

 DOS related values:
   EMIN   =  10.00;   EMAX   =-10.00  energy-range for DOS
   EFERMI =   0.00;   METHOD = LEGACY      
   ISMEAR =     0;   SIGMA  =   0.05  broadening in eV -4-tet -1-fermi 0-gaus

 Electronic relaxation 2 (details)
   IALGO  =     38    algorithm
   LDIAG  =      T    sub-space diagonalisation (order eigenvalues)
   LSUBROT=      F    optimize rotation matrix (better conditioning)
   TURBO    =      0    0=normal 1=particle mesh
   IRESTART =      0    0=no restart 2=restart with 2 vectors
   NREBOOT  =      0    no. of reboots
   NMIN     =      0    reboot dimension
   EREF     =   0.00    reference energy to select bands
   IMIX   =      4    mixing-type and parameters
     AMIX     =   0.40;   BMIX     =  1.00
     AMIX_MAG =   1.60;   BMIX_MAG =  1.00
     AMIN     =   0.10
     WC   =   100.;   INIMIX=   1;  MIXPRE=   1;  MAXMIX= -45

 Intra band minimization:
   WEIMIN = 0.0000     energy-eigenvalue tresh-hold
   EBREAK =  0.78E-08  absolut break condition
   DEPER  =   0.30     relativ break condition  

   TIME   =   0.40     timestep for ELM

  volume/ion in A,a.u.               =      24.74       166.92
  Fermi-wavevector in a.u.,A,eV,Ry     =   0.960778  1.815608 12.559473  0.923095
  Thomas-Fermi vector in A             =   2.090093
 
 Write flags
   LWAVE        =      F    write WAVECAR
   LDOWNSAMPLE  =      F    k-point downsampling of WAVECAR
   LCHARG       =      F    write CHGCAR
   LVTOT        =      F    write LOCPOT, total local potential
   LVHAR        =      F    write LOCPOT, Hartree potential only
   LELF         =      F    write electronic localiz. function (ELF)
   LORBIT       =      0    0 simple, 1 ext, 2 COOP (PROOUT), +10 PAW based schemes


 Dipole corrections
   LMONO  =      F    monopole corrections only (constant potential shift)
   LDIPOL =      F    correct potential (dipole corrections)
   IDIPOL =      0    1-x, 2-y, 3-z, 4-all directions 
   EPSILON=  1.0000000 bulk dielectric constant

 Exchange correlation treatment:
   GGA     =    PE    GGA type
   LEXCH   =     8    internal setting for exchange type
   LIBXC   =     F    Libxc                    
   VOSKOWN =     0    Vosko Wilk Nusair interpolation
   LHFCALC =     F    Hartree Fock is set to
   LHFONE  =     F    Hartree Fock one center treatment
   AEXX    =    0.0000 exact exchange contribution

 Linear response parameters
   LEPSILON=     F    determine dielectric tensor
   LRPA    =     F    only Hartree local field effects (RPA)
   LNABLA  =     F    use nabla operator in PAW spheres
   LVEL    =     F    velocity operator in full k-point grid
   CSHIFT  =0.1000    complex shift for real part using Kramers Kronig
   OMEGAMAX=  -1.0    maximum frequency
   DEG_THRESHOLD= 0.2000000E-02 threshold for treating states as degnerate
   RTIME   =   -0.100 relaxation time in fs
  (WPLASMAI=    0.000 imaginary part of plasma frequency in eV, 0.658/RTIME)
   DFIELD  = 0.0000000 0.0000000 0.0000000 field for delta impulse in time
 
  Optional k-point grid parameters
   LKPOINTS_OPT  =     F    use optional k-point grid
   KPOINTS_OPT_MODE=     1    mode for optional k-point grid
 
 Orbital magnetization related:
   ORBITALMAG=     F  switch on orbital magnetization
   LCHIMAG   =     F  perturbation theory with respect to B field
   DQ        =  0.001000  dq finite difference perturbation B field
   LLRAUG    =     F  two centre corrections for induced B field
   LBONE     =     F  B-component reconstruction in AE one-centre
   LVGVCALC  =     T  calculate vGv susceptibility
   LVGVAPPL  =     F  apply vGv susceptibility instead of pGv for G=0

 Random number generation:
   RANDOM_GENERATOR = DEFAULT
   PCG_SEED         = not used


--------------------------------------------------------------------------------------------------------


 Static calculation
 charge density and potential will be updated during run
 non-spin polarized calculation
 Variant of blocked Davidson
 Davidson routine will perform the subspace rotation
 perform sub-space diagonalisation
    after iterative eigenvector-optimisation
 modified Broyden-mixing scheme, WC =      100.0
 initial mixing is a Kerker type mixing with AMIX =  0.4000 and BMIX =      1.0000
 Hartree-type preconditioning will be used
 using additional bands            12
 reciprocal scheme for non local part
 use partial core corrections
 calculate Harris-corrections to forces 
   (improved forces if not selfconsistent)
 use gradient corrections 
 use of overlap-Matrix (Vanderbilt PP)
 Gauss-broadening in eV      SIGMA  =   0.05


--------------------------------------------------------------------------------------------------------


  energy-cutoff  :      360.00
  volume of cell :      197.89
      direct lattice vectors                 reciprocal lattice vectors
     3.700000000  0.000000000  0.000000000     0.270270270  0.000000000  0.000000000
     0.000000000  4.800000000  0.000000000     0.000000000  0.208333333  0.000000000
     0.000000000  0.000000000 11.142221000     0.000000000  0.000000000  0.089748713

  length of vectors
     3.700000000  4.800000000 11.142221000     0.270270270  0.208333333  0.089748713


 
 k-points in units of 2pi/SCALE and weight: KPOINTS created by Atomic Simulation Env
   0.00000000  0.00000000  0.00000000       0.014
   0.04504505  0.00000000  0.00000000       0.028
   0.09009009  0.00000000  0.00000000       0.028
   0.13513514  0.00000000  0.00000000       0.014
   0.00000000  0.03472222  0.00000000       0.028
   0.04504505  0.03472222  0.00000000       0.028
   0.04504505 -0.03472222  0.00000000       0.028
   0.09009009  0.03472222  0.00000000       0.028
   0.09009009 -0.03472222  0.00000000       0.028
   0.13513514  0.03472222  0.00000000       0.028
   0.00000000  0.06944444  0.00000000       0.028
   0.04504505  0.06944444  0.00000000       0.028
   0.04504505 -0.06944444  0.00000000       0.028
   0.09009009  0.06944444  0.00000000       0.028
   0.09009009 -0.06944444  0.00000000       0.028
   0.13513514  0.06944444  0.00000000       0.028
   0.00000000  0.10416667  0.00000000       0.014
   0.04504505  0.10416667  0.00000000       0.028
   0.09009009  0.10416667  0.00000000       0.028
   0.13513514  0.10416667  0.00000000       0.014
   0.00000000  0.00000000  0.04487436       0.014
   0.04504505  0.00000000  0.04487436       0.028
   0.09009009  0.00000000  0.04487436       0.028
   0.13513514  0.00000000  0.04487436       0.014
   0.00000000  0.03472222  0.04487436       0.028
   0.04504505  0.03472222  0.04487436       0.028
   0.04504505 -0.03472222  0.04487436       0.028
   0.09009009  0.03472222  0.04487436       0.028
   0.09009009 -0.03472222  0.04487436       0.028
   0.13513514  0.03472222  0.04487436       0.028
   0.00000000  0.06944444  0.04487436       0.028
   0.04504505  0.06944444  0.04487436       0.028
   0.04504505 -0.06944444  0.04487436       0.028
   0.09009009  0.06944444  0.04487436       0.028
   0.09009009 -0.06944444  0.04487436       0.028
   0.13513514  0.06944444  0.04487436       0.028
   0.00000000  0.10416667  0.04487436       0.014
   0.04504505  0.10416667  0.04487436       0.028
   0.09009009  0.10416667  0.04487436       0.028
   0.13513514  0.10416667  0.04487436       0.014
 
 k-points in reciprocal lattice and weights: KPOINTS created by Atomic Simulation Env
   0.00000000  0.00000000  0.00000000       0.014
   0.16666667  0.00000000  0.00000000       0.028
   0.33333333  0.00000000  0.00000000       0.028
   0.50000000  0.00000000  0.00000000       0.014
   0.00000000  0.16666667  0.00000000       0.028
   0.16666667  0.16666667  0.00000000       0.028
   0.16666667 -0.16666667  0.00000000       0.028
   0.33333333  0.16666667  0.00000000       0.028
   0.33333333 -0.16666667  0.00000000       0.028
   0.50000000  0.16666667  0.00000000       0.028
   0.00000000  0.33333333  0.00000000       0.028
   0.16666667  0.33333333  0.00000000       0.028
   0.16666667 -0.33333333  0.00000000       0.028
   0.33333333  0.33333333  0.00000000       0.028
   0.33333333 -0.33333333  0.00000000       0.028
   0.50000000  0.33333333  0.00000000       0.028
   0.00000000  0.50000000  0.00000000       0.014
   0.16666667  0.50000000  0.00000000       0.028
   0.33333333  0.50000000  0.00000000       0.028
   0.50000000  0.50000000  0.00000000       0.014
   0.00000000  0.00000000  0.50000000       0.014
   0.16666667  0.00000000  0.50000000       0.028
   0.33333333  0.00000000  0.50000000       0.028
   0.50000000  0.00000000  0.50000000       0.014
   0.00000000  0.16666667  0.50000000       0.028
   0.16666667  0.16666667  0.50000000       0.028
   0.16666667 -0.16666667  0.50000000       0.028
   0.33333333  0.16666667  0.50000000       0.028
   0.33333333 -0.16666667  0.50000000       0.028
   0.50000000  0.16666667  0.50000000       0.028
   0.00000000  0.33333333  0.50000000       0.028
   0.16666667  0.33333333  0.50000000       0.028
   0.16666667 -0.33333333  0.50000000       0.028
   0.33333333  0.33333333  0.50000000       0.028
   0.33333333 -0.33333333  0.50000000       0.028
   0.50000000  0.33333333  0.50000000       0.028
   0.00000000  0.50000000  0.50000000       0.014
   0.16666667  0.50000000  0.50000000       0.028
   0.33333333  0.50000000  0.50000000       0.028
   0.50000000  0.50000000  0.50000000       0.014
 
 position of ions in fractional coordinates (direct lattice) 
   0.25000000  0.11718419  0.12303439
   0.75000000  0.61718419  0.37696561
   0.75000000  0.88281581  0.87696561
   0.25000000  0.38281581  0.62303439
   0.25000000  0.98052624  0.34980481
   0.75000000  0.48052624  0.15019519
   0.75000000  0.01947376  0.65019519
   0.25000000  0.51947376  0.84980481
 
 position of ions in cartesian coordinates  (Angst):
   0.92500000  0.56248411  1.37087632
   2.77500000  2.96248411  4.20023418
   2.77500000  4.23751589  9.77134468
   0.92500000  1.83751589  6.94198682
   0.92500000  4.70652593  3.89760249
   2.77500000  2.30652593  1.67350801
   2.77500000  0.09347407  7.24461851
   0.92500000  2.49347407  9.46871299
 


--------------------------------------------------------------------------------------------------------


 k-point   1 :   0.0000 0.0000 0.0000  plane waves:    3083
 k-point   2 :   0.1667 0.0000 0.0000  plane waves:    3067
 k-point   3 :   0.3333 0.0000 0.0000  plane waves:    3078
 k-point   4 :   0.5000 0.0000 0.0000  plane waves:    3076
 k-point   5 :   0.0000 0.1667 0.0000  plane waves:    3097
 k-point   6 :   0.1667 0.1667 0.0000  plane waves:    3077
 k-point   7 :   0.1667-0.1667 0.0000  plane waves:    3077
 k-point   8 :   0.3333 0.1667 0.0000  plane waves:    3074
 k-point   9 :   0.3333-0.1667 0.0000  plane waves:    3074
 k-point  10 :   0.5000 0.1667 0.0000  plane waves:    3058
 k-point  11 :   0.0000 0.3333 0.0000  plane waves:    3043
 k-point  12 :   0.1667 0.3333 0.0000  plane waves:    3064
 k-point  13 :   0.1667-0.3333 0.0000  plane waves:    3064
 k-point  14 :   0.3333 0.3333 0.0000  plane waves:    3059
 k-point  15 :   0.3333-0.3333 0.0000  plane waves:    3059
 k-point  16 :   0.5000 0.3333 0.0000  plane waves:    3080
 k-point  17 :   0.0000 0.5000 0.0000  plane waves:    3058
 k-point  18 :   0.1667 0.5000 0.0000  plane waves:    3050
 k-point  19 :   0.3333 0.5000 0.0000  plane waves:    3078
 k-point  20 :   0.5000 0.5000 0.0000  plane waves:    3080
 k-point  21 :   0.0000 0.0000 0.5000  plane waves:    3066
 k-point  22 :   0.1667 0.0000 0.5000  plane waves:    3086
 k-point  23 :   0.3333 0.0000 0.5000  plane waves:    3072
 k-point  24 :   0.5000 0.0000 0.5000  plane waves:    3080
 k-point  25 :   0.0000 0.1667 0.5000  plane waves:    3082
 k-point  26 :   0.1667 0.1667 0.5000  plane waves:    3076
 k-point  27 :   0.1667-0.1667 0.5000  plane waves:    3076
 k-point  28 :   0.3333 0.1667 0.5000  plane waves:    3062
 k-point  29 :   0.3333-0.1667 0.5000  plane waves:    3062
 k-point  30 :   0.5000 0.1667 0.5000  plane waves:    3076
 k-point  31 :   0.0000 0.3333 0.5000  plane waves:    3064
 k-point  32 :   0.1667 0.3333 0.5000  plane waves:    3064
 k-point  33 :   0.1667-0.3333 0.5000  plane waves:    3064
 k-point  34 :   0.3333 0.3333 0.5000  plane waves:    3062
 k-point  35 :   0.3333-0.3333 0.5000  plane waves:    3062
 k-point  36 :   0.5000 0.3333 0.5000  plane waves:    3072
 k-point  37 :   0.0000 0.5000 0.5000  plane waves:    3052
 k-point  38 :   0.1667 0.5000 0.5000  plane waves:    3068
 k-point  39 :   0.3333 0.5000 0.5000  plane waves:    3052
 k-point  40 :   0.5000 0.5000 0.5000  plane waves:    3080

 maximum and minimum number of plane-waves per node :       793      742

 maximum number of plane-waves:      3097
 maximum index in each direction: 
   IXMAX=    5   IYMAX=    7   IZMAX=   17
   IXMIN=   -6   IYMIN=   -7   IZMIN=  -17


 parallel 3D FFT for wavefunctions:
    minimum data exchange during FFTs selected (reduces bandwidth)
 parallel 3D FFT for charge:
    minimum data exchange during FFTs selected (reduces bandwidth)


 total amount of memory used by VASP MPI-rank0    38761. kBytes
=======================================================================

   base      :      30000. kBytes
   nonl-proj :       6758. kBytes
   fftplans  :        368. kBytes
   grid      :        555. kBytes
   one-center:         16. kBytes
   wavefun   :       1064. kBytes
 
     INWAV:  cpu time      0.0000: real time      0.0001
 Broyden mixing: mesh for mixing (old mesh)
   NGX = 11   NGY = 15   NGZ = 35
  (NGX  = 36   NGY  = 48   NGZ  =108)
  gives a total of   5775 points

 initial charge density was supplied:
 charge density of overlapping atoms calculated
 number of electron      40.0000000 magnetization 
 keeping initial charge density in first step


--------------------------------------------------------------------------------------------------------


 Maximum index for augmentation-charges           153 (set IRDMAX)


--------------------------------------------------------------------------------------------------------


 First call to EWALD:  gamma=   0.304
 Maximum number of real-space cells 4x 3x 2
 Maximum number of reciprocal cells 2x 2x 5

    FEWALD:  cpu time      0.0022: real time      0.0022


--------------------------------------- Ionic step        1  -------------------------------------------




--------------------------------------- Iteration      1(   1)  ---------------------------------------


    POTLOK:  cpu time      0.0090: real time      0.0094
    SETDIJ:  cpu time      0.1443: real time      0.1448
     EDDAV:  cpu time      0.2591: real time      0.2622
       DOS:  cpu time      0.0017: real time      0.0017
    --------------------------------------------
      LOOP:  cpu time      0.4142: real time      0.4182

 eigenvalue-minimisations  :  2560
 total energy-change (2. order) : 0.1305638E+03  (-0.1284551E+04)
 number of electron      40.0000000 magnetization 
 augmentation part       40.0000000 magnetization 

 Free energy of the ion-electron system (eV)
  ---------------------------------------------------
  alpha Z        PSCENC =        85.62737493
  Ewald energy   TEWEN  =     -1399.50197644
  -Hartree energ DENC   =      -137.75358650
  -exchange      EXHF   =         0.00000000
  -V(xc)+E(xc)   XCENC  =       -33.54747416
  PAW double counting   =      1193.78262552    -1080.73714043
  entropy T*S    EENTRO =        -0.00277003
  eigenvalues    EBANDS =        54.21218636
  atomic energy  EATOM  =      1448.48460880
  Solvation  Ediel_sol  =         0.00000000
  ---------------------------------------------------
  free energy    TOTEN  =       130.56384804 eV

  energy without entropy =      130.56661807  energy(sigma->0) =      130.56523305


--------------------------------------------------------------------------------------------------------




--------------------------------------- Iteration      1(   2)  ---------------------------------------


     EDDAV:  cpu time      0.3380: real time      0.3413
       DOS:  cpu time      0.0005: real time      0.0005
    --------------------------------------------
      LOOP:  cpu time      0.3386: real time      0.3418

 eigenvalue-minimisations  :  3792
 total energy-change (2. order) :-0.1561338E+03  (-0.1510581E+03)
 number of electron      40.0000000 magnetization 
 augmentation part       40.0000000 magnetization 

 Free energy of the ion-electron system (eV)
  ---------------------------------------------------
  alpha Z        PSCENC =        85.62737493
  Ewald energy   TEWEN  =     -1399.50197644
  -Hartree energ DENC   =      -137.75358650
  -exchange      EXHF   =         0.00000000
  -V(xc)+E(xc)   XCENC  =       -33.54747416
  PAW double counting   =      1193.78262552    -1080.73714043
  entropy T*S    EENTRO =        -0.00000000
  eigenvalues    EBANDS =      -101.92440026
  atomic energy  EATOM  =      1448.48460880
  Solvation  Ediel_sol  =         0.00000000
  ---------------------------------------------------
  free energy    TOTEN  =       -25.56996855 eV

  energy without entropy =      -25.56996855  energy(sigma->0) =      -25.56996855


--------------------------------------------------------------------------------------------------------




--------------------------------------- Iteration      1(   3)  ---------------------------------------


     EDDAV:  cpu time      0.3021: real time      0.3053
       DOS:  cpu time      0.0005: real time      0.0005
    --------------------------------------------
      LOOP:  cpu time      0.3027: real time      0.3058

 eigenvalue-minimisations  :  3200
 total energy-change (2. order) :-0.8505326E+01  (-0.8489020E+01)
 number of electron      40.0000000 magnetization 
 augmentation part       40.0000000 magnetization 

 Free energy of the ion-electron system (eV)
  ---------------------------------------------------
  alpha Z        PSCENC =        85.62737493
  Ewald energy   TEWEN  =     -1399.50197644
  -Hartree energ DENC   =      -137.75358650
  -exchange      EXHF   =         0.00000000
  -V(xc)+E(xc)   XCENC  =       -33.54747416
  PAW double counting   =      1193.78262552    -1080.73714043
  entropy T*S    EENTRO =        -0.00000000
  eigenvalues    EBANDS =      -110.42972576
  atomic energy  EATOM  =      1448.48460880
  Solvation  Ediel_sol  =         0.00000000
  ---------------------------------------------------
  free energy    TOTEN  =       -34.07529405 eV

  energy without entropy =      -34.07529405  energy(sigma->0) =      -34.07529405


--------------------------------------------------------------------------------------------------------




--------------------------------------- Iteration      1(   4)  ---------------------------------------


     EDDAV:  cpu time      0.3026: real time      0.3060
       DOS:  cpu time      0.0006: real time      0.0007
    --------------------------------------------
      LOOP:  cpu time      0.3032: real time      0.3066

 eigenvalue-minimisations  :  3296
 total energy-change (2. order) :-0.5707348E-01  (-0.5706798E-01)
 number of electron      40.0000000 magnetization 
 augmentation part       40.0000000 magnetization 

 Free energy of the ion-electron system (eV)
  ---------------------------------------------------
  alpha Z        PSCENC =        85.62737493
  Ewald energy   TEWEN  =     -1399.50197644
  -Hartree energ DENC   =      -137.75358650
  -exchange      EXHF   =         0.00000000
  -V(xc)+E(xc)   XCENC  =       -33.54747416
  PAW double counting   =      1193.78262552    -1080.73714043
  entropy T*S    EENTRO =        -0.00000000
  eigenvalues    EBANDS =      -110.48679924
  atomic energy  EATOM  =      1448.48460880
  Solvation  Ediel_sol  =         0.00000000
  ---------------------------------------------------
  free energy    TOTEN  =       -34.13236753 eV

  energy without entropy =      -34.13236753  energy(sigma->0) =      -34.13236753


--------------------------------------------------------------------------------------------------------




--------------------------------------- Iteration      1(   5)  ---------------------------------------


     EDDAV:  cpu time      0.3048: real time      0.3117
       DOS:  cpu time      0.0006: real time      0.0006
    CHARGE:  cpu time      0.0047: real time      0.0048
    MIXING:  cpu time      0.0007: real time      0.0007
    --------------------------------------------
      LOOP:  cpu time      0.3109: real time      0.3177

 eigenvalue-minimisations  :  3168
 total energy-change (2. order) :-0.3591140E-03  (-0.3591041E-03)
 number of electron      40.0000009 magnetization 
 augmentation part       -7.3970545 magnetization 

 Broyden mixing:
  rms(total) = 0.66038E+00    rms(broyden)= 0.66037E+00
  rms(prec ) = 0.74298E+00
  weight for this iteration     100.00

 Free energy of the ion-electron system (eV)
  ---------------------------------------------------
  alpha Z        PSCENC =        85.62737493
  Ewald energy   TEWEN  =     -1399.50197644
  -Hartree energ DENC   =      -137.75358650
  -exchange      EXHF   =         0.00000000
  -V(xc)+E(xc)   XCENC  =       -33.54747416
  PAW double counting   =      1193.78262552    -1080.73714043
  entropy T*S    EENTRO =        -0.00000000
  eigenvalues    EBANDS =      -110.48715836
  atomic energy  EATOM  =      1448.48460880
  Solvation  Ediel_sol  =         0.00000000
  ---------------------------------------------------
  free energy    TOTEN  =       -34.13272665 eV

  energy without entropy =      -34.13272665  energy(sigma->0) =      -34.13272665


--------------------------------------------------------------------------------------------------------




--------------------------------------- Iteration      1(   6)  ---------------------------------------


    POTLOK:  cpu time      0.0056: real time      0.0058
    SETDIJ:  cpu time      0.1374: real time      0.1384
     EDDAV:  cpu time      0.3165: real time      0.3194
       DOS:  cpu time      0.0006: real time      0.0006
    CHARGE:  cpu time      0.0047: real time      0.0047
    MIXING:  cpu time      0.0006: real time      0.0006
    --------------------------------------------
      LOOP:  cpu time      0.4654: real time      0.4694

 eigenvalue-minimisations  :  3056
 total energy-change (2. order) : 0.3714023E+00  (-0.7488395E-01)
 number of electron      40.0000008 magnetization 
 augmentation part       -7.3399787 magnetization 

 Broyden mixing:
  rms(total) = 0.41678E+00    rms(broyden)= 0.41678E+00
  rms(prec ) = 0.43982E+00
  weight for this iteration     100.00

 eigenvalues of (default mixing * dielectric matrix)
  average eigenvalue GAMMA=   2.2342
  2.2342

 Free energy of the ion-electron system (eV)
  ---------------------------------------------------
  alpha Z        PSCENC =        85.62737493
  Ewald energy   TEWEN  =     -1399.50197644
  -Hartree energ DENC   =      -143.78129461
  -exchange      EXHF   =         0.00000000
  -V(xc)+E(xc)   XCENC  =       -32.92216421
  PAW double counting   =      1464.60907747    -1351.89707560
  entropy T*S    EENTRO =        -0.00000000
  eigenvalues    EBANDS =      -104.37987466
  atomic energy  EATOM  =      1448.48460880
  Solvation  Ediel_sol  =         0.00000000
  ---------------------------------------------------
  free energy    TOTEN  =       -33.76132433 eV

  energy without entropy =      -33.76132433  energy(sigma->0) =      -33.76132433


--------------------------------------------------------------------------------------------------------




--------------------------------------- Iteration      1(   7)  ---------------------------------------


    POTLOK:  cpu time      0.0055: real time      0.0060
    SETDIJ:  cpu time      0.1376: real time      0.1382
     EDDAV:  cpu time      0.2770: real time      0.2797
       DOS:  cpu time      0.0006: real time      0.0006
    CHARGE:  cpu time      0.0044: real time      0.0044
    MIXING:  cpu time      0.0005: real time      0.0005
    --------------------------------------------
      LOOP:  cpu time      0.4256: real time      0.4294

 eigenvalue-minimisations  :  2880
 total energy-change (2. order) : 0.1622335E-01  (-0.2321437E-01)
 number of electron      40.0000008 magnetization 
 augmentation part       -7.3241434 magnetization 

 Broyden mixing:
  rms(total) = 0.12737E+00    rms(broyden)= 0.12737E+00
  rms(prec ) = 0.13636E+00
  weight for this iteration     100.00

 eigenvalues of (default mixing * dielectric matrix)
  average eigenvalue GAMMA=   1.7853
  1.1800  2.3906

 Free energy of the ion-electron system (eV)
  ---------------------------------------------------
  alpha Z        PSCENC =        85.62737493
  Ewald energy   TEWEN  =     -1399.50197644
  -Hartree energ DENC   =      -146.69016469
  -exchange      EXHF   =         0.00000000
  -V(xc)+E(xc)   XCENC  =       -32.40462498
  PAW double counting   =      1807.72581505    -1695.27358529
  entropy T*S    EENTRO =        -0.00000000
  eigenvalues    EBANDS =      -101.71254836
  atomic energy  EATOM  =      1448.48460880
  Solvation  Ediel_sol  =         0.00000000
  ---------------------------------------------------
  free energy    TOTEN  =       -33.74510098 eV

  energy without entropy =      -33.74510098  energy(sigma->0) =      -33.74510098


--------------------------------------------------------------------------------------------------------




--------------------------------------- Iteration      1(   8)  ---------------------------------------


    POTLOK:  cpu time      0.0054: real time      0.0057
    SETDIJ:  cpu time      0.1376: real time      0.1382
     EDDAV:  cpu time      0.2799: real time      0.2825
       DOS:  cpu time      0.0006: real time      0.0006
    CHARGE:  cpu time      0.0044: real time      0.0044
    MIXING:  cpu time      0.0006: real time      0.0006
    --------------------------------------------
      LOOP:  cpu time      0.4284: real time      0.4319

 eigenvalue-minimisations  :  2944
 total energy-change (2. order) : 0.1508531E-02  (-0.2148907E-02)
 number of electron      40.0000008 magnetization 
 augmentation part       -7.3315261 magnetization 

 Broyden mixing:
  rms(total) = 0.19065E-01    rms(broyden)= 0.19065E-01
  rms(prec ) = 0.22945E-01
  weight for this iteration     100.00

 eigenvalues of (default mixing * dielectric matrix)
  average eigenvalue GAMMA=   1.6996
  2.5150  1.2920  1.2920

 Free energy of the ion-electron system (eV)
  ---------------------------------------------------
  alpha Z        PSCENC =        85.62737493
  Ewald energy   TEWEN  =     -1399.50197644
  -Hartree energ DENC   =      -146.89058389
  -exchange      EXHF   =         0.00000000
  -V(xc)+E(xc)   XCENC  =       -32.25291718
  PAW double counting   =      1946.24055766    -1833.85222240
  entropy T*S    EENTRO =        -0.00000000
  eigenvalues    EBANDS =      -101.59843393
  atomic energy  EATOM  =      1448.48460880
  Solvation  Ediel_sol  =         0.00000000
  ---------------------------------------------------
  free energy    TOTEN  =       -33.74359245 eV

  energy without entropy =      -33.74359245  energy(sigma->0) =      -33.74359245


--------------------------------------------------------------------------------------------------------




--------------------------------------- Iteration      1(   9)  ---------------------------------------


    POTLOK:  cpu time      0.0054: real time      0.0056
    SETDIJ:  cpu time      0.1373: real time      0.1382
     EDDAV:  cpu time      0.2977: real time      0.3004
       DOS:  cpu time      0.0006: real time      0.0006
    CHARGE:  cpu time      0.0044: real time      0.0044
    MIXING:  cpu time      0.0006: real time      0.0006
    --------------------------------------------
      LOOP:  cpu time      0.4460: real time      0.4499

 eigenvalue-minimisations  :  3088
 total energy-change (2. order) :-0.3262435E-03  (-0.3774506E-03)
 number of electron      40.0000008 magnetization 
 augmentation part       -7.3297941 magnetization 

 Broyden mixing:
  rms(total) = 0.67301E-02    rms(broyden)= 0.67301E-02
  rms(prec ) = 0.74692E-02
  weight for this iteration     100.00

 eigenvalues of (default mixing * dielectric matrix)
  average eigenvalue GAMMA=   1.7140
  2.2579  2.2579  1.1701  1.1701

 Free energy of the ion-electron system (eV)
  ---------------------------------------------------
  alpha Z        PSCENC =        85.62737493
  Ewald energy   TEWEN  =     -1399.50197644
  -Hartree energ DENC   =      -147.23835764
  -exchange      EXHF   =         0.00000000
  -V(xc)+E(xc)   XCENC  =       -32.21126146
  PAW double counting   =      1961.75290796    -1849.37406015
  entropy T*S    EENTRO =        -0.00000000
  eigenvalues    EBANDS =      -101.28315467
  atomic energy  EATOM  =      1448.48460880
  Solvation  Ediel_sol  =         0.00000000
  ---------------------------------------------------
  free energy    TOTEN  =       -33.74391869 eV

  energy without entropy =      -33.74391869  energy(sigma->0) =      -33.74391869


--------------------------------------------------------------------------------------------------------




--------------------------------------- Iteration      1(  10)  ---------------------------------------


    POTLOK:  cpu time      0.0053: real time      0.0055
    SETDIJ:  cpu time      0.1379: real time      0.1383
     EDDAV:  cpu time      0.2689: real time      0.2702
       DOS:  cpu time      0.0003: real time      0.0003
    CHARGE:  cpu time      0.0039: real time      0.0039
    MIXING:  cpu time      0.0003: real time      0.0003
    --------------------------------------------
      LOOP:  cpu time      0.4167: real time      0.4186

 eigenvalue-minimisations  :  3104
 total energy-change (2. order) :-0.9948808E-04  (-0.2699179E-04)
 number of electron      40.0000008 magnetization 
 augmentation part       -7.3297698 magnetization 

 Broyden mixing:
  rms(total) = 0.24306E-02    rms(broyden)= 0.24306E-02
  rms(prec ) = 0.29968E-02
  weight for this iteration     100.00

 eigenvalues of (default mixing * dielectric matrix)
  average eigenvalue GAMMA=   1.7383
  2.6366  2.4064  1.1499  1.2492  1.2492

 Free energy of the ion-electron system (eV)
  ---------------------------------------------------
  alpha Z        PSCENC =        85.62737493
  Ewald energy   TEWEN  =     -1399.50197644
  -Hartree energ DENC   =      -147.26506905
  -exchange      EXHF   =         0.00000000
  -V(xc)+E(xc)   XCENC  =       -32.20840174
  PAW double counting   =      1955.37263340    -1842.98863706
  entropy T*S    EENTRO =        -0.00000000
  eigenvalues    EBANDS =      -101.26455101
  atomic energy  EATOM  =      1448.48460880
  Solvation  Ediel_sol  =         0.00000000
  ---------------------------------------------------
  free energy    TOTEN  =       -33.74401818 eV

  energy without entropy =      -33.74401818  energy(sigma->0) =      -33.74401818


--------------------------------------------------------------------------------------------------------




--------------------------------------- Iteration      1(  11)  ---------------------------------------


    POTLOK:  cpu time      0.0038: real time      0.0039
    SETDIJ:  cpu time      0.1372: real time      0.1375
     EDDAV:  cpu time      0.1798: real time      0.1808
       DOS:  cpu time      0.0003: real time      0.0003
    CHARGE:  cpu time      0.0034: real time      0.0034
    MIXING:  cpu time      0.0004: real time      0.0003
    --------------------------------------------
      LOOP:  cpu time      0.3248: real time      0.3264

 eigenvalue-minimisations  :  2864
 total energy-change (2. order) :-0.3089428E-04  (-0.4120338E-05)
 number of electron      40.0000008 magnetization 
 augmentation part       -7.3299852 magnetization 

 Broyden mixing:
  rms(total) = 0.12385E-02    rms(broyden)= 0.12385E-02
  rms(prec ) = 0.13660E-02
  weight for this iteration     100.00

 eigenvalues of (default mixing * dielectric matrix)
  average eigenvalue GAMMA=   1.7120
  2.3239  2.3239  2.3248  1.1899  1.1899  0.9195

 Free energy of the ion-electron system (eV)
  ---------------------------------------------------
  alpha Z        PSCENC =        85.62737493
  Ewald energy   TEWEN  =     -1399.50197644
  -Hartree energ DENC   =      -147.29184195
  -exchange      EXHF   =         0.00000000
  -V(xc)+E(xc)   XCENC  =       -32.20158689
  PAW double counting   =      1956.75058269    -1844.36687505
  entropy T*S    EENTRO =        -0.00000000
  eigenvalues    EBANDS =      -101.24433515
  atomic energy  EATOM  =      1448.48460880
  Solvation  Ediel_sol  =         0.00000000
  ---------------------------------------------------
  free energy    TOTEN  =       -33.74404907 eV

  energy without entropy =      -33.74404907  energy(sigma->0) =      -33.74404907


--------------------------------------------------------------------------------------------------------




--------------------------------------- Iteration      1(  12)  ---------------------------------------


    POTLOK:  cpu time      0.0038: real time      0.0040
    SETDIJ:  cpu time      0.1155: real time      0.1158
     EDDAV:  cpu time      0.2041: real time      0.2050
       DOS:  cpu time      0.0003: real time      0.0003
    --------------------------------------------
      LOOP:  cpu time      0.3237: real time      0.3251

 eigenvalue-minimisations  :  3344
 total energy-change (2. order) :-0.9422902E-06  (-0.5722197E-06)
 number of electron      40.0000008 magnetization 
 augmentation part       -7.3299852 magnetization 

 Free energy of the ion-electron system (eV)
  ---------------------------------------------------
  alpha Z        PSCENC =        85.62737493
  Ewald energy   TEWEN  =     -1399.50197644
  -Hartree energ DENC   =      -147.30625618
  -exchange      EXHF   =         0.00000000
  -V(xc)+E(xc)   XCENC  =       -32.20055010
  PAW double counting   =      1955.95423140    -1843.57033606
  entropy T*S    EENTRO =        -0.00000000
  eigenvalues    EBANDS =      -101.23114636
  atomic energy  EATOM  =      1448.48460880
  Solvation  Ediel_sol  =         0.00000000
  ---------------------------------------------------
  free energy    TOTEN  =       -33.74405001 eV

  energy without entropy =      -33.74405001  energy(sigma->0) =      -33.74405001


--------------------------------------------------------------------------------------------------------




 average (electrostatic) potential at core
  the test charge radii are     1.1631  1.0808
  (the norm of the test charge is              1.0000)
       1 -33.6243       2 -33.6243       3 -33.6243       4 -33.6243       5 -55.1467
       6 -55.1467       7 -55.1467       8 -55.1467
 
 
 
 E-fermi :   3.5105     XC(G=0):  -9.1776     alpha+bet : -8.5304

 Fermi energy:         3.5104974169

 k-point     1 :       0.0000    0.0000    0.0000
  band No.  band energies     occupation 
      1     -11.1611      2.00000
      2     -10.8771      2.00000
      3      -9.9450      2.00000
      4      -9.5284      2.00000
      5      -5.1035      2.00000
      6      -4.5920      2.00000
      7      -3.0506      2.00000
      8      -2.4450      2.00000
      9      -1.9153      2.00000
     10      -0.7811      2.00000
     11      -0.6630      2.00000
     12      -0.2363      2.00000
     13       0.4748      2.00000
     14       0.7999      2.00000
     15       1.1213      2.00000
     16       1.5981      2.00000
     17       2.0521      2.00000
     18       2.0684      2.00000
     19       2.2431      2.00000
     20       3.2870      2.00000
     21       3.9652      0.00000
     22       5.2240      0.00000
     23       5.8055      0.00000
     24       5.9297      0.00000
     25       6.0992      0.00000
     26       6.1948      0.00000
     27       6.6531      0.00000
     28       7.2442      0.00000
     29       8.0445      0.00000
     30       8.3212      0.00000
     31       8.5119      0.00000
     32       8.8948      0.00000

 k-point     2 :       0.1667    0.0000    0.0000
  band No.  band energies     occupation 
      1     -10.9512      2.00000
      2     -10.6810      2.00000
      3      -9.8026      2.00000
      4      -9.4332      2.00000
      5      -5.1792      2.00000
      6      -4.7131      2.00000
      7      -3.2054      2.00000
      8      -2.9333      2.00000
      9      -1.7141      2.00000
     10      -0.5494      2.00000
     11      -0.5025      2.00000
     12      -0.3826      2.00000
     13       0.0553      2.00000
     14       0.1271      2.00000
     15       1.1082      2.00000
     16       1.1777      2.00000
     17       1.3204      2.00000
     18       2.1430      2.00000
     19       2.4166      2.00000
     20       3.0645      2.00000
     21       4.1482      0.00000
     22       5.0689      0.00000
     23       5.5291      0.00000
     24       5.5991      0.00000
     25       6.5784      0.00000
     26       6.7392      0.00000
     27       6.7523      0.00000
     28       7.0012      0.00000
     29       7.3924      0.00000
     30       8.2029      0.00000
     31       8.2081      0.00000
     32       8.2176      0.00000

 k-point     3 :       0.3333    0.0000    0.0000
  band No.  band energies     occupation 
      1     -10.3801      2.00000
      2     -10.1649      2.00000
      3      -9.5352      2.00000
      4      -9.3396      2.00000
      5      -5.4053      2.00000
      6      -5.0074      2.00000
      7      -4.1682      2.00000
      8      -3.9168      2.00000
      9      -1.1177      2.00000
     10      -0.6999      2.00000
     11      -0.5325      2.00000
     12      -0.1022      2.00000
     13       0.1845      2.00000
     14       0.4310      2.00000
     15       0.5780      2.00000
     16       1.1400      2.00000
     17       1.2976      2.00000
     18       2.0949      2.00000
     19       2.0962      2.00000
     20       2.1368      2.00000
     21       3.9632      0.00000
     22       4.3980      0.00000
     23       4.4604      0.00000
     24       4.9969      0.00000
     25       5.3433      0.00000
     26       5.7677      0.00000
     27       6.0733      0.00000
     28       6.3192      0.00000
     29       6.9563      0.00000
     30       6.9647      0.00000
     31       7.7261      0.00000
     32       7.9397      0.00000

 k-point     4 :       0.5000    0.0000    0.0000
  band No.  band energies     occupation 
      1      -9.6859      2.00000
      2      -9.6859      2.00000
      3      -9.6214      2.00000
      4      -9.6214      2.00000
      5      -5.2149      2.00000
      6      -5.2149      2.00000
      7      -4.8000      2.00000
      8      -4.8000      2.00000
      9      -0.5315      2.00000
     10      -0.5315      2.00000
     11      -0.1573      2.00000
     12      -0.1573      2.00000
     13       0.5235      2.00000
     14       0.5235      2.00000
     15       0.9692      2.00000
     16       0.9692      2.00000
     17       1.2906      2.00000
     18       1.2906      2.00000
     19       1.7654      2.00000
     20       1.7654      2.00000
     21       3.9372      0.00000
     22       3.9372      0.00000
     23       4.3965      0.00000
     24       4.3965      0.00000
     25       5.2188      0.00000
     26       5.2188      0.00000
     27       5.5708      0.00000
     28       5.5708      0.00000
     29       6.7160      0.00000
     30       6.7160      0.00000
     31       7.2797      0.00000
     32       7.2797      0.00000

 k-point     5 :       0.0000    0.1667    0.0000
  band No.  band energies     occupation 
      1     -11.0627      2.00000
      2     -10.7855      2.00000
      3      -9.9806      2.00000
      4      -9.6058      2.00000
      5      -5.3321      2.00000
      6      -4.6234      2.00000
      7      -3.6698      2.00000
      8      -2.9147      2.00000
      9      -1.7101      2.00000
     10      -0.4067      2.00000
     11      -0.0383      2.00000
     12       0.2438      2.00000
     13       0.5867      2.00000
     14       0.8978      2.00000
     15       1.5852      2.00000
     16       1.5859      2.00000
     17       1.6009      2.00000
     18       2.0004      2.00000
     19       2.5423      2.00000
     20       3.0637      2.00000
     21       4.1494      0.00000
     22       5.1814      0.00000
     23       5.6981      0.00000
     24       5.7985      0.00000
     25       5.8988      0.00000
     26       6.3707      0.00000
     27       6.4494      0.00000
     28       7.0887      0.00000
     29       7.5762      0.00000
     30       7.7870      0.00000
     31       8.5182      0.00000
     32       8.5779      0.00000

 k-point     6 :       0.1667    0.1667    0.0000
  band No.  band energies     occupation 
      1     -10.8574      2.00000
      2     -10.5942      2.00000
      3      -9.8377      2.00000
      4      -9.5030      2.00000
      5      -5.3264      2.00000
      6      -4.6796      2.00000
      7      -3.7044      2.00000
      8      -3.1752      2.00000
      9      -1.5455      2.00000
     10      -0.8416      2.00000
     11      -0.4820      2.00000
     12      -0.1336      2.00000
     13       0.5956      2.00000
     14       0.6829      2.00000
     15       0.8344      2.00000
     16       1.0814      2.00000
     17       1.7058      2.00000
     18       1.7875      2.00000
     19       2.5557      2.00000
     20       2.9435      2.00000
     21       4.2964      0.00000
     22       5.0915      0.00000
     23       5.4803      0.00000
     24       5.6279      0.00000
     25       6.1063      0.00000
     26       6.4482      0.00000
     27       6.9468      0.00000
     28       7.2710      0.00000
     29       7.5740      0.00000
     30       7.5837      0.00000
     31       7.9982      0.00000
     32       8.7230      0.00000

 k-point     7 :       0.1667   -0.1667    0.0000
  band No.  band energies     occupation 
      1     -10.8574      2.00000
      2     -10.5942      2.00000
      3      -9.8377      2.00000
      4      -9.5030      2.00000
      5      -5.3264      2.00000
      6      -4.6796      2.00000
      7      -3.7044      2.00000
      8      -3.1752      2.00000
      9      -1.5455      2.00000
     10      -0.8416      2.00000
     11      -0.4820      2.00000
     12      -0.1336      2.00000
     13       0.5956      2.00000
     14       0.6829      2.00000
     15       0.8344      2.00000
     16       1.0814      2.00000
     17       1.7058      2.00000
     18       1.7875      2.00000
     19       2.5557      2.00000
     20       2.9435      2.00000
     21       4.2964      0.00000
     22       5.0915      0.00000
     23       5.4803      0.00000
     24       5.6279      0.00000
     25       6.1063      0.00000
     26       6.4482      0.00000
     27       6.9468      0.00000
     28       7.2710      0.00000
     29       7.5740      0.00000
     30       7.5837      0.00000
     31       7.9982      0.00000
     32       8.7230      0.00000

 k-point     8 :       0.3333    0.1667    0.0000
  band No.  band energies     occupation 
      1     -10.3043      2.00000
      2     -10.0976      2.00000
      3      -9.5592      2.00000
      4      -9.3746      2.00000
      5      -5.3827      2.00000
      6      -4.9147      2.00000
      7      -4.2304      2.00000
      8      -4.0344      2.00000
      9      -1.3000      2.00000
     10      -1.0216      2.00000
     11      -0.9559      2.00000
     12      -0.4228      2.00000
     13       0.3552      2.00000
     14       0.6426      2.00000
     15       0.7302      2.00000
     16       0.8908      2.00000
     17       1.1508      2.00000
     18       1.9495      2.00000
     19       2.0551      2.00000
     20       2.1350      2.00000
     21       4.0926      0.00000
     22       4.6478      0.00000
     23       4.7613      0.00000
     24       4.9799      0.00000
     25       5.8707      0.00000
     26       6.1159      0.00000
     27       6.6109      0.00000
     28       6.7470      0.00000
     29       7.1791      0.00000
     30       7.1841      0.00000
     31       8.1176      0.00000
     32       8.2583      0.00000

 k-point     9 :       0.3333   -0.1667    0.0000
  band No.  band energies     occupation 
      1     -10.3043      2.00000
      2     -10.0976      2.00000
      3      -9.5592      2.00000
      4      -9.3746      2.00000
      5      -5.3827      2.00000
      6      -4.9147      2.00000
      7      -4.2304      2.00000
      8      -4.0344      2.00000
      9      -1.3000      2.00000
     10      -1.0216      2.00000
     11      -0.9559      2.00000
     12      -0.4228      2.00000
     13       0.3552      2.00000
     14       0.6426      2.00000
     15       0.7302      2.00000
     16       0.8908      2.00000
     17       1.1508      2.00000
     18       1.9495      2.00000
     19       2.0551      2.00000
     20       2.1350      2.00000
     21       4.0926      0.00000
     22       4.6478      0.00000
     23       4.7613      0.00000
     24       4.9799      0.00000
     25       5.8707      0.00000
     26       6.1159      0.00000
     27       6.6109      0.00000
     28       6.7470      0.00000
     29       7.1791      0.00000
     30       7.1841      0.00000
     31       8.1176      0.00000
     32       8.2583      0.00000

 k-point    10 :       0.5000    0.1667    0.0000
  band No.  band energies     occupation 
      1      -9.6557      2.00000
      2      -9.6557      2.00000
      3      -9.5992      2.00000
      4      -9.5992      2.00000
      5      -5.1436      2.00000
      6      -5.1436      2.00000
      7      -4.7905      2.00000
      8      -4.7905      2.00000
      9      -0.8463      2.00000
     10      -0.8463      2.00000
     11      -0.4531      2.00000
     12      -0.4531      2.00000
     13       0.0531      2.00000
     14       0.0531      2.00000
     15       0.6563      2.00000
     16       0.6563      2.00000
     17       1.3000      2.00000
     18       1.3000      2.00000
     19       2.0463      2.00000
     20       2.0463      2.00000
     21       3.9448      0.00000
     22       3.9448      0.00000
     23       5.0383      0.00000
     24       5.0383      0.00000
     25       5.8737      0.00000
     26       5.8737      0.00000
     27       6.4189      0.00000
     28       6.4189      0.00000
     29       6.9949      0.00000
     30       6.9949      0.00000
     31       7.1753      0.00000
     32       7.1753      0.00000

 k-point    11 :       0.0000    0.3333    0.0000
  band No.  band energies     occupation 
      1     -10.7922      2.00000
      2     -10.5325      2.00000
      3     -10.1306      2.00000
      4      -9.8403      2.00000
      5      -5.5425      2.00000
      6      -4.6338      2.00000
      7      -4.6244      2.00000
      8      -3.6890      2.00000
      9      -1.2727      2.00000
     10       0.1270      2.00000
     11       0.8918      2.00000
     12       0.8939      2.00000
     13       0.9682      2.00000
     14       1.1601      2.00000
     15       1.3632      2.00000
     16       1.5381      2.00000
     17       1.8106      2.00000
     18       2.4907      2.00000
     19       2.6085      2.00000
     20       2.9319      2.00000
     21       4.4707      0.00000
     22       4.7168      0.00000
     23       4.9644      0.00000
     24       5.4905      0.00000
     25       5.9793      0.00000
     26       6.0205      0.00000
     27       6.7314      0.00000
     28       6.7363      0.00000
     29       6.9020      0.00000
     30       7.3262      0.00000
     31       7.7429      0.00000
     32       8.7854      0.00000

 k-point    12 :       0.1667    0.3333    0.0000
  band No.  band energies     occupation 
      1     -10.6008      2.00000
      2     -10.3559      2.00000
      3      -9.9806      2.00000
      4      -9.7153      2.00000
      5      -5.4400      2.00000
      6      -4.5839      2.00000
      7      -4.5460      2.00000
      8      -3.7406      2.00000
      9      -1.0964      2.00000
     10      -0.7785      2.00000
     11      -0.3988      2.00000
     12       0.1522      2.00000
     13       0.3714      2.00000
     14       0.6493      2.00000
     15       1.0788      2.00000
     16       1.5475      2.00000
     17       1.7625      2.00000
     18       2.0336      2.00000
     19       2.6463      2.00000
     20       2.6823      2.00000
     21       4.5648      0.00000
     22       5.2998      0.00000
     23       5.5051      0.00000
     24       5.7613      0.00000
     25       6.0480      0.00000
     26       6.1169      0.00000
     27       6.8663      0.00000
     28       7.3365      0.00000
     29       7.3586      0.00000
     30       7.5547      0.00000
     31       8.0406      0.00000
     32       8.6877      0.00000

 k-point    13 :       0.1667   -0.3333    0.0000
  band No.  band energies     occupation 
      1     -10.6008      2.00000
      2     -10.3559      2.00000
      3      -9.9806      2.00000
      4      -9.7153      2.00000
      5      -5.4400      2.00000
      6      -4.5839      2.00000
      7      -4.5460      2.00000
      8      -3.7406      2.00000
      9      -1.0964      2.00000
     10      -0.7785      2.00000
     11      -0.3988      2.00000
     12       0.1522      2.00000
     13       0.3714      2.00000
     14       0.6493      2.00000
     15       1.0788      2.00000
     16       1.5475      2.00000
     17       1.7625      2.00000
     18       2.0336      2.00000
     19       2.6463      2.00000
     20       2.6823      2.00000
     21       4.5648      0.00000
     22       5.2998      0.00000
     23       5.5051      0.00000
     24       5.7613      0.00000
     25       6.0480      0.00000
     26       6.1169      0.00000
     27       6.8663      0.00000
     28       7.3365      0.00000
     29       7.3586      0.00000
     30       7.5547      0.00000
     31       8.0406      0.00000
     32       8.6877      0.00000

 k-point    14 :       0.3333    0.3333    0.0000
  band No.  band energies     occupation 
      1     -10.1029      2.00000
      2      -9.9184      2.00000
      3      -9.6560      2.00000
      4      -9.4917      2.00000
      5      -5.2668      2.00000
      6      -4.6899      2.00000
      7      -4.5586      2.00000
      8      -4.2077      2.00000
      9      -1.7268      2.00000
     10      -1.2414      2.00000
     11      -1.1042      2.00000
     12      -0.6953      2.00000
     13      -0.3092      2.00000
     14       0.3424      2.00000
     15       0.4066      2.00000
     16       0.9469      2.00000
     17       1.1252      2.00000
     18       1.6290      2.00000
     19       2.1053      2.00000
     20       2.2286      2.00000
     21       4.1065      0.00000
     22       5.5164      0.00000
     23       5.9255      0.00000
     24       6.0240      0.00000
     25       6.3106      0.00000
     26       6.4288      0.00000
     27       7.0372      0.00000
     28       7.5098      0.00000
     29       7.9390      0.00000
     30       8.0606      0.00000
     31       8.1575      0.00000
     32       9.3296      0.00000

 k-point    15 :       0.3333   -0.3333    0.0000
  band No.  band energies     occupation 
      1     -10.1029      2.00000
      2      -9.9184      2.00000
      3      -9.6560      2.00000
      4      -9.4917      2.00000
      5      -5.2668      2.00000
      6      -4.6899      2.00000
      7      -4.5586      2.00000
      8      -4.2077      2.00000
      9      -1.7268      2.00000
     10      -1.2414      2.00000
     11      -1.1042      2.00000
     12      -0.6953      2.00000
     13      -0.3092      2.00000
     14       0.3424      2.00000
     15       0.4066      2.00000
     16       0.9469      2.00000
     17       1.1252      2.00000
     18       1.6290      2.00000
     19       2.1053      2.00000
     20       2.2286      2.00000
     21       4.1065      0.00000
     22       5.5164      0.00000
     23       5.9255      0.00000
     24       6.0240      0.00000
     25       6.3106      0.00000
     26       6.4288      0.00000
     27       7.0372      0.00000
     28       7.5098      0.00000
     29       7.9390      0.00000
     30       8.0606      0.00000
     31       8.1575      0.00000
     32       9.3297      0.00000

 k-point    16 :       0.5000    0.3333    0.0000
  band No.  band energies     occupation 
      1      -9.5908      2.00000
      2      -9.5908      2.00000
      3      -9.5562      2.00000
      4      -9.5562      2.00000
      5      -4.9816      2.00000
      6      -4.9816      2.00000
      7      -4.7865      2.00000
      8      -4.7865      2.00000
      9      -1.3779      2.00000
     10      -1.3779      2.00000
     11      -0.8927      2.00000
     12      -0.8927      2.00000
     13      -0.5070      2.00000
     14      -0.5070      2.00000
     15       0.1757      2.00000
     16       0.1757      2.00000
     17       1.1758      2.00000
     18       1.1758      2.00000
     19       1.9660      2.00000
     20       1.9660      2.00000
     21       4.8872      0.00000
     22       4.8872      0.00000
     23       6.2363      0.00000
     24       6.2363      0.00000
     25       6.6661      0.00000
     26       6.6661      0.00000
     27       7.1409      0.00000
     28       7.1409      0.00000
     29       7.4181      0.00000
     30       7.4181      0.00000
     31       8.6147      0.00000
     32       8.6147      0.00000

 k-point    17 :       0.0000    0.5000    0.0000
  band No.  band energies     occupation 
      1     -10.4334      2.00000
      2     -10.4334      2.00000
      3     -10.1842      2.00000
      4     -10.1842      2.00000
      5      -5.3195      2.00000
      6      -5.3195      2.00000
      7      -4.3248      2.00000
      8      -4.3248      2.00000
      9      -0.5779      2.00000
     10      -0.5779      2.00000
     11       1.2786      2.00000
     12       1.2786      2.00000
     13       1.4971      2.00000
     14       1.4971      2.00000
     15       1.5670      2.00000
     16       1.5670      2.00000
     17       2.0345      2.00000
     18       2.0345      2.00000
     19       2.7288      2.00000
     20       2.7288      2.00000
     21       4.7148      0.00000
     22       4.7148      0.00000
     23       5.1744      0.00000
     24       5.1744      0.00000
     25       5.7377      0.00000
     26       5.7377      0.00000
     27       6.1224      0.00000
     28       6.1224      0.00000
     29       7.1084      0.00000
     30       7.1084      0.00000
     31       8.3840      0.00000
     32       8.3840      0.00000

 k-point    18 :       0.1667    0.5000    0.0000
  band No.  band energies     occupation 
      1     -10.2638      2.00000
      2     -10.2638      2.00000
      3     -10.0311      2.00000
      4     -10.0311      2.00000
      5      -5.1897      2.00000
      6      -5.1897      2.00000
      7      -4.2779      2.00000
      8      -4.2779      2.00000
      9      -0.5787      2.00000
     10      -0.5787      2.00000
     11      -0.1398      2.00000
     12      -0.1398      2.00000
     13       0.0877      2.00000
     14       0.0877      2.00000
     15       1.4703      2.00000
     16       1.4703      2.00000
     17       2.1893      2.00000
     18       2.1893      2.00000
     19       2.6254      2.00000
     20       2.6254      2.00000
     21       4.7763      0.00000
     22       4.7763      0.00000
     23       5.8530      0.00000
     24       5.8530      0.00000
     25       6.5503      0.00000
     26       6.5503      0.00000
     27       6.8154      0.00000
     28       6.8154      0.00000
     29       7.3539      0.00000
     30       7.3539      0.00000
     31       8.2611      0.00000
     32       8.2611      0.00000

 k-point    19 :       0.3333    0.5000    0.0000
  band No.  band energies     occupation 
      1      -9.8531      2.00000
      2      -9.8531      2.00000
      3      -9.6904      2.00000
      4      -9.6904      2.00000
      5      -4.9824      2.00000
      6      -4.9824      2.00000
      7      -4.4271      2.00000
      8      -4.4271      2.00000
      9      -1.6193      2.00000
     10      -1.6193      2.00000
     11      -0.9941      2.00000
     12      -0.9941      2.00000
     13      -0.2245      2.00000
     14      -0.2245      2.00000
     15       0.6695      2.00000
     16       0.6695      2.00000
     17       1.1579      2.00000
     18       1.1579      2.00000
     19       2.2044      2.00000
     20       2.2044      2.00000
     21       5.0008      0.00000
     22       5.0008      0.00000
     23       6.5758      0.00000
     24       6.5758      0.00000
     25       6.9808      0.00000
     26       6.9808      0.00000
     27       7.5754      0.00000
     28       7.5754      0.00000
     29       8.0338      0.00000
     30       8.0338      0.00000
     31       9.0661      0.00000
     32       9.0661      0.00000

 k-point    20 :       0.5000    0.5000    0.0000
  band No.  band energies     occupation 
      1      -9.5522      2.00000
      2      -9.5522      2.00000
      3      -9.5391      2.00000
      4      -9.5391      2.00000
      5      -4.8747      2.00000
      6      -4.8747      2.00000
      7      -4.8077      2.00000
      8      -4.8077      2.00000
      9      -1.5550      2.00000
     10      -1.5550      2.00000
     11      -1.2026      2.00000
     12      -1.2026      2.00000
     13      -0.5388      2.00000
     14      -0.5387      2.00000
     15      -0.2168      2.00000
     16      -0.2168      2.00000
     17       1.2835      2.00000
     18       1.2835      2.00000
[...]
     32       7.8654      0.00000

 k-point    32 :       0.1667    0.3333    0.5000
  band No.  band energies     occupation 
      1     -10.5028      2.00000
      2     -10.5028      2.00000
      3      -9.8241      2.00000
      4      -9.8241      2.00000
      5      -5.1471      2.00000
      6      -5.1471      2.00000
      7      -4.0517      2.00000
      8      -4.0517      2.00000
      9      -0.7544      2.00000
     10      -0.7544      2.00000
     11      -0.1413      2.00000
     12      -0.1413      2.00000
     13       0.3837      2.00000
     14       0.3837      2.00000
     15       1.3115      2.00000
     16       1.3115      2.00000
     17       1.9824      2.00000
     18       1.9824      2.00000
     19       2.3479      2.00000
     20       2.3479      2.00000
     21       5.3316      0.00000
     22       5.3316      0.00000
     23       5.6609      0.00000
     24       5.6609      0.00000
     25       6.3138      0.00000
     26       6.3138      0.00000
     27       6.7310      0.00000
     28       6.7310      0.00000
     29       7.4675      0.00000
     30       7.4675      0.00000
     31       8.1314      0.00000
     32       8.1314      0.00000

 k-point    33 :       0.1667   -0.3333    0.5000
  band No.  band energies     occupation 
      1     -10.5028      2.00000
      2     -10.5028      2.00000
      3      -9.8241      2.00000
      4      -9.8241      2.00000
      5      -5.1471      2.00000
      6      -5.1471      2.00000
      7      -4.0517      2.00000
      8      -4.0517      2.00000
      9      -0.7544      2.00000
     10      -0.7544      2.00000
     11      -0.1413      2.00000
     12      -0.1413      2.00000
     13       0.3837      2.00000
     14       0.3837      2.00000
     15       1.3115      2.00000
     16       1.3115      2.00000
     17       1.9824      2.00000
     18       1.9824      2.00000
     19       2.3479      2.00000
     20       2.3479      2.00000
     21       5.3316      0.00000
     22       5.3316      0.00000
     23       5.6609      0.00000
     24       5.6609      0.00000
     25       6.3138      0.00000
     26       6.3138      0.00000
     27       6.7310      0.00000
     28       6.7310      0.00000
     29       7.4675      0.00000
     30       7.4675      0.00000
     31       8.1314      0.00000
     32       8.1314      0.00000

 k-point    34 :       0.3333    0.3333    0.5000
  band No.  band energies     occupation 
      1     -10.0277      2.00000
      2     -10.0277      2.00000
      3      -9.5571      2.00000
      4      -9.5571      2.00000
      5      -5.0465      2.00000
      6      -5.0465      2.00000
      7      -4.3276      2.00000
      8      -4.3276      2.00000
      9      -1.5267      2.00000
     10      -1.5267      2.00000
     11      -0.8535      2.00000
     12      -0.8535      2.00000
     13      -0.0078      2.00000
     14      -0.0078      2.00000
     15       0.7087      2.00000
     16       0.7087      2.00000
     17       1.3399      2.00000
     18       1.3399      2.00000
     19       2.1065      2.00000
     20       2.1065      2.00000
     21       5.1635      0.00000
     22       5.1635      0.00000
     23       5.8096      0.00000
     24       5.8096      0.00000
     25       6.1630      0.00000
     26       6.1630      0.00000
     27       7.1746      0.00000
     28       7.1746      0.00000
     29       7.6819      0.00000
     30       7.6819      0.00000
     31       9.0550      0.00000
     32       9.0550      0.00000

 k-point    35 :       0.3333   -0.3333    0.5000
  band No.  band energies     occupation 
      1     -10.0277      2.00000
      2     -10.0277      2.00000
      3      -9.5571      2.00000
      4      -9.5571      2.00000
      5      -5.0465      2.00000
      6      -5.0465      2.00000
      7      -4.3276      2.00000
      8      -4.3276      2.00000
      9      -1.5267      2.00000
     10      -1.5267      2.00000
     11      -0.8535      2.00000
     12      -0.8535      2.00000
     13      -0.0078      2.00000
     14      -0.0078      2.00000
     15       0.7087      2.00000
     16       0.7087      2.00000
     17       1.3399      2.00000
     18       1.3399      2.00000
     19       2.1065      2.00000
     20       2.1065      2.00000
     21       5.1635      0.00000
     22       5.1635      0.00000
     23       5.8096      0.00000
     24       5.8096      0.00000
     25       6.1630      0.00000
     26       6.1630      0.00000
     27       7.1746      0.00000
     28       7.1746      0.00000
     29       7.6819      0.00000
     30       7.6819      0.00000
     31       9.0550      0.00000
     32       9.0550      0.00000

 k-point    36 :       0.5000    0.3333    0.5000
  band No.  band energies     occupation 
      1      -9.5737      2.00000
      2      -9.5737      2.00000
      3      -9.5737      2.00000
      4      -9.5737      2.00000
      5      -4.8874      2.00000
      6      -4.8874      2.00000
      7      -4.8874      2.00000
      8      -4.8874      2.00000
      9      -1.1153      2.00000
     10      -1.1153      2.00000
     11      -1.1153      2.00000
     12      -1.1153      2.00000
     13      -0.3016      2.00000
     14      -0.3016      2.00000
     15      -0.3016      2.00000
     16      -0.3016      2.00000
     17       1.7143      2.00000
     18       1.7143      2.00000
     19       1.7143      2.00000
     20       1.7143      2.00000
     21       5.5105      0.00000
     22       5.5105      0.00000
     23       5.5105      0.00000
     24       5.5105      0.00000
     25       6.5621      0.00000
     26       6.5621      0.00000
     27       6.5621      0.00000
     28       6.5621      0.00000
     29       8.1403      0.00000
     30       8.1403      0.00000
     31       8.1403      0.00000
     32       8.1403      0.00000

 k-point    37 :       0.0000    0.5000    0.5000
  band No.  band energies     occupation 
      1     -10.4287      2.00000
      2     -10.4287      2.00000
      3     -10.1902      2.00000
      4     -10.1902      2.00000
      5      -5.2239      2.00000
      6      -5.2239      2.00000
      7      -4.4871      2.00000
      8      -4.4871      2.00000
      9       0.1351      2.00000
     10       0.1351      2.00000
     11       0.4943      2.00000
     12       0.4943      2.00000
     13       1.2845      2.00000
     14       1.2845      2.00000
     15       1.4899      2.00000
     16       1.4899      2.00000
     17       2.3062      2.00000
     18       2.3062      2.00000
     19       2.7137      2.00000
     20       2.7137      2.00000
     21       4.7420      0.00000
     22       4.7420      0.00000
     23       5.1466      0.00000
     24       5.1466      0.00000
     25       6.1690      0.00000
     26       6.1690      0.00000
     27       6.4665      0.00000
     28       6.4665      0.00000
     29       7.0387      0.00000
     30       7.0387      0.00000
     31       7.7172      0.00000
     32       7.7172      0.00000

 k-point    38 :       0.1667    0.5000    0.5000
  band No.  band energies     occupation 
      1     -10.2594      2.00000
      2     -10.2594      2.00000
      3     -10.0367      2.00000
      4     -10.0367      2.00000
      5      -5.1084      2.00000
      6      -5.1084      2.00000
      7      -4.4087      2.00000
      8      -4.4087      2.00000
      9      -0.3970      2.00000
     10      -0.3970      2.00000
     11      -0.2211      2.00000
     12      -0.2211      2.00000
     13       0.6513      2.00000
     14       0.6513      2.00000
     15       0.7425      2.00000
     16       0.7425      2.00000
     17       2.2399      2.00000
     18       2.2399      2.00000
     19       2.3720      2.00000
     20       2.3720      2.00000
     21       5.6465      0.00000
     22       5.6465      0.00000
     23       5.8226      0.00000
     24       5.8226      0.00000
     25       6.4848      0.00000
     26       6.4848      0.00000
     27       6.5430      0.00000
     28       6.5430      0.00000
     29       7.2798      0.00000
     30       7.2798      0.00000
     31       7.8989      0.00000
     32       7.8989      0.00000

 k-point    39 :       0.3333    0.5000    0.5000
  band No.  band energies     occupation 
      1      -9.8499      2.00000
      2      -9.8499      2.00000
      3      -9.6941      2.00000
      4      -9.6941      2.00000
      5      -4.9457      2.00000
      6      -4.9457      2.00000
      7      -4.4746      2.00000
      8      -4.4746      2.00000
      9      -1.4018      2.00000
     10      -1.4018      2.00000
     11      -1.3400      2.00000
     12      -1.3400      2.00000
     13       0.1971      2.00000
     14       0.1971      2.00000
     15       0.2810      2.00000
     16       0.2810      2.00000
     17       1.5919      2.00000
     18       1.5919      2.00000
     19       1.7859      2.00000
     20       1.7859      2.00000
     21       5.5881      0.00000
     22       5.5881      0.00000
     23       6.1327      0.00000
     24       6.1327      0.00000
     25       6.8597      0.00000
     26       6.8597      0.00000
     27       6.9278      0.00000
     28       6.9278      0.00000
     29       8.7664      0.00000
     30       8.7664      0.00000
     31       8.7706      0.00000
     32       8.7706      0.00000

 k-point    40 :       0.5000    0.5000    0.5000
  band No.  band energies     occupation 
      1      -9.5457      2.00000
      2      -9.5457      2.00000
      3      -9.5457      2.00000
      4      -9.5457      2.00000
      5      -4.8441      2.00000
      6      -4.8441      2.00000
      7      -4.8441      2.00000
      8      -4.8441      2.00000
      9      -1.2245      2.00000
     10      -1.2245      2.00000
     11      -1.2245      2.00000
     12      -1.2245      2.00000
     13      -0.6840      2.00000
     14      -0.6840      2.00000
     15      -0.6840      2.00000
     16      -0.6840      2.00000
     17       1.7953      2.00000
     18       1.7953      2.00000
     19       1.7953      2.00000
     20       1.7953      2.00000
     21       5.5428      0.00000
     22       5.5428      0.00000
     23       5.5428      0.00000
     24       5.5428      0.00000
     25       7.2462      0.00000
     26       7.2462      0.00000
     27       7.2462      0.00000
     28       7.2462      0.00000
     29       9.1366      0.00000
     30       9.1366      0.00000
     31       9.1366      0.00000
     32       9.1366      0.00000


--------------------------------------------------------------------------------------------------------


 soft charge-density along one line, spin component            1
         0         1         2         3         4         5         6         7         8         9
 total charge-density along one line
 
 pseudopotential strength for first ion, spin component:            1
 14.567  18.176   0.044   0.047   0.000   0.079   0.084   0.000
 18.176  22.693   0.056   0.059   0.000   0.100   0.106   0.000
  0.044   0.056   3.232  -0.003  -0.000   5.503  -0.006  -0.000
  0.047   0.059  -0.003   3.231  -0.000  -0.006   5.502  -0.000
  0.000   0.000  -0.000  -0.000   3.235  -0.000  -0.000   5.507
  0.079   0.100   5.503  -0.006  -0.000   9.427  -0.009  -0.000
  0.084   0.106  -0.006   5.502  -0.000  -0.009   9.425  -0.000
  0.000   0.000  -0.000  -0.000   5.507  -0.000  -0.000   9.435
 -0.000  -0.000  -0.000   0.000   0.007  -0.000   0.000   0.014
 -0.007  -0.009   0.012   0.014   0.000   0.021   0.025   0.000
 -0.003  -0.003  -0.004   0.013  -0.000  -0.007   0.023  -0.000
 -0.000  -0.000   0.000  -0.000   0.012   0.000  -0.000   0.022
  0.003   0.004  -0.013   0.000   0.000  -0.023   0.000   0.000
 total augmentation occupancy for first ion, spin component:            1
  2.765  -0.712   0.385   0.370   0.000  -0.077  -0.068  -0.000  -0.000  -0.005  -0.011  -0.000   0.007
 -0.712   0.648  -0.481  -0.485  -0.000   0.079   0.076  -0.000   0.000   0.002   0.007   0.000  -0.001
  0.385  -0.481   1.325   0.099  -0.000  -0.220  -0.005   0.000   0.000   0.055  -0.111   0.000  -0.009
  0.370  -0.485   0.099   1.294   0.000  -0.005  -0.208   0.000   0.000  -0.021   0.090  -0.000  -0.008
  0.000  -0.000  -0.000   0.000   1.297   0.000  -0.000  -0.226   0.162  -0.000   0.000   0.045  -0.000
 -0.077   0.079  -0.220  -0.005   0.000   0.041  -0.001  -0.000   0.000  -0.009   0.019  -0.000   0.002
 -0.068   0.076  -0.005  -0.208  -0.000  -0.001   0.038   0.000  -0.000   0.003  -0.016  -0.000   0.001
 -0.000  -0.000   0.000   0.000  -0.226  -0.000   0.000   0.044  -0.028   0.000  -0.000  -0.007  -0.000
 -0.000   0.000   0.000   0.000   0.162   0.000  -0.000  -0.028   0.033   0.000  -0.000   0.005  -0.000
 -0.005   0.002   0.055  -0.021  -0.000  -0.009   0.003   0.000   0.000   0.013  -0.008  -0.000   0.002
 -0.011   0.007  -0.111   0.090   0.000   0.019  -0.016  -0.000  -0.000  -0.008   0.028   0.000  -0.002
 -0.000   0.000   0.000  -0.000   0.045  -0.000  -0.000  -0.007   0.005  -0.000   0.000   0.011  -0.000
  0.007  -0.001  -0.009  -0.008  -0.000   0.002   0.001  -0.000  -0.000   0.002  -0.002  -0.000   0.009


------------------------ aborting loop because EDIFF is reached ----------------------------------------


    CHARGE:  cpu time      0.0036: real time      0.0036
    FORLOC:  cpu time      0.0002: real time      0.0002
    FORNL :  cpu time      0.0187: real time      0.0187
    STRESS:  cpu time      0.1869: real time      0.1875
    FORCOR:  cpu time      0.0035: real time      0.0035
    FORHAR:  cpu time      0.0009: real time      0.0009
    MIXING:  cpu time      0.0007: real time      0.0007
    OFIELD:  cpu time      0.0000: real time      0.0000

  FORCE on cell =-STRESS in cart. coord.  units (eV):
  Direction    XX          YY          ZZ          XY          YZ          ZX
  --------------------------------------------------------------------------------------
  Alpha Z    85.62737    85.62737    85.62737
  Ewald    -412.85677  -470.06319  -516.58359    -0.00000    -0.00000    -0.00000
  Hartree    76.02145    45.53020    25.76143     0.00000     0.00000     0.00000
  E(xc)    -141.37629  -141.41747  -141.47114     0.00000    -0.00000     0.00000
  Local    -226.41624  -144.31436   -83.29564    -0.00000    -0.00000     0.00000
  n-local   241.70859   241.66269   241.27567    -0.00000     0.00000     0.00000
  augment   -11.43009   -11.73706   -12.13600     0.00000    -0.00000     0.00000
  Kinetic   391.97161   394.91894   401.03807     0.00000     0.00000    -0.00000
  Fock        0.00000     0.00000     0.00000     0.00000     0.00000     0.00000
  -------------------------------------------------------------------------------------
  Total       3.24963     0.20713     0.21618    -0.00000    -0.00000     0.00000
  in kB      26.31057     1.67701     1.75028    -0.00000    -0.00000     0.00000
  external pressure =        9.91 kB  Pullay stress =        0.00 kB


 VOLUME and BASIS-vectors are now :
 -----------------------------------------------------------------------------
  energy-cutoff  :      360.00
  volume of cell :      197.89
      direct lattice vectors                 reciprocal lattice vectors
     3.700000000  0.000000000  0.000000000     0.270270270  0.000000000  0.000000000
     0.000000000  4.800000000  0.000000000     0.000000000  0.208333333  0.000000000
     0.000000000  0.000000000 11.142221000     0.000000000  0.000000000  0.089748713

  length of vectors
     3.700000000  4.800000000 11.142221000     0.270270270  0.208333333  0.089748713


 FORCES acting on ions
    electron-ion (+dipol)            ewald-force                    non-local-force                 convergence-correction
 -----------------------------------------------------------------------------------------------
   0.236E-06 0.200E+02 0.284E+02   0.122E-13 -.226E+02 -.313E+02   -.378E-06 0.259E+01 0.296E+01   0.869E-07 0.658E-04 -.133E-02
   0.271E-05 0.200E+02 -.284E+02   0.212E-13 -.226E+02 0.313E+02   -.133E-05 0.259E+01 -.296E+01   -.133E-05 0.655E-04 0.133E-02
   -.461E-06 -.200E+02 -.284E+02   -.785E-14 0.226E+02 0.313E+02   0.365E-06 -.259E+01 -.296E+01   0.772E-07 -.646E-04 0.133E-02
   -.184E-05 -.200E+02 0.284E+02   -.152E-13 0.226E+02 -.313E+02   0.826E-06 -.259E+01 0.296E+01   0.913E-06 -.656E-04 -.133E-02
   -.339E-05 -.185E+02 -.247E+02   -.169E-13 0.203E+02 0.263E+02   0.999E-06 -.172E+01 -.164E+01   0.260E-05 0.158E-03 0.284E-02
   0.257E-05 -.185E+02 0.247E+02   -.103E-13 0.203E+02 -.263E+02   -.822E-06 -.172E+01 0.164E+01   -.114E-05 0.157E-03 -.284E-02
   0.271E-05 0.185E+02 0.247E+02   0.154E-13 -.203E+02 -.263E+02   -.800E-06 0.172E+01 0.164E+01   -.215E-05 -.157E-03 -.285E-02
   -.809E-06 0.185E+02 -.247E+02   0.944E-14 -.203E+02 0.263E+02   0.284E-06 0.172E+01 -.164E+01   0.892E-07 -.158E-03 0.284E-02
 -----------------------------------------------------------------------------------------------
   0.173E-05 -.156E-06 0.778E-06   0.792E-14 0.000E+00 -.355E-14   -.853E-06 -.512E-06 0.654E-06   -.857E-06 0.894E-06 -.108E-05
 
 
 POSITION                                       TOTAL-FORCE (eV/Angst)
 -----------------------------------------------------------------------------------
      0.92500      0.56248      1.37088        -0.000000     -0.028077      0.016890
      2.77500      2.96248      4.20023         0.000000     -0.028077     -0.016889
      2.77500      4.23752      9.77134        -0.000000      0.028077     -0.016890
      0.92500      1.83752      6.94199        -0.000000      0.028077      0.016889
      0.92500      4.70653      3.89760         0.000000      0.054437     -0.007149
      2.77500      2.30653      1.67351         0.000001      0.054437      0.007149
      2.77500      0.09347      7.24462        -0.000000     -0.054437      0.007149
      0.92500      2.49347      9.46871        -0.000000     -0.054437     -0.007149
 -----------------------------------------------------------------------------------
    total drift:                                0.000000      0.000000      0.000000


--------------------------------------------------------------------------------------------------------



  FREE ENERGIE OF THE ION-ELECTRON SYSTEM (eV)
  ---------------------------------------------------
  free  energy   TOTEN  =       -33.74405001 eV

  energy  without entropy=      -33.74405001  energy(sigma->0) =      -33.74405001
 


--------------------------------------------------------------------------------------------------------


    POTLOK:  cpu time      0.1139: real time      0.1142


--------------------------------------------------------------------------------------------------------


     LOOP+:  cpu time      4.9399: real time      4.9841
    4ORBIT:  cpu time      0.0000: real time      0.0000

 total amount of memory used by VASP MPI-rank0    38761. kBytes
=======================================================================

   base      :      30000. kBytes
   nonl-proj :       6758. kBytes
   fftplans  :        368. kBytes
   grid      :        555. kBytes
   one-center:         16. kBytes
   wavefun   :       1064. kBytes
 
  
  
 General timing and accounting informations for this job:
 ========================================================
  
                  Total CPU time used (sec):        5.904
                            User time (sec):        5.438
                          System time (sec):        0.466
                         Elapsed time (sec):        7.246
  
                   Maximum memory used (kb):      189788.
                   Average memory used (kb):          N/A
  
                          Minor page faults:        21786
                          Major page faults:           28
                 Voluntary context switches:         2773
