 running  128 mpi-ranks, with    1 threads/rank, on    2 nodes
 distrk:  each k-point on   64 cores,    2 groups
 distr:  one band on    4 cores,   16 groups
 vasp.6.4.2 20Jul23 (build Oct 12 2023 10:31:02) complex                         
 POSCAR found type information on POSCAR GeSe
 POSCAR found :  2 types and       8 ions
 Reading from existing POTCAR
 scaLAPACK will be used
 Reading from existing POTCAR
 LDA part: xc-table for Pade appr. of Perdew
 POSCAR, INCAR and KPOINTS ok, starting setup
 FFT: planning ... GRIDC
 FFT: planning ... GRID_SOFT
 FFT: planning ... GRID
 WAVECAR not read
 entering main loop
       N       E                     dE             d eps       ncg     rms          rms(c)
DAV:   1     0.130563848040E+03    0.13056E+03   -0.12846E+04  2560   0.773E+02
DAV:   2    -0.255699685452E+02   -0.15613E+03   -0.15106E+03  3792   0.138E+02
DAV:   3    -0.340752940519E+02   -0.85053E+01   -0.84890E+01  3200   0.377E+01
DAV:   4    -0.341323675314E+02   -0.57073E-01   -0.57068E-01  3296   0.353E+00
DAV:   5    -0.341327266454E+02   -0.35911E-03   -0.35910E-03  3168   0.273E-01    0.660E+00
DAV:   6    -0.337613243292E+02    0.37140E+00   -0.74884E-01  3056   0.294E+00    0.417E+00
DAV:   7    -0.337451009774E+02    0.16223E-01   -0.23214E-01  2880   0.173E+00    0.127E+00
DAV:   8    -0.337435924459E+02    0.15085E-02   -0.21489E-02  2944   0.560E-01    0.191E-01
DAV:   9    -0.337439186894E+02   -0.32624E-03   -0.37745E-03  3088   0.263E-01    0.673E-02
DAV:  10    -0.337440181775E+02   -0.99488E-04   -0.26992E-04  3104   0.691E-02    0.243E-02
DAV:  11    -0.337440490717E+02   -0.30894E-04   -0.41203E-05  2864   0.289E-02    0.124E-02
DAV:  12    -0.337440500140E+02   -0.94229E-06   -0.57222E-06  3344   0.105E-02
   1 F= -.33744050E+02 E0= -.33744050E+02  d E =-.827783E-12
