 running  160 mpi-ranks, with    1 threads/rank, on   10 nodes
 distrk:  each k-point on   80 cores,    2 groups
 distr:  one band on    5 cores,   16 groups
 vasp.6.4.2 20Jul23 (build Oct 12 2023 10:31:02) complex                         
 POSCAR found type information on POSCAR GeSe
 POSCAR found :  2 types and       8 ions
 Reading from existing POTCAR
 scaLAPACK will be used
 Reading from existing POTCAR
 LDA part: xc-table for Pade appr. of Perdew
 POSCAR, INCAR and KPOINTS ok, starting setup
 FFT: planning ... GRIDC
 FFT: planning ... GRID_SOFT
 FFT: planning ... GRID
 WAVECAR not read
 entering main loop
       N       E                     dE             d eps       ncg     rms          rms(c)
DAV:   1     0.162608091027E+03    0.16261E+03   -0.15891E+04  2560   0.104E+03
DAV:   2    -0.224582324489E+02   -0.18507E+03   -0.17987E+03  3696   0.155E+02
DAV:   3    -0.336764957140E+02   -0.11218E+02   -0.11184E+02  3312   0.440E+01
DAV:   4    -0.337642947156E+02   -0.87799E-01   -0.87782E-01  3248   0.440E+00
DAV:   5    -0.337648838123E+02   -0.58910E-03   -0.58909E-03  3264   0.367E-01    0.657E+00
DAV:   6    -0.334010240060E+02    0.36386E+00   -0.77638E-01  3280   0.291E+00    0.413E+00
DAV:   7    -0.333919527114E+02    0.90713E-02   -0.20838E-01  3088   0.164E+00    0.128E+00
DAV:   8    -0.333905377576E+02    0.14150E-02   -0.20890E-02  2928   0.549E-01    0.169E-01
DAV:   9    -0.333908922593E+02   -0.35450E-03   -0.26920E-03  3360   0.236E-01    0.648E-02
DAV:  10    -0.333910105601E+02   -0.11830E-03   -0.23749E-04  3200   0.682E-02    0.222E-02
DAV:  11    -0.333910380338E+02   -0.27474E-04   -0.35682E-05  3200   0.266E-02    0.104E-02
DAV:  12    -0.333910395474E+02   -0.15136E-05   -0.51216E-06  3504   0.987E-03    0.340E-03
DAV:  13    -0.333910398900E+02   -0.34260E-06   -0.11579E-06  2032   0.496E-03
   1 F= -.33391040E+02 E0= -.33390945E+02  d E =-.189713E-03
