 vasp.6.4.2 20Jul23 (build Oct 12 2023 10:31:02) complex                         
 executed on              LinuxNV date 2025.05.17  17:02:57
 running  160 mpi-ranks, with    1 threads/rank, on   10 nodes
 distrk:  each k-point on   80 cores,    2 groups
 distr:  one band on NCORE=   5 cores,   16 groups


--------------------------------------------------------------------------------------------------------


 INCAR:
   ENCUT = 360.000000
   SIGMA = 0.050000
   EDIFF = 1.00e-06
   ALGO = Normal
   GGA = PE
   PREC = Normal
   SYSTEM = ./
   ICHARG = 2
   ISMEAR = 0
   ISPIN = 1
   ISTART = 0
   ISYM = 0
   KPAR = 2
   LMAXMIX = 4
   NELM = 100
   NPAR = 16
   LASPH = .TRUE.
   LCHARG = .FALSE.
   LWAVE = .FALSE.

 POTCAR:    PAW_PBE Ge 05Jan2001                  
 POTCAR:    PAW_PBE Se 06Sep2000                  
 POTCAR:    PAW_PBE Ge 05Jan2001                  
   VRHFIN =Ge: s2p2                                                                                 
   LEXCH  = PE                                                                                      
   EATOM  =   104.9960 eV,    7.7170 Ry                                                             
                                                                                                    
   TITEL  = PAW_PBE Ge 05Jan2001                                                                    
   LULTRA =        F    use ultrasoft PP ?                                                          
   IUNSCR =        1    unscreen: 0-lin 1-nonlin 2-no                                               
   RPACOR =    2.170    partial core radius                                                         
   POMASS =   72.610; ZVAL   =    4.000    mass and valenz                                          
   RCORE  =    2.300    outmost cutoff radius                                                       
   RWIGS  =    2.300; RWIGS  =    1.217    wigner-seitz radius (au A)                               
   ENMAX  =  173.807; ENMIN  =  130.355 eV                                                          
   ICORE  =        3    local potential                                                             
   LCOR   =        T    correct aug charges                                                         
   LPAW   =        T    paw PP                                                                      
   EAUG   =  385.843                                                                                
   DEXC   =    0.000                                                                                
   RMAX   =    2.342    core radius for proj-oper                                                   
   RAUG   =    1.300    factor for augmentation sphere                                              
   RDEP   =    2.318    radius for radial grids                                                     
   RDEPT  =    2.103    core radius for aug-charge                                                  
                                                                                                    
   Atomic configuration                                                                             
   10 entries                                                                                       
     n  l   j            E        occ.                                                              
     1  0  0.50    -10959.8463   2.0000                                                             
     2  0  0.50     -1371.6056   2.0000                                                             
     2  1  1.50     -1198.4791   6.0000                                                             
     3  0  0.50      -168.4733   2.0000                                                             
     3  1  1.50      -115.6019   6.0000                                                             
     3  2  2.50       -29.3106  10.0000                                                             
     4  0  0.50       -11.7309   2.0000                                                             
     4  1  0.50        -3.8952   2.0000                                                             
     4  2  1.50        -4.0817   0.0000                                                             
     4  3  2.50        -4.0817   0.0000                                                             
   Description                                                                                      
     l       E           TYP  RCUT    TYP  RCUT                                                     
     0    -11.7309493     23  2.300                                                                 
     0     -7.4578696     23  2.300                                                                 
     1     -3.8952261     23  2.300                                                                 
     1      6.1178114     23  2.300                                                                 
     2     -4.0817478     23  2.300                                                                 
     3     -1.3605826      7  2.300                                                                 
  local pseudopotential read in
  partial core-charges read in
  partial kinetic energy density read in
  atomic valenz-charges read in
  non local Contribution for L=            0  read in
    real space projection operators read in
  non local Contribution for L=            0  read in
    real space projection operators read in
  non local Contribution for L=            1  read in
    real space projection operators read in
  non local Contribution for L=            1  read in
    real space projection operators read in
  non local Contribution for L=            2  read in
    real space projection operators read in
    PAW grid and wavefunctions read in
 
   number of l-projection  operators is LMAX  =            5
   number of lm-projection operators is LMMAX =           13
 
 POTCAR:    PAW_PBE Se 06Sep2000                  
   VRHFIN =Se: s2p4                                                                                 
   LEXCH  = PE                                                                                      
   EATOM  =   257.1286 eV,   18.8984 Ry                                                             
                                                                                                    
   TITEL  = PAW_PBE Se 06Sep2000                                                                    
   LULTRA =        F    use ultrasoft PP ?                                                          
   IUNSCR =        1    unscreen: 0-lin 1-nonlin 2-no                                               
   RPACOR =    1.900    partial core radius                                                         
   POMASS =   78.960; ZVAL   =    6.000    mass and valenz                                          
   RCORE  =    2.100    outmost cutoff radius                                                       
   RWIGS  =    2.200; RWIGS  =    1.164    wigner-seitz radius (au A)                               
   ENMAX  =  211.555; ENMIN  =  158.666 eV                                                          
   ICORE  =        3    local potential                                                             
   LCOR   =        T    correct aug charges                                                         
   LPAW   =        T    paw PP                                                                      
   EAUG   =  446.842                                                                                
   DEXC   =    0.000                                                                                
   RMAX   =    2.147    core radius for proj-oper                                                   
   RAUG   =    1.300    factor for augmentation sphere                                              
   RDEP   =    2.177    radius for radial grids                                                     
   RDEPT  =    1.928    core radius for aug-charge                                                  
                                                                                                    
   Atomic configuration                                                                             
   10 entries                                                                                       
     n  l   j            E        occ.                                                              
     1  0  0.50    -12503.4787   2.0000                                                             
     2  0  0.50     -1606.9547   2.0000                                                             
     2  1  1.50     -1413.3140   6.0000                                                             
     3  0  0.50      -213.4885   2.0000                                                             
     3  1  1.50      -152.9538   6.0000                                                             
     3  2  2.50       -53.1221  10.0000                                                             
     4  0  0.50       -17.2865   2.0000                                                             
     4  1  0.50        -6.5110   4.0000                                                             
     4  2  2.50        -6.8029   0.0000                                                             
     4  3  2.50        -6.8029   0.0000                                                             
   Description                                                                                      
     l       E           TYP  RCUT    TYP  RCUT                                                     
     0    -17.2865377     23  2.100                                                                 
     0    -15.3094411     23  2.100                                                                 
     1     -6.5110275     23  2.100                                                                 
     1     -0.0695192     23  2.100                                                                 
     2     -6.8029130     23  2.100                                                                 
     3     -1.3605826      7  2.100                                                                 
  local pseudopotential read in
  partial core-charges read in
  partial kinetic energy density read in
  atomic valenz-charges read in
  non local Contribution for L=            0  read in
    real space projection operators read in
  non local Contribution for L=            0  read in
    real space projection operators read in
  non local Contribution for L=            1  read in
    real space projection operators read in
  non local Contribution for L=            1  read in
    real space projection operators read in
  non local Contribution for L=            2  read in
    real space projection operators read in
    PAW grid and wavefunctions read in
 
   number of l-projection  operators is LMAX  =            5
   number of lm-projection operators is LMMAX =           13
 
  PAW_PBE Ge 05Jan2001                  :
 energy of atom  1       EATOM= -104.9960
 kinetic energy error for atom=    0.0005 (will be added to EATOM!!)
  PAW_PBE Se 06Sep2000                  :
 energy of atom  2       EATOM= -257.1286
 kinetic energy error for atom=    0.0030 (will be added to EATOM!!)
 
 
 POSCAR: Ge Se
  positions in cartesian coordinates
  No initial velocities read in
 exchange correlation table for  LEXCH =        8
   RHO(1)=    0.500       N(1)  =     2000
   RHO(2)=  100.500       N(2)  =     4000
 


--------------------------------------------------------------------------------------------------------


 ion  position               nearest neighbor table
   1  0.960  0.844  0.116-   5 2.58   6 2.59   6 2.59   3 2.60
   2  0.460  0.344  0.384-   6 2.58   5 2.59   5 2.59   4 2.60
   3  0.750  0.881  0.884-   7 2.58   8 2.59   8 2.59   1 2.60
   4  0.250  0.381  0.616-   8 2.58   7 2.59   7 2.59   2 2.60
   5  0.960  0.720  0.355-   1 2.58   2 2.59   2 2.59
   6  0.460  0.220  0.145-   2 2.58   1 2.59   1 2.59
   7  0.750  0.005  0.645-   3 2.58   4 2.59   4 2.59
   8  0.250  0.505  0.855-   4 2.58   3 2.59   3 2.59
 

IMPORTANT INFORMATION: All symmetrisations will be switched off!
NOSYMM: (Re-)initialisation of all symmetry stuff for point group C_1.


----------------------------------------------------------------------------------------

                                     Primitive cell                                     

  volume of cell :     184.8593

  direct lattice vectors                    reciprocal lattice vectors
     3.858100176  0.000000000  0.000000000     0.259194929  0.000000000  0.000000000
     0.000000000  4.526575088  0.000000000     0.000000000  0.220917577  0.000000000
     0.000000000  0.000000000 10.585176468     0.000000000  0.000000000  0.094471736

  length of vectors
     3.858100176  4.526575088 10.585176468     0.259194929  0.220917577  0.094471736

  position of ions in fractional coordinates (direct lattice)
     0.960144636  0.843833804  0.116293234
     0.460144684  0.343833829  0.383706663
     0.749999529  0.880803548  0.883706698
     0.249998913  0.380803590  0.616293301
     0.960144708  0.719578891  0.354521754
     0.460144587  0.219578992  0.145478256
     0.749999119  0.005058363  0.645478205
     0.249999423  0.505058446  0.854521738

  ion indices of the primitive-cell ions
   primitive index   ion index
                 1           1
                 2           2
                 3           3
                 4           4
                 5           5
                 6           6
                 7           7
                 8           8

----------------------------------------------------------------------------------------

 
 
 KPOINTS: KPOINTS created by Atomic Simulation Env

Automatic generation of k-mesh.
 Grid dimensions read from file:
 generate k-points for:    6    6    2

 Generating k-lattice:

  Cartesian coordinates                     Fractional coordinates (reciprocal lattice)
     0.043199155  0.000000000  0.000000000     0.166666667  0.000000000  0.000000000
     0.000000000  0.036819596  0.000000000     0.000000000  0.166666667  0.000000000
     0.000000000  0.000000000  0.047235868     0.000000000  0.000000000  0.500000000

  Length of vectors
     0.043199155  0.036819596  0.047235868

  Shift w.r.t. Gamma in fractional coordinates (k-lattice)
     0.000000000  0.000000000  0.000000000

 
 Subroutine IBZKPT returns following result:
 ===========================================
 
 Found     40 irreducible k-points:
 
 Following reciprocal coordinates:
            Coordinates               Weight
  0.000000  0.000000  0.000000      1.000000
  0.166667  0.000000  0.000000      2.000000
  0.333333  0.000000  0.000000      2.000000
  0.500000  0.000000  0.000000      1.000000
  0.000000  0.166667  0.000000      2.000000
  0.166667  0.166667  0.000000      2.000000
  0.166667 -0.166667  0.000000      2.000000
  0.333333  0.166667  0.000000      2.000000
  0.333333 -0.166667  0.000000      2.000000
  0.500000  0.166667  0.000000      2.000000
  0.000000  0.333333  0.000000      2.000000
  0.166667  0.333333  0.000000      2.000000
  0.166667 -0.333333  0.000000      2.000000
  0.333333  0.333333  0.000000      2.000000
  0.333333 -0.333333  0.000000      2.000000
  0.500000  0.333333  0.000000      2.000000
  0.000000  0.500000  0.000000      1.000000
  0.166667  0.500000  0.000000      2.000000
  0.333333  0.500000  0.000000      2.000000
  0.500000  0.500000  0.000000      1.000000
  0.000000  0.000000  0.500000      1.000000
  0.166667  0.000000  0.500000      2.000000
  0.333333  0.000000  0.500000      2.000000
  0.500000  0.000000  0.500000      1.000000
  0.000000  0.166667  0.500000      2.000000
  0.166667  0.166667  0.500000      2.000000
  0.166667 -0.166667  0.500000      2.000000
  0.333333  0.166667  0.500000      2.000000
  0.333333 -0.166667  0.500000      2.000000
  0.500000  0.166667  0.500000      2.000000
  0.000000  0.333333  0.500000      2.000000
  0.166667  0.333333  0.500000      2.000000
  0.166667 -0.333333  0.500000      2.000000
  0.333333  0.333333  0.500000      2.000000
  0.333333 -0.333333  0.500000      2.000000
  0.500000  0.333333  0.500000      2.000000
  0.000000  0.500000  0.500000      1.000000
  0.166667  0.500000  0.500000      2.000000
  0.333333  0.500000  0.500000      2.000000
  0.500000  0.500000  0.500000      1.000000
 
 Following cartesian coordinates:
            Coordinates               Weight
  0.000000  0.000000  0.000000      1.000000
  0.043199  0.000000  0.000000      2.000000
  0.086398  0.000000  0.000000      2.000000
  0.129597  0.000000  0.000000      1.000000
  0.000000  0.036820  0.000000      2.000000
  0.043199  0.036820  0.000000      2.000000
  0.043199 -0.036820  0.000000      2.000000
  0.086398  0.036820  0.000000      2.000000
  0.086398 -0.036820  0.000000      2.000000
  0.129597  0.036820  0.000000      2.000000
  0.000000  0.073639  0.000000      2.000000
  0.043199  0.073639  0.000000      2.000000
  0.043199 -0.073639  0.000000      2.000000
  0.086398  0.073639  0.000000      2.000000
  0.086398 -0.073639  0.000000      2.000000
  0.129597  0.073639  0.000000      2.000000
  0.000000  0.110459  0.000000      1.000000
  0.043199  0.110459  0.000000      2.000000
  0.086398  0.110459  0.000000      2.000000
  0.129597  0.110459  0.000000      1.000000
  0.000000  0.000000  0.047236      1.000000
  0.043199  0.000000  0.047236      2.000000
  0.086398  0.000000  0.047236      2.000000
  0.129597  0.000000  0.047236      1.000000
  0.000000  0.036820  0.047236      2.000000
  0.043199  0.036820  0.047236      2.000000
  0.043199 -0.036820  0.047236      2.000000
  0.086398  0.036820  0.047236      2.000000
  0.086398 -0.036820  0.047236      2.000000
  0.129597  0.036820  0.047236      2.000000
  0.000000  0.073639  0.047236      2.000000
  0.043199  0.073639  0.047236      2.000000
  0.043199 -0.073639  0.047236      2.000000
  0.086398  0.073639  0.047236      2.000000
  0.086398 -0.073639  0.047236      2.000000
  0.129597  0.073639  0.047236      2.000000
  0.000000  0.110459  0.047236      1.000000
  0.043199  0.110459  0.047236      2.000000
  0.086398  0.110459  0.047236      2.000000
  0.129597  0.110459  0.047236      1.000000
 


--------------------------------------------------------------------------------------------------------




 Dimension of arrays:
   k-points           NKPTS =     40   k-points in BZ     NKDIM =     40   number of bands    NBANDS=     32
   number of dos      NEDOS =    301   number of ions     NIONS =      8
   non local maximal  LDIM  =      5   non local SUM 2l+1 LMDIM =     13
   total plane-waves  NPLWV =  21600
   max r-space proj   IRMAX =      1   max aug-charges    IRDMAX=   6549
   dimension x,y,z NGX =    18 NGY =   24 NGZ =   50
   dimension x,y,z NGXF=    36 NGYF=   48 NGZF=  100
   support grid    NGXF=    36 NGYF=   48 NGZF=  100
   ions per type =               4   4
   NGX,Y,Z   is equivalent  to a cutoff of   7.76,  8.81,  7.85 a.u.
   NGXF,Y,Z  is equivalent  to a cutoff of  15.51, 17.63, 15.71 a.u.

 SYSTEM =  ./                                      
 POSCAR =  Ge Se                                   

 Startparameter for this run:
   NWRITE =      2    write-flag & timer
   PREC   = normal    normal or accurate (medium, high low for compatibility)
   ISTART =      0    job   : 0-new  1-cont  2-samecut
   ICHARG =      2    charge: 1-file 2-atom 10-const
   ISPIN  =      1    spin polarized calculation?
   LNONCOLLINEAR =      F non collinear calculations
   LSORBIT =      F    spin-orbit coupling
   INIWAV =      1    electr: 0-lowe 1-rand  2-diag
   LASPH  =      T    aspherical Exc in radial PAW
 Electronic Relaxation 1
   ENCUT  =  360.0 eV  26.46 Ry    5.14 a.u.   5.97  7.00 16.38*2*pi/ulx,y,z
   ENINI  =  360.0     initial cutoff
   ENAUG  =  446.8 eV  augmentation charge cutoff
   NELM   =    100;   NELMIN=  2; NELMDL= -5     # of ELM steps 
   EDIFF  = 0.1E-05   stopping-criterion for ELM
   LREAL  =      F    real-space projection
   NLSPLINE    = F    spline interpolate recip. space projectors
   LCOMPAT=      F    compatible to vasp.4.4
   GGA_COMPAT  = T    GGA compatible to vasp.4.4-vasp.4.6
   LMAXPAW     = -100 max onsite density
   LMAXMIX     =    4 max onsite mixed and CHGCAR
   VOSKOWN=      0    Vosko Wilk Nusair interpolation
   ROPT   =    0.00000   0.00000
 Ionic relaxation
   EDIFFG = 0.1E-04   stopping-criterion for IOM
   NSW    =      0    number of steps for IOM
   NBLOCK =      1;   KBLOCK =      1    inner block; outer block 
   IBRION =     -1    ionic relax: 0-MD 1-quasi-New 2-CG
   NFREE  =      0    steps in history (QN), initial steepest desc. (CG)
   ISIF   =      2    stress and relaxation
   IWAVPR =     10    prediction:  0-non 1-charg 2-wave 3-comb
   ISYM   =      0    0-nonsym 1-usesym 2-fastsym
   LCORR  =      T    Harris-Foulkes like correction to forces

   POTIM  = 0.5000    time-step for ionic-motion
   TEIN   =    0.0    initial temperature
   TEBEG  =    0.0;   TEEND  =   0.0 temperature during run
   SMASS  =  -3.00    Nose mass-parameter (am)
   estimated Nose-frequenzy (Omega)   =  0.10E-29 period in steps = 0.13E+47 mass=  -0.340E-27a.u.
   SCALEE = 1.0000    scale energy and forces
   NPACO  =    256;   APACO  = 10.0  distance and # of slots for P.C.
   PSTRESS=    0.0 pullay stress

  Mass of Ions in am
   POMASS =  72.61 78.96
  Ionic Valenz
   ZVAL   =   4.00  6.00
  Atomic Wigner-Seitz radii
   RWIGS  =  -1.00 -1.00
  virtual crystal weights 
   VCA    =   1.00  1.00
   NELECT =      40.0000    total number of electrons
   NUPDOWN=      -1.0000    fix difference up-down

 DOS related values:
   EMIN   =  10.00;   EMAX   =-10.00  energy-range for DOS
   EFERMI =   0.00;   METHOD = LEGACY      
   ISMEAR =     0;   SIGMA  =   0.05  broadening in eV -4-tet -1-fermi 0-gaus

 Electronic relaxation 2 (details)
   IALGO  =     38    algorithm
   LDIAG  =      T    sub-space diagonalisation (order eigenvalues)
   LSUBROT=      F    optimize rotation matrix (better conditioning)
   TURBO    =      0    0=normal 1=particle mesh
   IRESTART =      0    0=no restart 2=restart with 2 vectors
   NREBOOT  =      0    no. of reboots
   NMIN     =      0    reboot dimension
   EREF     =   0.00    reference energy to select bands
   IMIX   =      4    mixing-type and parameters
     AMIX     =   0.40;   BMIX     =  1.00
     AMIX_MAG =   1.60;   BMIX_MAG =  1.00
     AMIN     =   0.10
     WC   =   100.;   INIMIX=   1;  MIXPRE=   1;  MAXMIX= -45

 Intra band minimization:
   WEIMIN = 0.0000     energy-eigenvalue tresh-hold
   EBREAK =  0.78E-08  absolut break condition
   DEPER  =   0.30     relativ break condition  

   TIME   =   0.40     timestep for ELM

  volume/ion in A,a.u.               =      23.11       155.94
  Fermi-wavevector in a.u.,A,eV,Ry     =   0.982836  1.857291 13.142773  0.965967
  Thomas-Fermi vector in A             =   2.113949
 
 Write flags
   LWAVE        =      F    write WAVECAR
   LDOWNSAMPLE  =      F    k-point downsampling of WAVECAR
   LCHARG       =      F    write CHGCAR
   LVTOT        =      F    write LOCPOT, total local potential
   LVHAR        =      F    write LOCPOT, Hartree potential only
   LELF         =      F    write electronic localiz. function (ELF)
   LORBIT       =      0    0 simple, 1 ext, 2 COOP (PROOUT), +10 PAW based schemes


 Dipole corrections
   LMONO  =      F    monopole corrections only (constant potential shift)
   LDIPOL =      F    correct potential (dipole corrections)
   IDIPOL =      0    1-x, 2-y, 3-z, 4-all directions 
   EPSILON=  1.0000000 bulk dielectric constant

 Exchange correlation treatment:
   GGA     =    PE    GGA type
   LEXCH   =     8    internal setting for exchange type
   LIBXC   =     F    Libxc                    
   VOSKOWN =     0    Vosko Wilk Nusair interpolation
   LHFCALC =     F    Hartree Fock is set to
   LHFONE  =     F    Hartree Fock one center treatment
   AEXX    =    0.0000 exact exchange contribution

 Linear response parameters
   LEPSILON=     F    determine dielectric tensor
   LRPA    =     F    only Hartree local field effects (RPA)
   LNABLA  =     F    use nabla operator in PAW spheres
   LVEL    =     F    velocity operator in full k-point grid
   CSHIFT  =0.1000    complex shift for real part using Kramers Kronig
   OMEGAMAX=  -1.0    maximum frequency
   DEG_THRESHOLD= 0.2000000E-02 threshold for treating states as degnerate
   RTIME   =   -0.100 relaxation time in fs
  (WPLASMAI=    0.000 imaginary part of plasma frequency in eV, 0.658/RTIME)
   DFIELD  = 0.0000000 0.0000000 0.0000000 field for delta impulse in time
 
  Optional k-point grid parameters
   LKPOINTS_OPT  =     F    use optional k-point grid
   KPOINTS_OPT_MODE=     1    mode for optional k-point grid
 
 Orbital magnetization related:
   ORBITALMAG=     F  switch on orbital magnetization
   LCHIMAG   =     F  perturbation theory with respect to B field
   DQ        =  0.001000  dq finite difference perturbation B field
   LLRAUG    =     F  two centre corrections for induced B field
   LBONE     =     F  B-component reconstruction in AE one-centre
   LVGVCALC  =     T  calculate vGv susceptibility
   LVGVAPPL  =     F  apply vGv susceptibility instead of pGv for G=0

 Random number generation:
   RANDOM_GENERATOR = DEFAULT
   PCG_SEED         = not used


--------------------------------------------------------------------------------------------------------


 Static calculation
 charge density and potential will be updated during run
 non-spin polarized calculation
 Variant of blocked Davidson
 Davidson routine will perform the subspace rotation
 perform sub-space diagonalisation
    after iterative eigenvector-optimisation
 modified Broyden-mixing scheme, WC =      100.0
 initial mixing is a Kerker type mixing with AMIX =  0.4000 and BMIX =      1.0000
 Hartree-type preconditioning will be used
 using additional bands            12
 reciprocal scheme for non local part
 use partial core corrections
 calculate Harris-corrections to forces 
   (improved forces if not selfconsistent)
 use gradient corrections 
 use of overlap-Matrix (Vanderbilt PP)
 Gauss-broadening in eV      SIGMA  =   0.05


--------------------------------------------------------------------------------------------------------


  energy-cutoff  :      360.00
  volume of cell :      184.86
      direct lattice vectors                 reciprocal lattice vectors
     3.858100176  0.000000000  0.000000000     0.259194929  0.000000000  0.000000000
     0.000000000  4.526575088  0.000000000     0.000000000  0.220917577  0.000000000
     0.000000000  0.000000000 10.585176468     0.000000000  0.000000000  0.094471736

  length of vectors
     3.858100176  4.526575088 10.585176468     0.259194929  0.220917577  0.094471736


 
 k-points in units of 2pi/SCALE and weight: KPOINTS created by Atomic Simulation Env
   0.00000000  0.00000000  0.00000000       0.014
   0.04319915  0.00000000  0.00000000       0.028
   0.08639831  0.00000000  0.00000000       0.028
   0.12959746  0.00000000  0.00000000       0.014
   0.00000000  0.03681960  0.00000000       0.028
   0.04319915  0.03681960  0.00000000       0.028
   0.04319915 -0.03681960  0.00000000       0.028
   0.08639831  0.03681960  0.00000000       0.028
   0.08639831 -0.03681960  0.00000000       0.028
   0.12959746  0.03681960  0.00000000       0.028
   0.00000000  0.07363919  0.00000000       0.028
   0.04319915  0.07363919  0.00000000       0.028
   0.04319915 -0.07363919  0.00000000       0.028
   0.08639831  0.07363919  0.00000000       0.028
   0.08639831 -0.07363919  0.00000000       0.028
   0.12959746  0.07363919  0.00000000       0.028
   0.00000000  0.11045879  0.00000000       0.014
   0.04319915  0.11045879  0.00000000       0.028
   0.08639831  0.11045879  0.00000000       0.028
   0.12959746  0.11045879  0.00000000       0.014
   0.00000000  0.00000000  0.04723587       0.014
   0.04319915  0.00000000  0.04723587       0.028
   0.08639831  0.00000000  0.04723587       0.028
   0.12959746  0.00000000  0.04723587       0.014
   0.00000000  0.03681960  0.04723587       0.028
   0.04319915  0.03681960  0.04723587       0.028
   0.04319915 -0.03681960  0.04723587       0.028
   0.08639831  0.03681960  0.04723587       0.028
   0.08639831 -0.03681960  0.04723587       0.028
   0.12959746  0.03681960  0.04723587       0.028
   0.00000000  0.07363919  0.04723587       0.028
   0.04319915  0.07363919  0.04723587       0.028
   0.04319915 -0.07363919  0.04723587       0.028
   0.08639831  0.07363919  0.04723587       0.028
   0.08639831 -0.07363919  0.04723587       0.028
   0.12959746  0.07363919  0.04723587       0.028
   0.00000000  0.11045879  0.04723587       0.014
   0.04319915  0.11045879  0.04723587       0.028
   0.08639831  0.11045879  0.04723587       0.028
   0.12959746  0.11045879  0.04723587       0.014
 
 k-points in reciprocal lattice and weights: KPOINTS created by Atomic Simulation Env
   0.00000000  0.00000000  0.00000000       0.014
   0.16666667  0.00000000  0.00000000       0.028
   0.33333333  0.00000000  0.00000000       0.028
   0.50000000  0.00000000  0.00000000       0.014
   0.00000000  0.16666667  0.00000000       0.028
   0.16666667  0.16666667  0.00000000       0.028
   0.16666667 -0.16666667  0.00000000       0.028
   0.33333333  0.16666667  0.00000000       0.028
   0.33333333 -0.16666667  0.00000000       0.028
   0.50000000  0.16666667  0.00000000       0.028
   0.00000000  0.33333333  0.00000000       0.028
   0.16666667  0.33333333  0.00000000       0.028
   0.16666667 -0.33333333  0.00000000       0.028
   0.33333333  0.33333333  0.00000000       0.028
   0.33333333 -0.33333333  0.00000000       0.028
   0.50000000  0.33333333  0.00000000       0.028
   0.00000000  0.50000000  0.00000000       0.014
   0.16666667  0.50000000  0.00000000       0.028
   0.33333333  0.50000000  0.00000000       0.028
   0.50000000  0.50000000  0.00000000       0.014
   0.00000000  0.00000000  0.50000000       0.014
   0.16666667  0.00000000  0.50000000       0.028
   0.33333333  0.00000000  0.50000000       0.028
   0.50000000  0.00000000  0.50000000       0.014
   0.00000000  0.16666667  0.50000000       0.028
   0.16666667  0.16666667  0.50000000       0.028
   0.16666667 -0.16666667  0.50000000       0.028
   0.33333333  0.16666667  0.50000000       0.028
   0.33333333 -0.16666667  0.50000000       0.028
   0.50000000  0.16666667  0.50000000       0.028
   0.00000000  0.33333333  0.50000000       0.028
   0.16666667  0.33333333  0.50000000       0.028
   0.16666667 -0.33333333  0.50000000       0.028
   0.33333333  0.33333333  0.50000000       0.028
   0.33333333 -0.33333333  0.50000000       0.028
   0.50000000  0.33333333  0.50000000       0.028
   0.00000000  0.50000000  0.50000000       0.014
   0.16666667  0.50000000  0.50000000       0.028
   0.33333333  0.50000000  0.50000000       0.028
   0.50000000  0.50000000  0.50000000       0.014
 
 position of ions in fractional coordinates (direct lattice) 
   0.96014464  0.84383380  0.11629323
   0.46014468  0.34383383  0.38370666
   0.74999953  0.88080355  0.88370670
   0.24999891  0.38080359  0.61629330
   0.96014471  0.71957889  0.35452175
   0.46014459  0.21957899  0.14547826
   0.74999912  0.00505836  0.64547820
   0.24999942  0.50505845  0.85452174
 
 position of ions in cartesian coordinates  (Angst):
   3.70433419  3.81967708  1.23098441
   1.77528429  1.55638965  4.06160274
   2.89357331  3.98702340  9.35419135
   0.96452085  1.72373604  6.52357335
   3.70433447  3.25722788  3.75267533
   1.77528391  0.99394080  1.53991301
   2.89357173  0.02289706  6.83250071
   0.96452282  2.28618498  9.04526339
 


--------------------------------------------------------------------------------------------------------


 k-point   1 :   0.0000 0.0000 0.0000  plane waves:    2825
 k-point   2 :   0.1667 0.0000 0.0000  plane waves:    2856
 k-point   3 :   0.3333 0.0000 0.0000  plane waves:    2864
 k-point   4 :   0.5000 0.0000 0.0000  plane waves:    2880
 k-point   5 :   0.0000 0.1667 0.0000  plane waves:    2850
 k-point   6 :   0.1667 0.1667 0.0000  plane waves:    2853
 k-point   7 :   0.1667-0.1667 0.0000  plane waves:    2853
 k-point   8 :   0.3333 0.1667 0.0000  plane waves:    2873
 k-point   9 :   0.3333-0.1667 0.0000  plane waves:    2873
 k-point  10 :   0.5000 0.1667 0.0000  plane waves:    2866
 k-point  11 :   0.0000 0.3333 0.0000  plane waves:    2864
 k-point  12 :   0.1667 0.3333 0.0000  plane waves:    2871
 k-point  13 :   0.1667-0.3333 0.0000  plane waves:    2871
 k-point  14 :   0.3333 0.3333 0.0000  plane waves:    2883
 k-point  15 :   0.3333-0.3333 0.0000  plane waves:    2883
 k-point  16 :   0.5000 0.3333 0.0000  plane waves:    2880
 k-point  17 :   0.0000 0.5000 0.0000  plane waves:    2874
 k-point  18 :   0.1667 0.5000 0.0000  plane waves:    2880
 k-point  19 :   0.3333 0.5000 0.0000  plane waves:    2888
 k-point  20 :   0.5000 0.5000 0.0000  plane waves:    2896
 k-point  21 :   0.0000 0.0000 0.5000  plane waves:    2828
 k-point  22 :   0.1667 0.0000 0.5000  plane waves:    2838
 k-point  23 :   0.3333 0.0000 0.5000  plane waves:    2868
 k-point  24 :   0.5000 0.0000 0.5000  plane waves:    2852
 k-point  25 :   0.0000 0.1667 0.5000  plane waves:    2846
 k-point  26 :   0.1667 0.1667 0.5000  plane waves:    2868
 k-point  27 :   0.1667-0.1667 0.5000  plane waves:    2868
 k-point  28 :   0.3333 0.1667 0.5000  plane waves:    2866
 k-point  29 :   0.3333-0.1667 0.5000  plane waves:    2866
 k-point  30 :   0.5000 0.1667 0.5000  plane waves:    2884
 k-point  31 :   0.0000 0.3333 0.5000  plane waves:    2852
 k-point  32 :   0.1667 0.3333 0.5000  plane waves:    2862
 k-point  33 :   0.1667-0.3333 0.5000  plane waves:    2862
 k-point  34 :   0.3333 0.3333 0.5000  plane waves:    2874
 k-point  35 :   0.3333-0.3333 0.5000  plane waves:    2874
 k-point  36 :   0.5000 0.3333 0.5000  plane waves:    2892
 k-point  37 :   0.0000 0.5000 0.5000  plane waves:    2872
 k-point  38 :   0.1667 0.5000 0.5000  plane waves:    2856
 k-point  39 :   0.3333 0.5000 0.5000  plane waves:    2876
 k-point  40 :   0.5000 0.5000 0.5000  plane waves:    2872

 maximum and minimum number of plane-waves per node :       592      553

 maximum number of plane-waves:      2896
 maximum index in each direction: 
   IXMAX=    5   IYMAX=    7   IZMAX=   16
   IXMIN=   -6   IYMIN=   -7   IZMIN=  -16


 parallel 3D FFT for wavefunctions:
    minimum data exchange during FFTs selected (reduces bandwidth)
 parallel 3D FFT for charge:
    minimum data exchange during FFTs selected (reduces bandwidth)


 total amount of memory used by VASP MPI-rank0    36587. kBytes
=======================================================================

   base      :      30000. kBytes
   nonl-proj :       5001. kBytes
   fftplans  :        306. kBytes
   grid      :        466. kBytes
   one-center:         16. kBytes
   wavefun   :        798. kBytes
 
     INWAV:  cpu time      0.0000: real time      0.0001
 Broyden mixing: mesh for mixing (old mesh)
   NGX = 11   NGY = 15   NGZ = 33
  (NGX  = 36   NGY  = 48   NGZ  =100)
  gives a total of   5445 points

 initial charge density was supplied:
 charge density of overlapping atoms calculated
 number of electron      40.0000000 magnetization 
 keeping initial charge density in first step


--------------------------------------------------------------------------------------------------------


 Maximum index for augmentation-charges           422 (set IRDMAX)


--------------------------------------------------------------------------------------------------------


 First call to EWALD:  gamma=   0.311
 Maximum number of real-space cells 4x 3x 2
 Maximum number of reciprocal cells 2x 2x 5

    FEWALD:  cpu time      0.0018: real time      0.0018


--------------------------------------- Ionic step        1  -------------------------------------------




--------------------------------------- Iteration      1(   1)  ---------------------------------------


    POTLOK:  cpu time      0.0079: real time      0.0080
    SETDIJ:  cpu time      0.2182: real time      0.2188
     EDDAV:  cpu time      0.3048: real time      0.3062
       DOS:  cpu time      0.0011: real time      0.0011
    --------------------------------------------
      LOOP:  cpu time      0.5321: real time      0.5341

 eigenvalue-minimisations  :  2560
 total energy-change (2. order) : 0.1295557E+03  (-0.1298145E+04)
 number of electron      40.0000000 magnetization 
 augmentation part       40.0000000 magnetization 

 Free energy of the ion-electron system (eV)
  ---------------------------------------------------
  alpha Z        PSCENC =        91.66130333
  Ewald energy   TEWEN  =     -1446.52239473
  -Hartree energ DENC   =      -115.76130121
  -exchange      EXHF   =         0.00000000
  -V(xc)+E(xc)   XCENC  =       -32.67213610
  PAW double counting   =      1193.78262552    -1080.73714043
  entropy T*S    EENTRO =        -0.00394671
  eigenvalues    EBANDS =        71.32411805
  atomic energy  EATOM  =      1448.48460880
  Solvation  Ediel_sol  =         0.00000000
  ---------------------------------------------------
  free energy    TOTEN  =       129.55573652 eV

  energy without entropy =      129.55968323  energy(sigma->0) =      129.55770987


--------------------------------------------------------------------------------------------------------




--------------------------------------- Iteration      1(   2)  ---------------------------------------


     EDDAV:  cpu time      0.4276: real time      0.4314
       DOS:  cpu time      0.0007: real time      0.0007
    --------------------------------------------
      LOOP:  cpu time      0.4283: real time      0.4321

 eigenvalue-minimisations  :  3760
 total energy-change (2. order) :-0.1547056E+03  (-0.1506177E+03)
 number of electron      40.0000000 magnetization 
 augmentation part       40.0000000 magnetization 

 Free energy of the ion-electron system (eV)
  ---------------------------------------------------
  alpha Z        PSCENC =        91.66130333
  Ewald energy   TEWEN  =     -1446.52239473
  -Hartree energ DENC   =      -115.76130121
  -exchange      EXHF   =         0.00000000
  -V(xc)+E(xc)   XCENC  =       -32.67213610
  PAW double counting   =      1193.78262552    -1080.73714043
  entropy T*S    EENTRO =        -0.00000001
  eigenvalues    EBANDS =       -83.38542783
  atomic energy  EATOM  =      1448.48460880
  Solvation  Ediel_sol  =         0.00000000
  ---------------------------------------------------
  free energy    TOTEN  =       -25.14986267 eV

  energy without entropy =      -25.14986266  energy(sigma->0) =      -25.14986266


--------------------------------------------------------------------------------------------------------




--------------------------------------- Iteration      1(   3)  ---------------------------------------


     EDDAV:  cpu time      0.3552: real time      0.3567
       DOS:  cpu time      0.0006: real time      0.0006
    --------------------------------------------
      LOOP:  cpu time      0.3558: real time      0.3573

 eigenvalue-minimisations  :  3088
 total energy-change (2. order) :-0.8113702E+01  (-0.8100482E+01)
 number of electron      40.0000000 magnetization 
 augmentation part       40.0000000 magnetization 

 Free energy of the ion-electron system (eV)
  ---------------------------------------------------
  alpha Z        PSCENC =        91.66130333
  Ewald energy   TEWEN  =     -1446.52239473
  -Hartree energ DENC   =      -115.76130121
  -exchange      EXHF   =         0.00000000
  -V(xc)+E(xc)   XCENC  =       -32.67213610
  PAW double counting   =      1193.78262552    -1080.73714043
  entropy T*S    EENTRO =        -0.00000000
  eigenvalues    EBANDS =       -91.49912963
  atomic energy  EATOM  =      1448.48460880
  Solvation  Ediel_sol  =         0.00000000
  ---------------------------------------------------
  free energy    TOTEN  =       -33.26356446 eV

  energy without entropy =      -33.26356445  energy(sigma->0) =      -33.26356445


--------------------------------------------------------------------------------------------------------




--------------------------------------- Iteration      1(   4)  ---------------------------------------


     EDDAV:  cpu time      0.4240: real time      0.4258
       DOS:  cpu time      0.0008: real time      0.0008
    --------------------------------------------
      LOOP:  cpu time      0.4247: real time      0.4265

 eigenvalue-minimisations  :  3568
 total energy-change (2. order) :-0.5348670E-01  (-0.5347851E-01)
 number of electron      40.0000000 magnetization 
 augmentation part       40.0000000 magnetization 

 Free energy of the ion-electron system (eV)
  ---------------------------------------------------
  alpha Z        PSCENC =        91.66130333
  Ewald energy   TEWEN  =     -1446.52239473
  -Hartree energ DENC   =      -115.76130121
  -exchange      EXHF   =         0.00000000
  -V(xc)+E(xc)   XCENC  =       -32.67213610
  PAW double counting   =      1193.78262552    -1080.73714043
  entropy T*S    EENTRO =        -0.00000000
  eigenvalues    EBANDS =       -91.55261632
  atomic energy  EATOM  =      1448.48460880
  Solvation  Ediel_sol  =         0.00000000
  ---------------------------------------------------
  free energy    TOTEN  =       -33.31705115 eV

  energy without entropy =      -33.31705115  energy(sigma->0) =      -33.31705115


--------------------------------------------------------------------------------------------------------




--------------------------------------- Iteration      1(   5)  ---------------------------------------


     EDDAV:  cpu time      0.3814: real time      0.3837
       DOS:  cpu time      0.0007: real time      0.0007
    CHARGE:  cpu time      0.0058: real time      0.0058
    MIXING:  cpu time      0.0004: real time      0.0004
    --------------------------------------------
      LOOP:  cpu time      0.3882: real time      0.3906

 eigenvalue-minimisations  :  3136
 total energy-change (2. order) :-0.3322260E-03  (-0.3322232E-03)
 number of electron      40.0000027 magnetization 
 augmentation part       -7.4002040 magnetization 

 Broyden mixing:
  rms(total) = 0.68130E+00    rms(broyden)= 0.68129E+00
  rms(prec ) = 0.75670E+00
  weight for this iteration     100.00

 Free energy of the ion-electron system (eV)
  ---------------------------------------------------
  alpha Z        PSCENC =        91.66130333
  Ewald energy   TEWEN  =     -1446.52239473
  -Hartree energ DENC   =      -115.76130121
  -exchange      EXHF   =         0.00000000
  -V(xc)+E(xc)   XCENC  =       -32.67213610
  PAW double counting   =      1193.78262552    -1080.73714043
  entropy T*S    EENTRO =        -0.00000000
  eigenvalues    EBANDS =       -91.55294855
  atomic energy  EATOM  =      1448.48460880
  Solvation  Ediel_sol  =         0.00000000
  ---------------------------------------------------
  free energy    TOTEN  =       -33.31738338 eV

  energy without entropy =      -33.31738338  energy(sigma->0) =      -33.31738338


--------------------------------------------------------------------------------------------------------




--------------------------------------- Iteration      1(   6)  ---------------------------------------


    POTLOK:  cpu time      0.0080: real time      0.0081
    SETDIJ:  cpu time      0.2172: real time      0.2178
     EDDAV:  cpu time      0.4275: real time      0.4295
       DOS:  cpu time      0.0569: real time      0.0571
    CHARGE:  cpu time      0.0052: real time      0.0052
    MIXING:  cpu time      0.0004: real time      0.0004
    --------------------------------------------
      LOOP:  cpu time      0.7153: real time      0.7180

 eigenvalue-minimisations  :  3232
 total energy-change (2. order) : 0.3118939E+00  (-0.5698872E-01)
 number of electron      40.0000027 magnetization 
 augmentation part       -7.3551610 magnetization 

 Broyden mixing:
  rms(total) = 0.43055E+00    rms(broyden)= 0.43055E+00
  rms(prec ) = 0.45350E+00
  weight for this iteration     100.00

 eigenvalues of (default mixing * dielectric matrix)
  average eigenvalue GAMMA=   2.3619
  2.3619

 Free energy of the ion-electron system (eV)
  ---------------------------------------------------
  alpha Z        PSCENC =        91.66130333
  Ewald energy   TEWEN  =     -1446.52239473
  -Hartree energ DENC   =      -121.12366809
  -exchange      EXHF   =         0.00000000
  -V(xc)+E(xc)   XCENC  =       -32.08353050
  PAW double counting   =      1485.46761622    -1372.77364592
  entropy T*S    EENTRO =        -0.00000441
  eigenvalues    EBANDS =       -86.11577413
  atomic energy  EATOM  =      1448.48460880
  Solvation  Ediel_sol  =         0.00000000
  ---------------------------------------------------
  free energy    TOTEN  =       -33.00548945 eV

  energy without entropy =      -33.00548504  energy(sigma->0) =      -33.00548724


--------------------------------------------------------------------------------------------------------




--------------------------------------- Iteration      1(   7)  ---------------------------------------


    POTLOK:  cpu time      0.0088: real time      0.0089
    SETDIJ:  cpu time      0.2152: real time      0.2181
     EDDAV:  cpu time      0.3838: real time      0.3854
       DOS:  cpu time      0.0009: real time      0.0009
    CHARGE:  cpu time      0.0052: real time      0.0052
    MIXING:  cpu time      0.0004: real time      0.0004
    --------------------------------------------
      LOOP:  cpu time      0.6143: real time      0.6189

 eigenvalue-minimisations  :  3072
 total energy-change (2. order) : 0.2548758E-01  (-0.2115827E-01)
 number of electron      40.0000027 magnetization 
 augmentation part       -7.3354598 magnetization 

 Broyden mixing:
  rms(total) = 0.10776E+00    rms(broyden)= 0.10775E+00
  rms(prec ) = 0.11588E+00
  weight for this iteration     100.00

 eigenvalues of (default mixing * dielectric matrix)
  average eigenvalue GAMMA=   1.7936
  1.1816  2.4057

 Free energy of the ion-electron system (eV)
  ---------------------------------------------------
  alpha Z        PSCENC =        91.66130333
  Ewald energy   TEWEN  =     -1446.52239473
  -Hartree energ DENC   =      -124.42087118
  -exchange      EXHF   =         0.00000000
  -V(xc)+E(xc)   XCENC  =       -31.54347208
  PAW double counting   =      1887.12301507    -1774.74563812
  entropy T*S    EENTRO =        -0.00002190
  eigenvalues    EBANDS =       -83.01653106
  atomic energy  EATOM  =      1448.48460880
  Solvation  Ediel_sol  =         0.00000000
  ---------------------------------------------------
  free energy    TOTEN  =       -32.98000187 eV

  energy without entropy =      -32.97997997  energy(sigma->0) =      -32.97999092


--------------------------------------------------------------------------------------------------------




--------------------------------------- Iteration      1(   8)  ---------------------------------------


    POTLOK:  cpu time      0.0074: real time      0.0076
    SETDIJ:  cpu time      0.2179: real time      0.2184
     EDDAV:  cpu time      0.3778: real time      0.3799
       DOS:  cpu time      0.0009: real time      0.0009
    CHARGE:  cpu time      0.0055: real time      0.0055
    MIXING:  cpu time      0.0005: real time      0.0005
    --------------------------------------------
      LOOP:  cpu time      0.6100: real time      0.6127

 eigenvalue-minimisations  :  3168
 total energy-change (2. order) : 0.1142443E-02  (-0.1740623E-02)
 number of electron      40.0000027 magnetization 
 augmentation part       -7.3411616 magnetization 

 Broyden mixing:
  rms(total) = 0.18329E-01    rms(broyden)= 0.18329E-01
  rms(prec ) = 0.21833E-01
  weight for this iteration     100.00

 eigenvalues of (default mixing * dielectric matrix)
  average eigenvalue GAMMA=   1.7227
  2.5170  1.2781  1.3731

 Free energy of the ion-electron system (eV)
  ---------------------------------------------------
  alpha Z        PSCENC =        91.66130333
  Ewald energy   TEWEN  =     -1446.52239473
  -Hartree energ DENC   =      -124.56064740
  -exchange      EXHF   =         0.00000000
  -V(xc)+E(xc)   XCENC  =       -31.42889374
  PAW double counting   =      2008.08608795    -1895.76716422
  entropy T*S    EENTRO =        -0.00001169
  eigenvalues    EBANDS =       -82.93174772
  atomic energy  EATOM  =      1448.48460880
  Solvation  Ediel_sol  =         0.00000000
  ---------------------------------------------------
  free energy    TOTEN  =       -32.97885943 eV

  energy without entropy =      -32.97884774  energy(sigma->0) =      -32.97885358


--------------------------------------------------------------------------------------------------------




--------------------------------------- Iteration      1(   9)  ---------------------------------------


    POTLOK:  cpu time      0.0074: real time      0.0075
    SETDIJ:  cpu time      0.2161: real time      0.2166
     EDDAV:  cpu time      0.3880: real time      0.3896
       DOS:  cpu time      0.0010: real time      0.0010
    CHARGE:  cpu time      0.0052: real time      0.0052
    MIXING:  cpu time      0.0005: real time      0.0005
    --------------------------------------------
      LOOP:  cpu time      0.6181: real time      0.6203

 eigenvalue-minimisations  :  3408
 total energy-change (2. order) :-0.3202011E-03  (-0.2891710E-03)
 number of electron      40.0000027 magnetization 
 augmentation part       -7.3415547 magnetization 

 Broyden mixing:
  rms(total) = 0.62578E-02    rms(broyden)= 0.62578E-02
  rms(prec ) = 0.69587E-02
  weight for this iteration     100.00

 eigenvalues of (default mixing * dielectric matrix)
  average eigenvalue GAMMA=   1.6829
  2.2676  2.0939  1.1851  1.1851

 Free energy of the ion-electron system (eV)
  ---------------------------------------------------
  alpha Z        PSCENC =        91.66130333
  Ewald energy   TEWEN  =     -1446.52239473
  -Hartree energ DENC   =      -124.74664518
  -exchange      EXHF   =         0.00000000
  -V(xc)+E(xc)   XCENC  =       -31.39563870
  PAW double counting   =      2022.84968157    -1910.53726438
  entropy T*S    EENTRO =        -0.00001272
  eigenvalues    EBANDS =       -82.77281761
  atomic energy  EATOM  =      1448.48460880
  Solvation  Ediel_sol  =         0.00000000
  ---------------------------------------------------
  free energy    TOTEN  =       -32.97917963 eV

  energy without entropy =      -32.97916691  energy(sigma->0) =      -32.97917327


--------------------------------------------------------------------------------------------------------




--------------------------------------- Iteration      1(  10)  ---------------------------------------


    POTLOK:  cpu time      0.0074: real time      0.0075
    SETDIJ:  cpu time      0.2201: real time      0.2208
     EDDAV:  cpu time      0.3989: real time      0.4007
       DOS:  cpu time      0.0009: real time      0.0009
    CHARGE:  cpu time      0.0051: real time      0.0051
    MIXING:  cpu time      0.0005: real time      0.0005
    --------------------------------------------
      LOOP:  cpu time      0.6329: real time      0.6355

 eigenvalue-minimisations  :  3504
 total energy-change (2. order) :-0.8131075E-04  (-0.2091278E-04)
 number of electron      40.0000027 magnetization 
 augmentation part       -7.3416952 magnetization 

 Broyden mixing:
  rms(total) = 0.23595E-02    rms(broyden)= 0.23595E-02
  rms(prec ) = 0.29608E-02
  weight for this iteration     100.00

 eigenvalues of (default mixing * dielectric matrix)
  average eigenvalue GAMMA=   1.7341
  2.5781  2.3122  1.1200  1.3301  1.3301

 Free energy of the ion-electron system (eV)
  ---------------------------------------------------
  alpha Z        PSCENC =        91.66130333
  Ewald energy   TEWEN  =     -1446.52239473
  -Hartree energ DENC   =      -124.77160252
  -exchange      EXHF   =         0.00000000
  -V(xc)+E(xc)   XCENC  =       -31.39275822
  PAW double counting   =      2017.11174153    -1904.79473905
  entropy T*S    EENTRO =        -0.00001257
  eigenvalues    EBANDS =       -82.75540749
  atomic energy  EATOM  =      1448.48460880
  Solvation  Ediel_sol  =         0.00000000
  ---------------------------------------------------
  free energy    TOTEN  =       -32.97926094 eV

  energy without entropy =      -32.97924837  energy(sigma->0) =      -32.97925465


--------------------------------------------------------------------------------------------------------




--------------------------------------- Iteration      1(  11)  ---------------------------------------


    POTLOK:  cpu time      0.0074: real time      0.0076
    SETDIJ:  cpu time      0.2174: real time      0.2179
     EDDAV:  cpu time      0.3506: real time      0.3528
       DOS:  cpu time      0.0009: real time      0.0009
    CHARGE:  cpu time      0.0051: real time      0.0051
    MIXING:  cpu time      0.0005: real time      0.0005
    --------------------------------------------
      LOOP:  cpu time      0.5820: real time      0.5847

 eigenvalue-minimisations  :  2992
 total energy-change (2. order) :-0.3260234E-04  (-0.3973414E-05)
 number of electron      40.0000027 magnetization 
 augmentation part       -7.3417295 magnetization 

 Broyden mixing:
  rms(total) = 0.10638E-02    rms(broyden)= 0.10638E-02
  rms(prec ) = 0.11879E-02
  weight for this iteration     100.00

 eigenvalues of (default mixing * dielectric matrix)
  average eigenvalue GAMMA=   1.7200
  2.6165  2.3867  1.9333  1.2320  1.2320  0.9195

 Free energy of the ion-electron system (eV)
  ---------------------------------------------------
  alpha Z        PSCENC =        91.66130333
  Ewald energy   TEWEN  =     -1446.52239473
  -Hartree energ DENC   =      -124.80841577
  -exchange      EXHF   =         0.00000000
  -V(xc)+E(xc)   XCENC  =       -31.38615994
  PAW double counting   =      2018.08357337    -1905.76666841
  entropy T*S    EENTRO =        -0.00001223
  eigenvalues    EBANDS =       -82.72512797
  atomic energy  EATOM  =      1448.48460880
  Solvation  Ediel_sol  =         0.00000000
  ---------------------------------------------------
  free energy    TOTEN  =       -32.97929354 eV

  energy without entropy =      -32.97928131  energy(sigma->0) =      -32.97928743


--------------------------------------------------------------------------------------------------------




--------------------------------------- Iteration      1(  12)  ---------------------------------------


    POTLOK:  cpu time      0.0073: real time      0.0074
    SETDIJ:  cpu time      0.2170: real time      0.2176
     EDDAV:  cpu time      0.4441: real time      0.4463
       DOS:  cpu time      0.0010: real time      0.0010
    CHARGE:  cpu time      0.0053: real time      0.0053
    MIXING:  cpu time      0.0006: real time      0.0006
    --------------------------------------------
      LOOP:  cpu time      0.6752: real time      0.6781

 eigenvalue-minimisations  :  3680
 total energy-change (2. order) :-0.1502596E-05  (-0.4830411E-06)
 number of electron      40.0000027 magnetization 
 augmentation part       -7.3416078 magnetization 

 Broyden mixing:
  rms(total) = 0.31150E-03    rms(broyden)= 0.31150E-03
  rms(prec ) = 0.35293E-03
  weight for this iteration     100.00

 eigenvalues of (default mixing * dielectric matrix)
  average eigenvalue GAMMA=   1.7280
  2.9419  2.4825  1.6158  1.6158  0.9958  1.2221  1.2221

 Free energy of the ion-electron system (eV)
  ---------------------------------------------------
  alpha Z        PSCENC =        91.66130333
  Ewald energy   TEWEN  =     -1446.52239473
  -Hartree energ DENC   =      -124.82498676
  -exchange      EXHF   =         0.00000000
  -V(xc)+E(xc)   XCENC  =       -31.38492548
  PAW double counting   =      2017.37244306    -1905.05529151
  entropy T*S    EENTRO =        -0.00001227
  eigenvalues    EBANDS =       -82.71003947
  atomic energy  EATOM  =      1448.48460880
  Solvation  Ediel_sol  =         0.00000000
  ---------------------------------------------------
  free energy    TOTEN  =       -32.97929504 eV

  energy without entropy =      -32.97928277  energy(sigma->0) =      -32.97928891


--------------------------------------------------------------------------------------------------------




--------------------------------------- Iteration      1(  13)  ---------------------------------------


    POTLOK:  cpu time      0.0073: real time      0.0074
    SETDIJ:  cpu time      0.2178: real time      0.2183
     EDDAV:  cpu time      0.2910: real time      0.2927
       DOS:  cpu time      0.0009: real time      0.0009
    --------------------------------------------
      LOOP:  cpu time      0.5170: real time      0.5193

 eigenvalue-minimisations  :  1920
 total energy-change (2. order) :-0.1546281E-06  (-0.7675645E-07)
 number of electron      40.0000027 magnetization 
 augmentation part       -7.3416078 magnetization 

 Free energy of the ion-electron system (eV)
  ---------------------------------------------------
  alpha Z        PSCENC =        91.66130333
  Ewald energy   TEWEN  =     -1446.52239473
  -Hartree energ DENC   =      -124.82845419
  -exchange      EXHF   =         0.00000000
  -V(xc)+E(xc)   XCENC  =       -31.38453961
  PAW double counting   =      2017.13989112    -1904.82253946
  entropy T*S    EENTRO =        -0.00001223
  eigenvalues    EBANDS =       -82.70715823
  atomic energy  EATOM  =      1448.48460880
  Solvation  Ediel_sol  =         0.00000000
  ---------------------------------------------------
  free energy    TOTEN  =       -32.97929520 eV

  energy without entropy =      -32.97928297  energy(sigma->0) =      -32.97928908


--------------------------------------------------------------------------------------------------------




 average (electrostatic) potential at core
  the test charge radii are     1.1631  1.0808
  (the norm of the test charge is              1.0000)
       1 -33.0747       2 -33.0747       3 -33.0746       4 -33.0746       5 -54.6156
       6 -54.6156       7 -54.6156       8 -54.6156
 
 
 
 E-fermi :   4.2638     XC(G=0):  -9.4737     alpha+bet : -9.1315

 Fermi energy:         4.2637509835

 k-point     1 :       0.0000    0.0000    0.0000
  band No.  band energies     occupation 
      1     -10.7637      2.00000
      2     -10.2803      2.00000
      3      -9.4784      2.00000
      4      -8.8109      2.00000
      5      -5.0903      2.00000
      6      -3.5027      2.00000
      7      -3.4532      2.00000
      8      -1.5545      2.00000
      9      -1.3871      2.00000
     10      -0.0974      2.00000
     11       0.2986      2.00000
     12       0.4568      2.00000
     13       0.5181      2.00000
     14       0.5965      2.00000
     15       1.8360      2.00000
     16       1.8564      2.00000
     17       2.1211      2.00000
     18       2.4277      2.00000
     19       3.1190      2.00000
     20       3.5501      2.00000
     21       4.4001      0.00012
     22       5.7131      0.00000
     23       5.9442      0.00000
     24       6.0888      0.00000
     25       6.5773      0.00000
     26       7.0809      0.00000
     27       7.1724      0.00000
     28       8.3203      0.00000
     29       8.3571      0.00000
     30       9.0799      0.00000
     31       9.5419      0.00000
     32      10.2700      0.00000

 k-point     2 :       0.1667    0.0000    0.0000
  band No.  band energies     occupation 
      1     -10.5690      2.00000
      2     -10.1030      2.00000
      3      -9.3511      2.00000
      4      -8.7574      2.00000
      5      -5.3077      2.00000
      6      -3.7528      2.00000
      7      -3.6865      2.00000
      8      -2.0148      2.00000
      9      -1.3963      2.00000
     10      -0.0773      2.00000
     11       0.2089      2.00000
     12       0.3479      2.00000
     13       0.4915      2.00000
     14       0.6621      2.00000
     15       1.3023      2.00000
     16       1.9154      2.00000
     17       2.1293      2.00000
     18       2.3672      2.00000
     19       3.2715      2.00000
     20       3.5508      2.00000
     21       4.6251      0.00000
     22       5.3139      0.00000
     23       6.2284      0.00000
     24       6.2602      0.00000
     25       6.6789      0.00000
     26       6.8875      0.00000
     27       7.0659      0.00000
     28       8.0746      0.00000
     29       8.2616      0.00000
     30       8.2794      0.00000
     31       9.2283      0.00000
     32       9.4953      0.00000

 k-point     3 :       0.3333    0.0000    0.0000
  band No.  band energies     occupation 
      1     -10.0345      2.00000
      2      -9.6291      2.00000
      3      -9.1402      2.00000
      4      -8.7589      2.00000
      5      -5.7383      2.00000
      6      -4.6595      2.00000
      7      -4.0889      2.00000
      8      -3.0035      2.00000
      9      -1.1550      2.00000
     10      -0.1395      2.00000
     11       0.2335      2.00000
     12       0.7735      2.00000
     13       0.7800      2.00000
     14       1.1707      2.00000
     15       1.1803      2.00000
     16       1.4520      2.00000
     17       1.8212      2.00000
     18       2.3284      2.00000
     19       3.4034      2.00000
     20       3.4145      2.00000
     21       4.3743      0.00176
     22       4.9581      0.00000
     23       5.2816      0.00000
     24       5.5328      0.00000
     25       5.8910      0.00000
     26       5.9951      0.00000
     27       6.4038      0.00000
     28       7.0821      0.00000
     29       7.6392      0.00000
     30       7.7722      0.00000
     31       8.8538      0.00000
     32      10.1333      0.00000

 k-point     4 :       0.5000    0.0000    0.0000
  band No.  band energies     occupation 
      1      -9.3794      2.00000
      2      -9.3794      2.00000
      3      -9.0767      2.00000
      4      -9.0767      2.00000
      5      -5.5889      2.00000
      6      -5.5889      2.00000
      7      -3.9060      2.00000
      8      -3.9060      2.00000
      9      -0.4413      2.00000
     10      -0.4413      2.00000
     11       0.6536      2.00000
     12       0.6536      2.00000
     13       1.1014      2.00000
     14       1.1014      2.00000
     15       1.5431      2.00000
     16       1.5431      2.00000
     17       1.7745      2.00000
     18       1.7745      2.00000
     19       3.2163      2.00000
     20       3.2163      2.00000
     21       4.4543      0.00000
     22       4.4543      0.00000
     23       5.3192      0.00000
     24       5.3192      0.00000
     25       5.5718      0.00000
     26       5.5718      0.00000
     27       6.1971      0.00000
     28       6.1971      0.00000
     29       6.8982      0.00000
     30       6.8982      0.00000
     31       9.2752      0.00000
     32       9.2752      0.00000

 k-point     5 :       0.0000    0.1667    0.0000
  band No.  band energies     occupation 
      1     -10.6379      2.00000
      2     -10.1823      2.00000
      3      -9.4573      2.00000
      4      -8.9200      2.00000
      5      -5.2692      2.00000
      6      -3.9039      2.00000
      7      -3.6653      2.00000
      8      -1.9227      2.00000
      9      -1.4854      2.00000
     10       0.2367      2.00000
     11       0.5843      2.00000
     12       0.6632      2.00000
     13       0.9048      2.00000
     14       0.9184      2.00000
     15       1.7768      2.00000
     16       1.8369      2.00000
     17       2.0124      2.00000
     18       2.6391      2.00000
     19       3.3319      2.00000
     20       3.7281      2.00000
     21       4.6307      0.00000
     22       5.3190      0.00000
     23       5.7770      0.00000
     24       6.1941      0.00000
     25       6.2548      0.00000
     26       6.6119      0.00000
     27       6.9719      0.00000
     28       7.9448      0.00000
     29       8.0927      0.00000
     30       8.5198      0.00000
     31       9.5624      0.00000
     32      10.1825      0.00000

 k-point     6 :       0.1667    0.1667    0.0000
  band No.  band energies     occupation 
      1     -10.4530      2.00000
      2     -10.0063      2.00000
      3      -9.3415      2.00000
      4      -8.8419      2.00000
      5      -5.4279      2.00000
      6      -3.9643      2.00000
      7      -3.7172      2.00000
      8      -2.4267      2.00000
      9      -1.3553      2.00000
     10      -0.4207      2.00000
     11      -0.3386      2.00000
     12       0.5713      2.00000
     13       1.1573      2.00000
     14       1.2210      2.00000
     15       1.5703      2.00000
     16       1.7141      2.00000
     17       1.9068      2.00000
     18       2.5971      2.00000
     19       3.2696      2.00000
     20       3.5322      2.00000
     21       4.8730      0.00000
     22       5.1357      0.00000
     23       5.5159      0.00000
     24       6.1069      0.00000
     25       6.9581      0.00000
     26       7.1711      0.00000
     27       7.1729      0.00000
     28       7.7867      0.00000
     29       7.9335      0.00000
     30       8.1435      0.00000
     31       9.6847      0.00000
     32       9.7521      0.00000

 k-point     7 :       0.1667   -0.1667    0.0000
  band No.  band energies     occupation 
      1     -10.4440      2.00000
      2     -10.0147      2.00000
      3      -9.3261      2.00000
      4      -8.8676      2.00000
      5      -5.3532      2.00000
      6      -4.1136      2.00000
      7      -3.8012      2.00000
      8      -2.1008      2.00000
      9      -1.3541      2.00000
     10      -0.5679      2.00000
     11      -0.0620      2.00000
     12       0.3387      2.00000
     13       0.9877      2.00000
     14       1.3286      2.00000
     15       1.4031      2.00000
     16       1.5942      2.00000
     17       1.8017      2.00000
     18       2.8268      2.00000
     19       3.2837      2.00000
     20       3.8539      2.00000
     21       4.8145      0.00000
     22       5.3247      0.00000
     23       5.7522      0.00000
     24       6.0370      0.00000
     25       6.6086      0.00000
     26       6.6554      0.00000
     27       7.3531      0.00000
     28       7.4319      0.00000
     29       8.2255      0.00000
     30       8.3288      0.00000
     31       8.9362      0.00000
     32      10.1819      0.00000

 k-point     8 :       0.3333    0.1667    0.0000
  band No.  band energies     occupation 
      1      -9.9455      2.00000
      2      -9.5476      2.00000
      3      -9.1389      2.00000
      4      -8.7848      2.00000
      5      -5.7363      2.00000
      6      -4.6123      2.00000
      7      -3.9461      2.00000
      8      -3.2239      2.00000
      9      -1.0565      2.00000
     10      -0.7729      2.00000
     11      -0.5225      2.00000
     12       0.2165      2.00000
     13       0.8907      2.00000
     14       1.2300      2.00000
     15       1.3339      2.00000
     16       1.4569      2.00000
     17       1.8715      2.00000
     18       2.0457      2.00000
     19       3.0277      2.00000
     20       3.4687      2.00000
     21       4.5076      0.00000
     22       5.1190      0.00000
     23       5.4929      0.00000
     24       6.1261      0.00000
     25       6.2044      0.00000
     26       6.2612      0.00000
     27       7.0447      0.00000
     28       7.6792      0.00000
     29       7.8697      0.00000
     30       8.8771      0.00000
     31       9.1658      0.00000
     32       9.6941      0.00000

 k-point     9 :       0.3333   -0.1667    0.0000
  band No.  band energies     occupation 
      1      -9.9247      2.00000
      2      -9.5666      2.00000
      3      -9.1142      2.00000
      4      -8.8273      2.00000
      5      -5.6096      2.00000
      6      -4.7788      2.00000
      7      -4.0879      2.00000
      8      -2.9733      2.00000
      9      -1.0088      2.00000
     10      -0.6939      2.00000
     11      -0.4711      2.00000
     12       0.1611      2.00000
     13       0.6362      2.00000
     14       1.0853      2.00000
     15       1.2949      2.00000
     16       1.4844      2.00000
     17       1.8165      2.00000
     18       2.1325      2.00000
     19       2.9926      2.00000
     20       3.8304      2.00000
     21       4.6613      0.00000
     22       5.2503      0.00000
     23       5.3746      0.00000
     24       5.7303      0.00000
     25       6.5683      0.00000
     26       6.6833      0.00000
     27       6.7657      0.00000
     28       6.9857      0.00000
     29       7.7345      0.00000
     30       8.6304      0.00000
     31       9.0346      0.00000
     32      10.2838      0.00000

 k-point    10 :       0.5000    0.1667    0.0000
  band No.  band energies     occupation 
      1      -9.3387      2.00000
      2      -9.3197      2.00000
      3      -9.0544      2.00000
      4      -9.0433      2.00000
      5      -5.5729      2.00000
      6      -5.4474      2.00000
      7      -3.9433      2.00000
      8      -3.7999      2.00000
      9      -0.5763      2.00000
     10      -0.5068      2.00000
     11       0.0410      2.00000
     12       0.1306      2.00000
     13       0.3303      2.00000
     14       0.7220      2.00000
     15       0.8386      2.00000
     16       0.8587      2.00000
     17       1.9506      2.00000
     18       2.1768      2.00000
     19       3.0572      2.00000
     20       3.7359      2.00000
     21       4.5878      0.00000
     22       4.6113      0.00000
     23       5.5771      0.00000
     24       5.7167      0.00000
     25       6.2596      0.00000
     26       6.3772      0.00000
     27       6.8537      0.00000
     28       7.0701      0.00000
     29       7.7435      0.00000
     30       7.7715      0.00000
     31       8.3146      0.00000
     32       9.6187      0.00000

 k-point    11 :       0.0000    0.3333    0.0000
  band No.  band energies     occupation 
      1     -10.2827      2.00000
      2      -9.9256      2.00000
      3      -9.4664      2.00000
      4      -9.2616      2.00000
      5      -5.4954      2.00000
      6      -4.7127      2.00000
      7      -3.8446      2.00000
      8      -2.8104      2.00000
      9      -1.1692      2.00000
     10       0.4017      2.00000
     11       0.9374      2.00000
     12       1.0091      2.00000
     13       1.5389      2.00000
     14       1.7179      2.00000
     15       1.7735      2.00000
     16       1.9533      2.00000
     17       1.9719      2.00000
     18       3.2930      2.00000
     19       3.5172      2.00000
     20       3.6702      2.00000
     21       4.6097      0.00000
     22       5.1482      0.00000
     23       5.4136      0.00000
     24       5.6856      0.00000
     25       6.0700      0.00000
     26       6.1381      0.00000
     27       6.4531      0.00000
     28       7.2788      0.00000
     29       7.4502      0.00000
     30       7.6299      0.00000
     31       9.7430      0.00000
     32      10.3913      0.00000

 k-point    12 :       0.1667    0.3333    0.0000
  band No.  band energies     occupation 
      1     -10.1207      2.00000
      2      -9.7611      2.00000
      3      -9.3602      2.00000
      4      -9.1431      2.00000
      5      -5.5214      2.00000
      6      -4.6244      2.00000
      7      -3.7463      2.00000
      8      -3.0000      2.00000
      9      -1.0476      2.00000
     10      -0.4372      2.00000
     11      -0.3276      2.00000
     12       0.5079      2.00000
     13       0.6672      2.00000
     14       0.9915      2.00000
     15       1.7298      2.00000
     16       1.9160      2.00000
     17       2.4275      2.00000
     18       2.8228      2.00000
     19       3.4667      2.00000
     20       3.6163      2.00000
     21       4.7758      0.00000
     22       5.4964      0.00000
     23       5.7157      0.00000
     24       6.1279      0.00000
     25       6.5429      0.00000
     26       6.6203      0.00000
     27       6.9389      0.00000
     28       7.8231      0.00000
     29       7.8482      0.00000
     30       8.2069      0.00000
     31       9.8707      0.00000
     32       9.9046      0.00000

 k-point    13 :       0.1667   -0.3333    0.0000
  band No.  band energies     occupation 
      1     -10.1014      2.00000
      2      -9.7789      2.00000
      3      -9.3359      2.00000
      4      -9.1775      2.00000
      5      -5.4280      2.00000
      6      -4.7613      2.00000
      7      -3.8377      2.00000
      8      -2.7965      2.00000
      9      -0.9466      2.00000
     10      -0.6427      2.00000
     11       0.0503      2.00000
     12       0.2789      2.00000
     13       0.4404      2.00000
     14       0.9087      2.00000
     15       1.8929      2.00000
     16       2.0395      2.00000
     17       2.4491      2.00000
     18       2.5470      2.00000
     19       3.3743      2.00000
     20       3.8786      2.00000
     21       5.0515      0.00000
     22       5.5413      0.00000
     23       5.6566      0.00000
     24       6.0224      0.00000
     25       6.4431      0.00000
     26       6.7395      0.00000
     27       7.0968      0.00000
     28       7.1128      0.00000
     29       7.8429      0.00000
     30       8.4817      0.00000
     31       9.1196      0.00000
     32      10.4192      0.00000

 k-point    14 :       0.3333    0.3333    0.0000
  band No.  band energies     occupation 
      1      -9.6885      2.00000
      2      -9.3565      2.00000
      3      -9.1494      2.00000
      4      -8.9441      2.00000
      5      -5.5913      2.00000
      6      -4.7420      2.00000
      7      -3.7117      2.00000
      8      -3.5053      2.00000
      9      -1.2551      2.00000
     10      -1.0080      2.00000
     11      -0.9114      2.00000
     12      -0.4233      2.00000
     13       0.1790      2.00000
     14       0.5586      2.00000
     15       0.8824      2.00000
     16       1.1939      2.00000
     17       1.5097      2.00000
     18       2.0936      2.00000
     19       2.9119      2.00000
     20       3.6565      2.00000
     21       4.7452      0.00000
     22       6.1373      0.00000
     23       6.3015      0.00000
     24       6.5290      0.00000
     25       6.8523      0.00000
     26       7.5358      0.00000
     27       8.1027      0.00000
     28       8.5157      0.00000
     29       8.6466      0.00000
     30       8.7662      0.00000
     31       9.5739      0.00000
     32      10.1609      0.00000

 k-point    15 :       0.3333   -0.3333    0.0000
  band No.  band energies     occupation 
      1      -9.6444      2.00000
      2      -9.3961      2.00000
      3      -9.1296      2.00000
      4      -8.9838      2.00000
      5      -5.3810      2.00000
      6      -5.0006      2.00000
      7      -3.9564      2.00000
      8      -3.1598      2.00000
      9      -1.3030      2.00000
     10      -0.8137      2.00000
     11      -0.7391      2.00000
     12      -0.4637      2.00000
     13       0.1225      2.00000
     14       0.1966      2.00000
     15       0.9170      2.00000
     16       1.0898      2.00000
     17       1.2418      2.00000
     18       2.4402      2.00000
     19       2.8894      2.00000
     20       4.1532      1.99824
     21       4.7264      0.00000
     22       5.9145      0.00000
     23       6.0602      0.00000
     24       6.8483      0.00000
     25       7.1252      0.00000
     26       7.1660      0.00000
     27       7.1856      0.00000
     28       8.2867      0.00000
     29       8.6898      0.00000
     30       9.5294      0.00000
     31       9.7082      0.00000
     32      10.1384      0.00000

 k-point    16 :       0.5000    0.3333    0.0000
  band No.  band energies     occupation 
      1      -9.2402      2.00000
      2      -9.1958      2.00000
      3      -9.0123      2.00000
      4      -8.9822      2.00000
      5      -5.4666      2.00000
      6      -5.2050      2.00000
      7      -3.9666      2.00000
      8      -3.6633      2.00000
      9      -0.9834      2.00000
     10      -0.9073      2.00000
     11      -0.6550      2.00000
     12      -0.5626      2.00000
     13      -0.3129      2.00000
     14      -0.1006      2.00000
     15       0.3580      2.00000
     16       0.6329      2.00000
     17       1.3599      2.00000
     18       1.4525      2.00000
     19       2.6800      2.00000
     20       4.0432      2.00000
     21       5.3868      0.00000
     22       5.4281      0.00000
     23       6.3410      0.00000
     24       6.8248      0.00000
     25       7.3308      0.00000
     26       7.6832      0.00000
     27       7.7935      0.00000
     28       8.1543      0.00000
     29       8.9563      0.00000
     30       9.2219      0.00000
     31       9.6610      0.00000
     32       9.9015      0.00000

 k-point    17 :       0.0000    0.5000    0.0000
  band No.  band energies     occupation 
      1      -9.7759      2.00000
      2      -9.7759      2.00000
      3      -9.6304      2.00000
      4      -9.6304      2.00000
      5      -5.3374      2.00000
      6      -5.3374      2.00000
      7      -3.5508      2.00000
      8      -3.5508      2.00000
      9      -0.4670      2.00000
     10      -0.4670      2.00000
     11       1.4710      2.00000
     12       1.4710      2.00000
     13       1.5208      2.00000
     14       1.5208      2.00000
     15       2.3476      2.00000
     16       2.3476      2.00000
     17       2.6115      2.00000
     18       2.6115      2.00000
     19       3.4387      2.00000
     20       3.4387      2.00000
     21       4.9180      0.00000
     22       4.9180      0.00000
     23       5.4832      0.00000
     24       5.4832      0.00000
     25       5.9576      0.00000
     26       5.9576      0.00000
     27       6.5874      0.00000
     28       6.5874      0.00000
     29       7.0317      0.00000
     30       7.0317      0.00000
     31      10.3229      0.00000
     32      10.3229      0.00000

 k-point    18 :       0.1667    0.5000    0.0000
  band No.  band energies     occupation 
      1      -9.6529      2.00000
      2      -9.6233      2.00000
      3      -9.5073      2.00000
      4      -9.4819      2.00000
      5      -5.3136      2.00000
      6      -5.2127      2.00000
      7      -3.5560      2.00000
      8      -3.4489      2.00000
      9      -0.4433      2.00000
     10      -0.4020      2.00000
     11      -0.1334      2.00000
     12       0.1045      2.00000
     13       0.3890      2.00000
     14       0.4692      2.00000
     15       1.7813      2.00000
     16       2.0898      2.00000
     17       2.4045      2.00000
     18       3.0173      2.00000
     19       3.5692      2.00000
     20       3.8454      2.00000
     21       4.9754      0.00000
     22       5.1966      0.00000
     23       5.9654      0.00000
     24       6.1879      0.00000
     25       6.4373      0.00000
     26       6.7169      0.00000
     27       7.2068      0.00000
     28       7.2704      0.00000
     29       7.8864      0.00000
     30       8.0616      0.00000
     31       9.4034      0.00000
[...]
     32       9.8990      0.00000

 k-point    32 :       0.1667    0.3333    0.5000
  band No.  band energies     occupation 
      1      -9.9778      2.00000
      2      -9.9778      2.00000
      3      -9.2139      2.00000
      4      -9.2139      2.00000
      5      -5.1456      2.00000
      6      -5.1456      2.00000
      7      -3.3892      2.00000
      8      -3.3892      2.00000
      9      -0.5507      2.00000
     10      -0.5507      2.00000
     11       0.1247      2.00000
     12       0.1247      2.00000
     13       0.7441      2.00000
     14       0.7441      2.00000
     15       1.9095      2.00000
     16       1.9095      2.00000
     17       2.4957      2.00000
     18       2.4957      2.00000
     19       3.1833      2.00000
     20       3.1833      2.00000
     21       5.2124      0.00000
     22       5.2124      0.00000
     23       6.1976      0.00000
     24       6.1976      0.00000
     25       6.8966      0.00000
     26       6.8966      0.00000
     27       7.1601      0.00000
     28       7.1601      0.00000
     29       8.1118      0.00000
     30       8.1118      0.00000
     31       9.7111      0.00000
     32       9.7111      0.00000

 k-point    33 :       0.1667   -0.3333    0.5000
  band No.  band energies     occupation 
      1      -9.9686      2.00000
      2      -9.9686      2.00000
      3      -9.2277      2.00000
      4      -9.2277      2.00000
      5      -5.1273      2.00000
      6      -5.1273      2.00000
      7      -3.4206      2.00000
      8      -3.4206      2.00000
      9      -0.6388      2.00000
     10      -0.6388      2.00000
     11       0.4218      2.00000
     12       0.4218      2.00000
     13       0.7933      2.00000
     14       0.7933      2.00000
     15       1.5686      2.00000
     16       1.5686      2.00000
     17       2.6467      2.00000
     18       2.6467      2.00000
     19       3.0244      2.00000
     20       3.0244      2.00000
     21       5.5067      0.00000
     22       5.5067      0.00000
     23       6.0818      0.00000
     24       6.0818      0.00000
     25       6.4171      0.00000
     26       6.4171      0.00000
     27       7.5354      0.00000
     28       7.5354      0.00000
     29       8.2789      0.00000
     30       8.2789      0.00000
     31       9.7349      0.00000
     32       9.7349      0.00000

 k-point    34 :       0.3333    0.3333    0.5000
  band No.  band energies     occupation 
      1      -9.5617      2.00000
      2      -9.5617      2.00000
      3      -9.0097      2.00000
      4      -9.0097      2.00000
      5      -5.2216      2.00000
      6      -5.2216      2.00000
      7      -3.5600      2.00000
      8      -3.5600      2.00000
      9      -1.2482      2.00000
     10      -1.2482      2.00000
     11      -0.5968      2.00000
     12      -0.5968      2.00000
     13       0.5054      2.00000
     14       0.5054      2.00000
     15       1.0375      2.00000
     16       1.0375      2.00000
     17       1.9464      2.00000
     18       1.9464      2.00000
     19       2.7892      2.00000
     20       2.7892      2.00000
     21       5.6046      0.00000
     22       5.6046      0.00000
     23       6.2914      0.00000
     24       6.2914      0.00000
     25       7.3685      0.00000
     26       7.3685      0.00000
     27       8.2965      0.00000
     28       8.2965      0.00000
     29       9.1425      0.00000
     30       9.1425      0.00000
     31       9.7258      0.00000
     32       9.7258      0.00000

 k-point    35 :       0.3333   -0.3333    0.5000
  band No.  band energies     occupation 
      1      -9.5406      2.00000
      2      -9.5406      2.00000
      3      -9.0388      2.00000
      4      -9.0388      2.00000
      5      -5.1784      2.00000
      6      -5.1784      2.00000
      7      -3.6326      2.00000
      8      -3.6326      2.00000
      9      -1.3155      2.00000
     10      -1.3155      2.00000
     11      -0.3189      2.00000
     12      -0.3189      2.00000
     13       0.4496      2.00000
     14       0.4496      2.00000
     15       0.9744      2.00000
     16       0.9744      2.00000
     17       1.9714      2.00000
     18       1.9714      2.00000
     19       2.5727      2.00000
     20       2.5727      2.00000
     21       5.9643      0.00000
     22       5.9644      0.00000
     23       6.2375      0.00000
     24       6.2375      0.00000
     25       7.3649      0.00000
     26       7.3649      0.00000
     27       7.9919      0.00000
     28       7.9919      0.00000
     29       8.9527      0.00000
     30       8.9527      0.00000
     31      10.0323      0.00000
     32      10.0323      0.00000

 k-point    36 :       0.5000    0.3333    0.5000
  band No.  band energies     occupation 
      1      -9.2040      2.00000
      2      -9.2040      2.00000
      3      -9.0152      2.00000
      4      -9.0152      2.00000
      5      -5.3096      2.00000
      6      -5.3096      2.00000
      7      -3.8514      2.00000
      8      -3.8514      2.00000
      9      -1.0622      2.00000
     10      -1.0622      2.00000
     11      -0.7931      2.00000
     12      -0.7931      2.00000
     13       0.1700      2.00000
     14       0.1700      2.00000
     15       0.4992      2.00000
     16       0.4992      2.00000
     17       1.9197      2.00000
     18       1.9197      2.00000
     19       2.3722      2.00000
     20       2.3722      2.00000
     21       5.7804      0.00000
     22       5.7804      0.00000
     23       6.7890      0.00000
     24       6.7890      0.00000
     25       7.2025      0.00000
     26       7.2025      0.00000
     27       8.4763      0.00000
     28       8.4763      0.00000
     29       8.9330      0.00000
     30       8.9330      0.00000
     31       9.6244      0.00000
     32       9.6244      0.00000

 k-point    37 :       0.0000    0.5000    0.5000
  band No.  band energies     occupation 
      1      -9.7154      2.00000
      2      -9.7154      2.00000
      3      -9.6963      2.00000
      4      -9.6963      2.00000
      5      -5.2182      2.00000
      6      -5.2182      2.00000
      7      -3.8303      2.00000
      8      -3.8303      2.00000
      9       0.5004      2.00000
     10       0.5004      2.00000
     11       0.9583      2.00000
     12       0.9583      2.00000
     13       1.4819      2.00000
     14       1.4819      2.00000
     15       1.5865      2.00000
     16       1.5865      2.00000
     17       2.9246      2.00000
     18       2.9246      2.00000
     19       3.4636      2.00000
     20       3.4636      2.00000
     21       4.8247      0.00000
     22       4.8247      0.00000
     23       5.1745      0.00000
     24       5.1745      0.00000
     25       6.3841      0.00000
     26       6.3841      0.00000
     27       6.6342      0.00000
     28       6.6343      0.00000
     29       7.6836      0.00000
     30       7.6836      0.00000
     31       9.8244      0.00000
     32       9.8244      0.00000

 k-point    38 :       0.1667    0.5000    0.5000
  band No.  band energies     occupation 
      1      -9.5921      2.00000
      2      -9.5921      2.00000
      3      -9.5456      2.00000
      4      -9.5456      2.00000
      5      -5.1652      2.00000
      6      -5.1652      2.00000
      7      -3.7256      2.00000
      8      -3.7256      2.00000
      9      -0.2292      2.00000
     10      -0.2292      2.00000
     11       0.0322      2.00000
     12       0.0323      2.00000
     13       0.9975      2.00000
     14       0.9975      2.00000
     15       1.3436      2.00000
     16       1.3436      2.00000
     17       2.5833      2.00000
     18       2.5833      2.00000
     19       3.1627      2.00000
     20       3.1627      2.00000
     21       5.6157      0.00000
     22       5.6157      0.00000
     23       6.0817      0.00000
     24       6.0817      0.00000
     25       6.6022      0.00000
     26       6.6022      0.00000
     27       7.5517      0.00000
     28       7.5517      0.00000
     29       8.0726      0.00000
     30       8.0726      0.00000
     31       9.8052      0.00000
     32       9.8052      0.00000

 k-point    39 :       0.3333    0.5000    0.5000
  band No.  band energies     occupation 
      1      -9.3078      2.00000
      2      -9.3078      2.00000
      3      -9.1991      2.00000
      4      -9.1990      2.00000
      5      -5.1544      2.00000
      6      -5.1544      2.00000
      7      -3.6546      2.00000
      8      -3.6546      2.00000
      9      -1.1825      2.00000
     10      -1.1825      2.00000
     11      -1.0472      2.00000
     12      -1.0472      2.00000
     13       0.5498      2.00000
     14       0.5498      2.00000
     15       0.7908      2.00000
     16       0.7908      2.00000
     17       1.8646      2.00000
     18       1.8646      2.00000
     19       2.4539      2.00000
     20       2.4539      2.00000
     21       5.9437      0.00000
     22       5.9437      0.00000
     23       7.1207      0.00000
     24       7.1207      0.00000
     25       7.5863      0.00000
     26       7.5863      0.00000
     27       8.7648      0.00000
     28       8.7648      0.00000
     29       9.2221      0.00000
     30       9.2221      0.00000
     31       9.8281      0.00000
     32       9.8281      0.00000

 k-point    40 :       0.5000    0.5000    0.5000
  band No.  band energies     occupation 
      1      -9.1431      2.00000
      2      -9.1431      2.00000
      3      -8.9899      2.00000
      4      -8.9899      2.00000
      5      -5.2399      2.00000
      6      -5.2399      2.00000
      7      -3.7782      2.00000
      8      -3.7782      2.00000
      9      -1.2544      2.00000
     10      -1.2544      2.00000
     11      -1.0560      2.00000
     12      -1.0560      2.00000
     13      -0.1570      2.00000
     14      -0.1570      2.00000
     15       0.0726      2.00000
     16       0.0726      2.00000
     17       1.9267      2.00000
     18       1.9267      2.00000
     19       2.4652      2.00000
     20       2.4652      2.00000
     21       5.6322      0.00000
     22       5.6322      0.00000
     23       7.1272      0.00000
     24       7.1272      0.00000
     25       8.1652      0.00000
     26       8.1652      0.00000
     27       9.1010      0.00000
     28       9.1010      0.00000
     29       9.6088      0.00000
     30       9.6088      0.00000
     31      10.4471      0.00000
     32      10.4471      0.00000


--------------------------------------------------------------------------------------------------------


 soft charge-density along one line, spin component            1
         0         1         2         3         4         5         6         7         8         9
 total charge-density along one line
 
 pseudopotential strength for first ion, spin component:            1
 14.421  17.989   0.039   0.026  -0.002   0.071   0.046  -0.005
 17.989  22.455   0.049   0.032  -0.003   0.089   0.058  -0.006
  0.039   0.049   3.211  -0.002   0.000   5.466  -0.003   0.000
  0.026   0.032  -0.002   3.209  -0.000  -0.003   5.463  -0.000
 -0.002  -0.003   0.000  -0.000   3.212   0.000  -0.000   5.468
  0.071   0.089   5.466  -0.003   0.000   9.360  -0.005   0.000
  0.046   0.058  -0.003   5.463  -0.000  -0.005   9.356   0.000
 -0.005  -0.006   0.000  -0.000   5.468   0.000   0.000   9.364
  0.000   0.000  -0.001  -0.000   0.006  -0.002  -0.000   0.012
 -0.004  -0.005   0.006   0.012  -0.000   0.010   0.022  -0.000
 -0.003  -0.003  -0.003   0.006   0.001  -0.007   0.011   0.001
  0.000   0.000  -0.000  -0.000   0.006  -0.000  -0.001   0.010
  0.001   0.002  -0.012  -0.000  -0.001  -0.021  -0.000  -0.002
 total augmentation occupancy for first ion, spin component:            1
  3.034  -0.919   0.349   0.112  -0.073  -0.068  -0.006   0.021   0.001  -0.017   0.048   0.027   0.014
 -0.919   0.798  -0.430  -0.247   0.055   0.069   0.029  -0.013   0.002   0.016  -0.034  -0.019  -0.008
  0.349  -0.430   1.283   0.027  -0.001  -0.212   0.004   0.001  -0.002   0.035  -0.099   0.003   0.003
  0.112  -0.247   0.027   1.648   0.083   0.003  -0.297  -0.022  -0.006  -0.008   0.025  -0.039  -0.008
 -0.073   0.055  -0.001   0.083   1.334   0.001  -0.022  -0.236   0.146   0.006  -0.015   0.022  -0.004
 -0.068   0.069  -0.212   0.003   0.001   0.039  -0.002  -0.001   0.000  -0.006   0.017  -0.001  -0.000
 -0.006   0.029   0.004  -0.297  -0.022  -0.002   0.060   0.006  -0.000   0.001  -0.003   0.008   0.002
  0.021  -0.013   0.001  -0.022  -0.236  -0.001   0.006   0.046  -0.026  -0.001   0.003  -0.003   0.001
  0.001   0.002  -0.002  -0.006   0.146   0.000  -0.000  -0.026   0.031  -0.001   0.002   0.004  -0.000
 -0.017   0.016   0.035  -0.008   0.006  -0.006   0.001  -0.001  -0.001   0.015  -0.010  -0.003   0.001
  0.048  -0.034  -0.099   0.025  -0.015   0.017  -0.003   0.003   0.002  -0.010   0.044   0.007  -0.002
  0.027  -0.019   0.003  -0.039   0.022  -0.001   0.008  -0.003   0.004  -0.003   0.007   0.016   0.001
  0.014  -0.008   0.003  -0.008  -0.004  -0.000   0.002   0.001  -0.000   0.001  -0.002   0.001   0.009


------------------------ aborting loop because EDIFF is reached ----------------------------------------


    CHARGE:  cpu time      0.0051: real time      0.0051
    FORLOC:  cpu time      0.0002: real time      0.0002
    FORNL :  cpu time      0.0251: real time      0.0252
    STRESS:  cpu time      0.2559: real time      0.2572
    FORCOR:  cpu time      0.0084: real time      0.0084
    FORHAR:  cpu time      0.0025: real time      0.0025
    MIXING:  cpu time      0.0009: real time      0.0009
    OFIELD:  cpu time      0.0000: real time      0.0000

  FORCE on cell =-STRESS in cart. coord.  units (eV):
  Direction    XX          YY          ZZ          XY          YZ          ZX
  --------------------------------------------------------------------------------------
  Alpha Z    91.66130    91.66130    91.66130
  Ewald    -468.99947  -518.10209  -459.42282   -11.45477     0.00007     0.00005
  Hartree    48.81166    34.17708    41.84142    -4.98579     0.00002     0.00000
  E(xc)    -142.16647  -142.15986  -142.52744    -0.02383     0.00000     0.00000
  Local    -150.54936   -94.02021  -159.88971    17.88995    -0.00007    -0.00004
  n-local   242.30018   241.11915   246.09484    -0.38147     0.00000     0.00000
  augment   -11.31658   -11.76569   -12.13559     0.15231     0.00000     0.00000
  Kinetic   391.14152   400.10608   406.81058    -2.53956    -0.00002    -0.00002
  Fock        0.00000     0.00000     0.00000     0.00000     0.00000     0.00000
  -------------------------------------------------------------------------------------
  Total       0.88279     1.01577    12.43257    -1.34315    -0.00001    -0.00000
  in kB       7.65112     8.80368   107.75320   -11.64111    -0.00004    -0.00002
  external pressure =       41.40 kB  Pullay stress =        0.00 kB


 VOLUME and BASIS-vectors are now :
 -----------------------------------------------------------------------------
  energy-cutoff  :      360.00
  volume of cell :      184.86
      direct lattice vectors                 reciprocal lattice vectors
     3.858100176  0.000000000  0.000000000     0.259194929  0.000000000  0.000000000
     0.000000000  4.526575088  0.000000000     0.000000000  0.220917577  0.000000000
     0.000000000  0.000000000 10.585176468     0.000000000  0.000000000  0.094471736

  length of vectors
     3.858100176  4.526575088 10.585176468     0.259194929  0.220917577  0.094471736


 FORCES acting on ions
    electron-ion (+dipol)            ewald-force                    non-local-force                 convergence-correction
 -----------------------------------------------------------------------------------------------
   -.222E+01 0.138E+02 0.128E+02   0.219E+01 -.161E+02 -.146E+02   0.199E+00 0.232E+01 0.278E+01   -.917E-04 0.542E-04 -.388E-03
   -.222E+01 0.138E+02 -.128E+02   0.219E+01 -.161E+02 0.146E+02   0.199E+00 0.232E+01 -.278E+01   -.920E-04 0.548E-04 0.389E-03
   0.222E+01 -.138E+02 -.128E+02   -.219E+01 0.161E+02 0.146E+02   -.199E+00 -.232E+01 -.278E+01   0.916E-04 -.546E-04 0.389E-03
   0.222E+01 -.138E+02 0.128E+02   -.219E+01 0.161E+02 -.146E+02   -.199E+00 -.232E+01 0.278E+01   0.919E-04 -.541E-04 -.390E-03
   -.363E-01 -.162E+02 -.187E+02   0.862E-01 0.179E+02 0.203E+02   -.121E+00 -.177E+01 -.134E+01   0.160E-03 -.282E-03 0.405E-03
   -.363E-01 -.162E+02 0.187E+02   0.862E-01 0.179E+02 -.203E+02   -.121E+00 -.177E+01 0.134E+01   0.159E-03 -.282E-03 -.404E-03
   0.364E-01 0.162E+02 0.187E+02   -.862E-01 -.179E+02 -.203E+02   0.121E+00 0.177E+01 0.134E+01   -.160E-03 0.281E-03 -.406E-03
   0.363E-01 0.162E+02 -.187E+02   -.862E-01 -.179E+02 0.203E+02   0.121E+00 0.177E+01 -.134E+01   -.159E-03 0.282E-03 0.405E-03
 -----------------------------------------------------------------------------------------------
   0.794E-04 0.126E-04 -.166E-05   0.372E-14 0.107E-13 0.178E-13   0.222E-03 0.389E-03 0.313E-06   -.647E-07 -.186E-06 0.475E-06
 
 
 POSITION                                       TOTAL-FORCE (eV/Angst)
 -----------------------------------------------------------------------------------
      3.70433      3.81968      1.23098         0.171886      0.001881      0.952076
      1.77528      1.55639      4.06160         0.171885      0.001878     -0.952061
      2.89357      3.98702      9.35419        -0.171883     -0.001829     -0.952022
      0.96452      1.72374      6.52357        -0.171877     -0.001831      0.952010
      3.70433      3.25723      3.75268        -0.070914     -0.105960      0.206836
      1.77528      0.99394      1.53991        -0.070912     -0.105965     -0.206843
      2.89357      0.02290      6.83250         0.070908      0.105913     -0.206943
      0.96452      2.28618      9.04526         0.070908      0.105911      0.206947
 -----------------------------------------------------------------------------------
    total drift:                                0.000302      0.000401     -0.000001


--------------------------------------------------------------------------------------------------------



  FREE ENERGIE OF THE ION-ELECTRON SYSTEM (eV)
  ---------------------------------------------------
  free  energy   TOTEN  =       -32.97929520 eV

  energy  without entropy=      -32.97928297  energy(sigma->0) =      -32.97928908
 


--------------------------------------------------------------------------------------------------------


    POTLOK:  cpu time      0.2246: real time      0.2253


--------------------------------------------------------------------------------------------------------


     LOOP+:  cpu time      7.8288: real time      7.8680
    4ORBIT:  cpu time      0.0000: real time      0.0000

 total amount of memory used by VASP MPI-rank0    36587. kBytes
=======================================================================

   base      :      30000. kBytes
   nonl-proj :       5001. kBytes
   fftplans  :        306. kBytes
   grid      :        466. kBytes
   one-center:         16. kBytes
   wavefun   :        798. kBytes
 
  
  
 General timing and accounting informations for this job:
 ========================================================
  
                  Total CPU time used (sec):        9.433
                            User time (sec):        9.180
                          System time (sec):        0.254
                         Elapsed time (sec):        9.796
  
                   Maximum memory used (kb):      174600.
                   Average memory used (kb):          N/A
  
                          Minor page faults:        18700
                          Major page faults:           61
                 Voluntary context switches:         1720
