576  
8    

1    
  0.0064867383094889   0.0076106652865705   0.0000000000000000
  -0.0310121400   -0.0329345000    0.0072767200
   0.0057672000   -0.0006803300    0.0130628800
   0.0006968500    0.0043182500    0.0134387500
   0.0001884000    0.0050580700    0.0134960600
   0.0000498000    0.0048738400    0.0135256400
   0.0020004500    0.0025452400    0.0133432200
  -0.0012800200    0.0063489200    0.0135387500
   0.0008388200    0.0072736100    0.0137444200
   0.0003681000    0.0052916500    0.0134458800
   0.0001486400    0.0051657900    0.0134908900
   0.0001427200    0.0051764500    0.0135439700
   0.0004062100    0.0042291100    0.0135449800
  -0.0000311100    0.0053318700    0.0134540600
  -0.0000335700    0.0053473800    0.0134567100
   0.0000971000    0.0053994700    0.0134497900
   0.0000610000    0.0052241800    0.0134781100
   0.0000140900    0.0051064600    0.0135245000
  -0.0001029100    0.0052952100    0.0134695700
  -0.0000103900    0.0052639000    0.0134853900
  -0.0000111700    0.0052652800    0.0134846100
  -0.0000026000    0.0052531900    0.0134889400
   0.0000156400    0.0052309800    0.0134947200
   0.0000071000    0.0052455500    0.0134889800
   0.0000021600    0.0052537300    0.0134854700
  -0.0000303700    0.0053324000    0.0134921500
  -0.0000978600    0.0052925900    0.0135054000
  -0.0001169300    0.0052184800    0.0134999300
   0.0000618200    0.0052241300    0.0135115700
   0.0002247400    0.0052890000    0.0135011400
  -0.0000367600    0.0053502600    0.0134867900
  -0.0012592100    0.0063370000    0.0136124800
  -0.0011674000    0.0055705300    0.0135145000
   0.0001894800    0.0051363400    0.0135276500
   0.0001488200    0.0051650400    0.0135012300
   0.0003194000    0.0053290900    0.0135404900
   0.0023826600    0.0059438500    0.0131309300
  -0.0000246300    0.0051015300    0.0134739200
  -0.0000387000    0.0051568600    0.0135217900
   0.0000218100    0.0051812100    0.0135246600
   0.0000326900    0.0051800800    0.0135149300
   0.0000278300    0.0051764200    0.0135110300
   0.0000125800    0.0051146400    0.0135134100
  -0.0000284000    0.0051779000    0.0135117000
   0.0000007100    0.0052124500    0.0134968900
   0.0000210700    0.0051915900    0.0135107200
   0.0000266200    0.0051854200    0.0135078400
   0.0000088900    0.0051646500    0.0135045600
  -0.0000234600    0.0051476900    0.0134950900
  -0.0000082700    0.0052142800    0.0135014500
  -0.0000018300    0.0052235700    0.0135017000
   0.0000092600    0.0052176100    0.0135037400
   0.0000122100    0.0051993800    0.0135017600
  -0.0000010000    0.0051904400    0.0134997600
  -0.0000125800    0.0052005000    0.0135018000
  -0.0000037400    0.0052197100    0.0134949800
  -0.0000039600    0.0052195100    0.0134955200
  -0.0000010400    0.0052136100    0.0134960300
   0.0000040000    0.0052075000    0.0134962100
   0.0000040500    0.0052086800    0.0134976300
   0.0000011500    0.0052149900    0.0134955300
  -0.0000079900    0.0052150900    0.0134938700
  -0.0000209300    0.0052080400    0.0134925200
  -0.0000116200    0.0051991500    0.0134974700
   0.0000113800    0.0051989000    0.0135034400
   0.0000205000    0.0052077000    0.0134949600
   0.0000064700    0.0052163600    0.0134934000
  -0.0000276700    0.0051773100    0.0134946300
  -0.0000491200    0.0051695800    0.0135023800
  -0.0000010100    0.0051736100    0.0135235100
   0.0000263700    0.0051854100    0.0135147600
   0.0000305500    0.0051835700    0.0135039700
   0.0000263700    0.0051907500    0.0135128400
  -0.0000684900   -0.0053298400   -0.0133892400
  -0.0000017500   -0.0052238400   -0.0134089900
   0.0000425800   -0.0052031000   -0.0134808900
   0.0000455400   -0.0052010300   -0.0134940700
   0.0000256900   -0.0052017600   -0.0134801000
   0.0000003500   -0.0052715400   -0.0134780800
  -0.0000198400   -0.0051441400   -0.0134936300
   0.0000308600   -0.0051553900   -0.0135091400
   0.0000376500   -0.0051725300   -0.0135072500
   0.0000278500   -0.0051804200   -0.0135016200
  -0.0000089200   -0.0051895600   -0.0135028600
  -0.0000646800   -0.0051817600   -0.0135091400
  -0.0000043100   -0.0051559600   -0.0135165500
   0.0000054700   -0.0051582200   -0.0135178200
   0.0000178300   -0.0051653000   -0.0135153600
   0.0000068400   -0.0051741300   -0.0135149700
  -0.0000129200   -0.0051743700   -0.0135128200
  -0.0000104400   -0.0051612100   -0.0135149000
  -0.0000015200   -0.0051627800   -0.0135285900
  -0.0000009300   -0.0051716300   -0.0135278800
  -0.0000035700   -0.0051899900   -0.0135116900
   0.0000006200   -0.0051869200   -0.0135132100
   0.0000074400   -0.0051651100   -0.0135251600
   0.0000016200   -0.0051604900   -0.0135291100
  -0.0000084400   -0.0051638600   -0.0135598000
  -0.0000281900   -0.0052268400   -0.0135038000
  -0.0000091100   -0.0052354300   -0.0134819000
   0.0000283700   -0.0052036000   -0.0135018500
   0.0000156900   -0.0051889800   -0.0135023800
   0.0000132300   -0.0051458500   -0.0135390700
  -0.0000464400   -0.0051322500   -0.0135545200
  -0.0000826800   -0.0052865100   -0.0133989000
   0.0000308500   -0.0052149300   -0.0134689100
   0.0000431900   -0.0052047800   -0.0134949200
   0.0000316900   -0.0051892300   -0.0135188600
  -0.0000388300   -0.0051263900   -0.0135231100
   0.0001217800   -0.0043877900   -0.0151008300
   0.0002668800   -0.0050466000   -0.0137303800
   0.0001246900   -0.0051518500   -0.0135477600
   0.0000733800   -0.0051954900   -0.0135026100
   0.0000836500   -0.0052041800   -0.0134853700
  -0.0005079300   -0.0049297600   -0.0131727200
  -0.0000469800   -0.0050741700   -0.0135683600
   0.0000791700   -0.0051004200   -0.0135795300
   0.0000730900   -0.0051435700   -0.0135349800
   0.0000403600   -0.0051713300   -0.0135035800
  -0.0000205200   -0.0051856500   -0.0134955000
  -0.0001346700   -0.0051481600   -0.0135419100
  -0.0000079600   -0.0051340400   -0.0135177900
   0.0000071400   -0.0051382900   -0.0135195400
   0.0000226300   -0.0051486300   -0.0135181800
   0.0000092400   -0.0051592100   -0.0135077300
  -0.0000154400   -0.0051582100   -0.0135129900
  -0.0000156400   -0.0051408200   -0.0135157700
  -0.0000142200   -0.0051262600   -0.0134885100
  -0.0000154900   -0.0051449000   -0.0134921200
  -0.0000054600   -0.0051848900   -0.0134950700
   0.0000281400   -0.0051556900   -0.0134901900
   0.0000056000   -0.0051258600   -0.0134872600
  -0.0000017800   -0.0051152500   -0.0134890300
  -0.0000963400   -0.0050582300   -0.0133347400
  -0.0001023800   -0.0052202800   -0.0134193400
   0.0000159300   -0.0053042100   -0.0135282800
   0.0000958000   -0.0052348500   -0.0134945100
   0.0001697200   -0.0049911300   -0.0132967300
  -0.0001095000   -0.0050699400   -0.0133045000
  -0.0010526700   -0.0055681500   -0.0127415700
   0.0000577200   -0.0055475300   -0.0138804900
   0.0001079400   -0.0052339600   -0.0135655900
   0.0001070900   -0.0052342100   -0.0135077800
   0.0002700900   -0.0053635200   -0.0134346700
   0.0003357500   -0.0043968500   -0.0117702400
  -0.0001297700    0.0079454900   -0.0081389500
   0.0003810300    0.0051173200   -0.0128192000
   0.0002050900    0.0051294900   -0.0134249800
   0.0001200400    0.0051713500   -0.0135051800
   0.0001371600    0.0052747900   -0.0134795400
  -0.0005659800    0.0046818200   -0.0145663900
  -0.0000271800    0.0054114800   -0.0133325700
   0.0000387700    0.0054815000   -0.0131259000
   0.0001247700    0.0052417200   -0.0134301400
   0.0001085500    0.0051805900   -0.0134964000
  -0.0000261400    0.0049378300   -0.0135946700
  -0.0001716500    0.0053733300   -0.0133103500
  -0.0000106600    0.0052744100   -0.0134654500
  -0.0000046600    0.0052764800   -0.0134615500
   0.0000540400    0.0052869100   -0.0134501800
   0.0000227400    0.0051805800   -0.0134931700
  -0.0000330500    0.0052471800   -0.0134790200
  -0.0000093700    0.0052647000   -0.0134700100
  -0.0000160000    0.0052706900   -0.0134911600
  -0.0000358000    0.0052499000   -0.0134881600
  -0.0000245400    0.0052208100   -0.0134884800
   0.0001010400    0.0052486800   -0.0134831900
  -0.0000018800    0.0052733600   -0.0135058600
  -0.0000043200    0.0052691000   -0.0134857200
  -0.0001206700    0.0053321300   -0.0134962400
  -0.0003133400    0.0051830600   -0.0135117700
   0.0000810600    0.0052030400   -0.0135507200
   0.0001516900    0.0052168100   -0.0135339400
   0.0003224700    0.0052395100   -0.0135258700
  -0.0000751900    0.0054513000   -0.0135638400
  -0.0022650800    0.0061335600   -0.0137441200
   0.0003534000    0.0050881500   -0.0137510200
   0.0001870200    0.0051133000   -0.0135069400
   0.0001377800    0.0051864000   -0.0135353700
   0.0001668200    0.0053009200   -0.0137634600
   0.0015532600    0.0065041200   -0.0171595400
  -0.0000023700    0.0051702200   -0.0136655000
   0.0000324800    0.0051795000   -0.0135867700
   0.0000378800    0.0051784300   -0.0135273800
   0.0000323300    0.0051720400   -0.0135086000
   0.0000022400    0.0051398100   -0.0134941500
  -0.0000985400    0.0051326500   -0.0135485300
  -0.0000141500    0.0052335400   -0.0135419400
   0.0000194700    0.0052318700   -0.0135447800
   0.0000265000    0.0052056500   -0.0135157200
   0.0000148200    0.0051830700   -0.0135058700
  -0.0000159400    0.0051769200   -0.0135082700
  -0.0000288900    0.0051960900   -0.0135224800
  -0.0000041500    0.0052249900   -0.0135031000
   0.0000027200    0.0052254100   -0.0135028400
   0.0000066800    0.0052136500   -0.0134993700
   0.0000034300    0.0052043900   -0.0135011300
  -0.0000030800    0.0052073900   -0.0135025800
  -0.0000059800    0.0052182300   -0.0135022300
  -0.0000091000    0.0052216100   -0.0134891100
  -0.0000100600    0.0052138300   -0.0134895800
  -0.0000003800    0.0052079500   -0.0134938700
   0.0000103500    0.0052107000   -0.0134918900
   0.0000099000    0.0052196300   -0.0134900800
  -0.0000012200    0.0052232400   -0.0134872600
  -0.0000430200    0.0052085700   -0.0134691500
  -0.0000301500    0.0051890200   -0.0134912300
   0.0000078500    0.0051891700   -0.0135096600
   0.0000334000    0.0051997500   -0.0134955900
   0.0000337700    0.0052196500   -0.0134548600
  -0.0000000500    0.0052202400   -0.0134660700
  -0.0000722700    0.0051116000   -0.0134929400
  -0.0000061200    0.0051465900   -0.0135493500
   0.0000312200    0.0051722900   -0.0135240400
   0.0000388000    0.0051773400   -0.0135019800
   0.0000410400    0.0051723300   -0.0134705600
  -0.0000283000    0.0051932400   -0.0133129100
  -0.0001802200   -0.0060323900    0.0126779900
  -0.0001276100   -0.0055893800    0.0140721400
   0.0000819000   -0.0052195100    0.0136049700
   0.0000696700   -0.0052045400    0.0135228400
   0.0000657600   -0.0052234000    0.0134830600
   0.0000867800   -0.0052885000    0.0134724600
  -0.0002084500   -0.0051383600    0.0136623100
   0.0000795900   -0.0050827800    0.0136981100
   0.0000765100   -0.0051430800    0.0135752900
   0.0000588400   -0.0051725800    0.0135200000
   0.0000391100   -0.0051913600    0.0134886200
  -0.0000621600   -0.0052042900    0.0134209000
  -0.0000286900   -0.0051401400    0.0135316800
   0.0000034200   -0.0051317400    0.0135316300
   0.0000350600   -0.0051416500    0.0135392200
   0.0000262200   -0.0051613100    0.0135152600
   0.0000012900   -0.0051731600    0.0134961100
  -0.0000361300   -0.0051697200    0.0135289000
  -0.0000048700   -0.0051461600    0.0134996800
  -0.0000015600   -0.0051520100    0.0135010300
   0.0000051400   -0.0051567100    0.0134978200
   0.0000091500   -0.0051632900    0.0134908700
  -0.0000026200   -0.0051684800    0.0134987300
   0.0000006200   -0.0051523100    0.0134995100
  -0.0000015400   -0.0051412900    0.0134495900
  -0.0000246600   -0.0051433600    0.0134473300
  -0.0000377300   -0.0051991000    0.0134840700
   0.0000195800   -0.0052213100    0.0135038900
   0.0000358200   -0.0051696900    0.0134518800
   0.0000087600   -0.0051407800    0.0134373600
   0.0000264300   -0.0049976300    0.0132856300
  -0.0001598400   -0.0052581100    0.0134101700
   0.0000023400   -0.0053326100    0.0135846300
   0.0000521000   -0.0052287200    0.0135226600
   0.0000614500   -0.0051988300    0.0134621700
   0.0000506200   -0.0052041900    0.0134106600
  -0.0001753900   -0.0060242000    0.0130106000
  -0.0001976500   -0.0055296100    0.0132323600
   0.0000762500   -0.0052147400    0.0134177700
   0.0000694600   -0.0052039600    0.0134768900
   0.0000714400   -0.0052278700    0.0134918800
   0.0001545700   -0.0053462900    0.0134662200
  -0.0002081100   -0.0051381800    0.0134585800
   0.0000792300   -0.0050820600    0.0135227100
   0.0000865400   -0.0051505500    0.0134907000
   0.0000589500   -0.0051728500    0.0134944900
   0.0000291400   -0.0051830800    0.0134931000
  -0.0000619300   -0.0052033900    0.0135143800
  -0.0000289900   -0.0051409000    0.0135080300
   0.0000064200   -0.0051347300    0.0135129300
   0.0000360200   -0.0051426200    0.0135119800
   0.0000263300   -0.0051609600    0.0135096500
  -0.0000001000   -0.0051718800    0.0135083500
  -0.0000386100   -0.0051673800    0.0135124700
  -0.0000048800   -0.0051455300    0.0135306500
   0.0000002200   -0.0051530400    0.0135279900
   0.0000077200   -0.0051593100    0.0135258000
   0.0000091200   -0.0051635000    0.0135251100
  -0.0000061600   -0.0051663700    0.0135282200
  -0.0000003300   -0.0051509200    0.0135282200
  -0.0000018400   -0.0051410700    0.0135841100
  -0.0000091200   -0.0051564000    0.0135752500
  -0.0000185800   -0.0052150200    0.0135239500
   0.0000192800   -0.0052209800    0.0135009800
   0.0000172600   -0.0051534000    0.0135697400
  -0.0000068800   -0.0051280500    0.0135916700
   0.0000259300   -0.0050008600    0.0137583300
  -0.0000856100   -0.0053200300    0.0134662700
  -0.0000463300   -0.0052907300    0.0134033700
   0.0000522100   -0.0052284800    0.0134739900
   0.0001098700   -0.0052405700    0.0135178800
  -0.0000230200   -0.0051430100    0.0137993000
  -0.0000437500   -0.0002721600    0.0018089200
   0.0001231300   -0.0002425000    0.0014041500
  -0.0000225400   -0.0003027800    0.0015385000
  -0.0000424000   -0.0002866800    0.0015898100
  -0.0000335400   -0.0002685800    0.0016189100
  -0.0000214100   -0.0002030000    0.0016644600
   0.0000758300   -0.0003524700    0.0014956200
  -0.0000309600   -0.0003785500    0.0014755500
  -0.0000239200   -0.0003320700    0.0015450400
  -0.0000283200   -0.0003107700    0.0015882700
  -0.0000142800   -0.0002795500    0.0016163800
   0.0000232500   -0.0002915400    0.0016427600
   0.0000120900   -0.0003363100    0.0015750400
  -0.0000012600   -0.0003416200    0.0015758500
  -0.0000162900   -0.0003385600    0.0015715100
  -0.0000110800   -0.0003200000    0.0015916200
   0.0000000800   -0.0003116300    0.0016092500
   0.0000140100   -0.0003215600    0.0015836400
   0.0000047100   -0.0003239000    0.0015993100
   0.0000089100   -0.0003231100    0.0015986300
   0.0000079700   -0.0003194800    0.0016073400
  -0.0000026600   -0.0003115300    0.0016112200
  -0.0000149300   -0.0003123600    0.0015978800
  -0.0000053900   -0.0003202000    0.0016007100
   0.0000143000   -0.0002994900    0.0016201100
   0.0000501600   -0.0003037500    0.0016406900
   0.0000201000   -0.0002894800    0.0016272700
  -0.0000235400   -0.0002863600    0.0016016400
  -0.0000281400   -0.0002864400    0.0016298800
  -0.0000277200   -0.0003031300    0.0016265300
   0.0000381100   -0.0001973000    0.0016930100
   0.0000574500   -0.0002649300    0.0016667300
  -0.0000303800   -0.0002452000    0.0015371700
  -0.0000409200   -0.0002766300    0.0015916500
  -0.0000378900   -0.0002744000    0.0016290900
   0.0000272900   -0.0002397800    0.0015951700
   0.0001495700    0.0002264000    0.0021405000
  -0.0000943200   -0.0002985500    0.0021118400
  -0.0001368700   -0.0002489300    0.0016798200
  -0.0000768300   -0.0002716500    0.0016264100
  -0.0000516700   -0.0002646400    0.0016129700
   0.0000186300   -0.0000878100    0.0018137300
   0.0001330600   -0.0004406400    0.0016546000
  -0.0000186600   -0.0004676500    0.0016314800
  -0.0000597200   -0.0003399900    0.0016175100
  -0.0000437900   -0.0003065000    0.0016080100
  -0.0000123800   -0.0002808000    0.0016070700
   0.0000285300   -0.0002380400    0.0015822700
   0.0000142100   -0.0003470700    0.0015912700
   0.0000024700   -0.0003529100    0.0015887400
  -0.0000192100   -0.0003525800    0.0015938500
  -0.0000144900   -0.0003275300    0.0015963600
  -0.0000017700   -0.0003141000    0.0015947000
   0.0000175400   -0.0003351300    0.0015998100
   0.0000133800   -0.0003499100    0.0015709600
   0.0000208700   -0.0003443600    0.0015730700
   0.0000128100   -0.0003383900    0.0015773400
  -0.0000184000   -0.0003400900    0.0015745300
  -0.0000227900   -0.0003363400    0.0015775400
  -0.0000068100   -0.0003476500    0.0015735300
   0.0000666100   -0.0003964100    0.0015018700
   0.0001184000   -0.0003884300    0.0015133300
   0.0000671200   -0.0003274400    0.0015782200
  -0.0000746400   -0.0002719300    0.0016176700
  -0.0001472300   -0.0003960800    0.0015099400
  -0.0000123000   -0.0003756900    0.0014979400
   0.0005342200   -0.0000230600    0.0014259700
   0.0002588300   -0.0003466200    0.0016369800
  -0.0001579100   -0.0000954000    0.0017512100
  -0.0001028300   -0.0002471200    0.0016380200
  -0.0001027100   -0.0002392000    0.0016038500
  -0.0003046100   -0.0006397000    0.0011771800
   0.0208314500    0.0283539700    0.0025220500
  -0.0016521900    0.0007313900   -0.0019191300
  -0.0002744000    0.0003905800   -0.0016180400
  -0.0001309400    0.0003682700   -0.0015850100
   0.0002748600    0.0009072200   -0.0014696600
   0.0009637900    0.0089201000    0.0000646700
   0.0003590400    0.0001089100   -0.0017686800
  -0.0007075300   -0.0003474800   -0.0020592800
  -0.0002398100    0.0002310800   -0.0016817200
  -0.0001406400    0.0002972900   -0.0016097900
  -0.0002868300    0.0005139300   -0.0014097200
   0.0007469700   -0.0002753300   -0.0018626500
   0.0000310900    0.0002174500   -0.0016384900
  -0.0000203900    0.0002101700   -0.0016431500
  -0.0000893800    0.0002119200   -0.0016454500
  -0.0000518500    0.0002790500   -0.0016100800
   0.0000715100    0.0002385700   -0.0016219300
   0.0000584900    0.0002282800   -0.0016375800
   0.0000186200    0.0002315000   -0.0016236200
   0.0000111100    0.0002472300   -0.0016176200
  -0.0000061900    0.0002563900   -0.0016135500
  -0.0000231200    0.0002419800   -0.0016028000
  -0.0000091500    0.0002427700   -0.0016238300
   0.0000095700    0.0002285200   -0.0016267800
   0.0001041600    0.0001590100   -0.0016348500
   0.0001282000    0.0001840400   -0.0015834300
  -0.0000120700    0.0003493500   -0.0015717700
  -0.0000798900    0.0003019000   -0.0015814700
  -0.0002213500   -0.0000127100   -0.0015581200
   0.0000448500    0.0002423800   -0.0016654900
   0.0010046100    0.0000362600   -0.0017887000
  -0.0001357100    0.0009130000   -0.0014710000
  -0.0001243400    0.0003881200   -0.0016236300
  -0.0001316100    0.0003400100   -0.0016026900
  -0.0003821500    0.0007536600   -0.0013619900
  -0.0010789400   -0.0016902600   -0.0009513400
   0.0000634800    0.0003816700   -0.0015853900
   0.0000129100    0.0003458100   -0.0015636900
  -0.0000234600    0.0003173500   -0.0015954900
  -0.0000312600    0.0003146200   -0.0016001900
  -0.0000228900    0.0003257000   -0.0016001000
  -0.0000112000    0.0003595400   -0.0014939600
   0.0000198700    0.0003012800   -0.0015970800
  -0.0000128600    0.0002970800   -0.0015788600
  -0.0000281300    0.0002928500   -0.0015976700
  -0.0000236000    0.0003035300   -0.0015997200
   0.0000040200    0.0003054700   -0.0015890300
   0.0000411900    0.0002989700   -0.0015904100
   0.0000088600    0.0002727500   -0.0016110100
  -0.0000059600    0.0002739600   -0.0016111400
  -0.0000175900    0.0002774600   -0.0016097600
  -0.0000082000    0.0002837000   -0.0016033000
   0.0000091500    0.0002812900   -0.0016040000
   0.0000146800    0.0002765700   -0.0016073100
   0.0000058900    0.0002705400   -0.0016147600
   0.0000025300    0.0002757900   -0.0016112400
  -0.0000034800    0.0002798400   -0.0016079400
  -0.0000060700    0.0002781500   -0.0016095300
  -0.0000018400    0.0002721500   -0.0016129000
   0.0000035200    0.0002689500   -0.0016144700
   0.0000185900    0.0002794200   -0.0016201700
   0.0000141100    0.0002939300   -0.0016006900
  -0.0000024300    0.0003024800   -0.0015977300
  -0.0000155500    0.0002889600   -0.0016075200
  -0.0000090000    0.0002763300   -0.0016312300
   0.0000004300    0.0002692900   -0.0016269000
   0.0000241100    0.0003219800   -0.0015804500
   0.0000177900    0.0003397400   -0.0015734300
  -0.0000112600    0.0003235200   -0.0015909100
  -0.0000257900    0.0003099000   -0.0016013400
  -0.0000169500    0.0002976500   -0.0016161100
   0.0000144400    0.0003206800   -0.0016690400
   0.0002961000   -0.0002337500   -0.0013238000
  -0.0000739700   -0.0001155900   -0.0018204200
  -0.0000694100   -0.0002542100   -0.0016458000
  -0.0000591800   -0.0002724700   -0.0016106500
  -0.0000601900   -0.0002788000   -0.0015676400
   0.0001212400   -0.0000523900   -0.0013082500
   0.0001058500   -0.0003130500   -0.0019332100
  -0.0000539100   -0.0003107100   -0.0017061400
  -0.0000579300   -0.0002939400   -0.0016357000
  -0.0000391600   -0.0002886000   -0.0016126600
   0.0000044200   -0.0002618400   -0.0015963000
   0.0000699900   -0.0001990200   -0.0016628000
   0.0000123500   -0.0003635100   -0.0016100500
  -0.0000136900   -0.0003563500   -0.0016166100
  -0.0000234500   -0.0003267400   -0.0016072900
  -0.0000147700   -0.0003054400   -0.0016042700
   0.0000086000   -0.0002872000   -0.0016010800
   0.0000336600   -0.0003265300   -0.0016169500
   0.0000075400   -0.0003375800   -0.0015879600
  -0.0000009000   -0.0003367300   -0.0015866000
  -0.0000070400   -0.0003392600   -0.0015909400
  -0.0000037100   -0.0003212600   -0.0015888200
  -0.0000016700   -0.0003257400   -0.0015952300
   0.0000028500   -0.0003338700   -0.0015899300
   0.0000183400   -0.0003398000   -0.0015674500
   0.0000369300   -0.0003336200   -0.0015703700
   0.0000116000   -0.0003143400   -0.0015940700
  -0.0000416600   -0.0003175400   -0.0015928600
  -0.0000228000   -0.0003300200   -0.0015714500
   0.0000002200   -0.0003443300   -0.0015644400
   0.0001332900   -0.0003750600   -0.0015091200
   0.0000947800   -0.0002926300   -0.0015994000
  -0.0000402300   -0.0002424700   -0.0016388400
  -0.0000600900   -0.0002852900   -0.0016006200
  -0.0000241200   -0.0002700600   -0.0016044000
  -0.0000473300   -0.0003285900   -0.0015368000
   0.0000118900    0.0000986100   -0.0020068500
  -0.0000393500   -0.0002421300   -0.0013734800
  -0.0000669900   -0.0002698400   -0.0015600300
  -0.0000625700   -0.0002638400   -0.0016057500
  -0.0000409800   -0.0002029600   -0.0016438400
   0.0002733300   -0.0000027200   -0.0028571000
  -0.0000851500   -0.0005578900   -0.0009189400
  -0.0000614300   -0.0004201300   -0.0013931600
  -0.0000584900   -0.0003206900   -0.0015510600
  -0.0000418200   -0.0002871200   -0.0015940700
  -0.0000059100   -0.0002383500   -0.0016227800
   0.0001493600   -0.0003690000   -0.0018019300
   0.0000179000   -0.0003784300   -0.0015232300
  -0.0000238500   -0.0003594900   -0.0015335700
  -0.0000321500   -0.0003471500   -0.0015715300
  -0.0000166300   -0.0003079000   -0.0016029000
   0.0000111800   -0.0003076100   -0.0016095100
   0.0000550800   -0.0003457600   -0.0015613400
   0.0000105100   -0.0003420300   -0.0015858200
  -0.0000006800   -0.0003412600   -0.0015875400
  -0.0000114300   -0.0003423800   -0.0015915600
  -0.0000068300   -0.0003278500   -0.0016006900
   0.0000004700   -0.0003324200   -0.0015951300
   0.0000064100   -0.0003381500   -0.0015887700
   0.0000307800   -0.0003317100   -0.0016143500
   0.0000502700   -0.0003352500   -0.0016234300
  -0.0000014800   -0.0003079400   -0.0016153700
  -0.0000621300   -0.0003267000   -0.0016197500
  -0.0000220600   -0.0003190300   -0.0016085600
   0.0000087900   -0.0003411500   -0.0016132300
   0.0001634700   -0.0003116000   -0.0017237600
   0.0000351900   -0.0002532500   -0.0016924900
  -0.0000468700   -0.0002498500   -0.0015794500
  -0.0000803600   -0.0002728700   -0.0016153300
  -0.0001097800   -0.0003170300   -0.0018288400
   0.0000228400   -0.0002726100   -0.0016365900
   0.0010372700   -0.0001124600    0.0015779100
  -0.0004209700   -0.0000991400    0.0013953600
  -0.0003090700    0.0001984000    0.0015093100
  -0.0001532200    0.0003120900    0.0016007500
  -0.0001646400    0.0003243100    0.0016173200
  -0.0006731000    0.0008082800    0.0019344300
   0.0001468500    0.0001857200    0.0016130300
   0.0000421600    0.0002106800    0.0016403400
  -0.0002275400    0.0000821700    0.0015635100
  -0.0001650500    0.0002439500    0.0016134100
  -0.0001772500    0.0004073000    0.0016142100
   0.0002586000    0.0001214400    0.0015776000
   0.0000193700    0.0002287100    0.0016225800
   0.0000105900    0.0002307700    0.0016233800
  -0.0000195900    0.0002354900    0.0016124700
  -0.0000778100    0.0002165500    0.0016052900
   0.0000206200    0.0002496000    0.0016194800
   0.0000175900    0.0002333000    0.0016231300
   0.0000182300    0.0002061400    0.0016555800
   0.0000676900    0.0001933800    0.0016402100
   0.0000477300    0.0002304000    0.0016109100
  -0.0000491700    0.0003039900    0.0015911900
  -0.0001308700    0.0001177400    0.0016664500
   0.0000212100    0.0002253100    0.0016559600
   0.0002467700    0.0000504400    0.0017651400
   0.0003301500   -0.0000235600    0.0017691400
  -0.0000723900    0.0005433700    0.0015042200
  -0.0000996000    0.0003431500    0.0016032800
  -0.0001628400    0.0003117600    0.0015958900
  -0.0002529000   -0.0001849000    0.0020131500
   0.0033267700    0.0018753800    0.0012118600
  -0.0001133600    0.0014685400    0.0010099000
  -0.0001673100    0.0004502000    0.0015787200
  -0.0001304400    0.0003480600    0.0016009400
  -0.0001618500    0.0003856800    0.0016163100
  -0.0002637700    0.0003216800    0.0015865200
   0.0000572800    0.0003451200    0.0015955800
   0.0000059400    0.0003075100    0.0016627400
  -0.0000264100    0.0002995300    0.0016239400
  -0.0000339400    0.0003044500    0.0016045900
  -0.0000256500    0.0003210400    0.0015961700
   0.0000263400    0.0003077800    0.0016051700
   0.0000261400    0.0002734400    0.0016192500
   0.0000031200    0.0002689700    0.0016215400
  -0.0000251700    0.0002711400    0.0016179600
  -0.0000238500    0.0002850100    0.0016069700
  -0.0000044100    0.0002895900    0.0016045000
   0.0000255300    0.0002839300    0.0016058100
   0.0000078000    0.0002681000    0.0016131000
   0.0000017700    0.0002689900    0.0016133100
  -0.0000076900    0.0002726100    0.0016112900
  -0.0000079700    0.0002760200    0.0016092700
  -0.0000001600    0.0002747500    0.0016078900
   0.0000059700    0.0002710700    0.0016109800
   0.0000050600    0.0002693300    0.0016055000
   0.0000098500    0.0002765600    0.0016052200
   0.0000050900    0.0002863300    0.0016024300
  -0.0000065600    0.0002886800    0.0016003100
  -0.0000095500    0.0002762800    0.0016018500
  -0.0000031900    0.0002665700    0.0016063200
   0.0000204400    0.0002857900    0.0015876900
   0.0000329700    0.0003073600    0.0015842800
   0.0000060400    0.0003227400    0.0015907100
  -0.0000177700    0.0003097300    0.0015954700
  -0.0000265800    0.0003009400    0.0015871300
  -0.0000171900    0.0002755300    0.0015822900
   0.0000074300    0.0003244200    0.0016062500
   0.0000463600    0.0003786400    0.0015978400
  -0.0000088600    0.0003325100    0.0016026800
  -0.0000311500    0.0003176700    0.0015983500
  -0.0000350600    0.0003205700    0.0015898500
  -0.0000177700    0.0003419200    0.0015257600

1    
 -0.0064867383094889  -0.0076106652865705   0.0000000000000000
   0.0296966200    0.0421460000    0.0194780800
  -0.0057215500    0.0110275400    0.0139383300
  -0.0006944000    0.0060628700    0.0135670700
  -0.0001877300    0.0053255200    0.0135100000
  -0.0000480200    0.0055156300    0.0134804100
  -0.0019980200    0.0078669200    0.0136662300
   0.0012755000    0.0040421700    0.0134707700
  -0.0008507600    0.0030871100    0.0132643900
  -0.0003698900    0.0050941100    0.0135609000
  -0.0001493300    0.0052171000    0.0135152600
  -0.0001399800    0.0052057100    0.0134634900
  -0.0003931500    0.0061306100    0.0134608600
   0.0000302400    0.0050470300    0.0135514100
   0.0000339100    0.0050321200    0.0135502100
  -0.0000970800    0.0049797900    0.0135579100
  -0.0000618000    0.0051568600    0.0135286400
  -0.0000131800    0.0052719200    0.0134824200
   0.0001028800    0.0050846900    0.0135362800
   0.0000099300    0.0051173600    0.0135208300
   0.0000114000    0.0051156600    0.0135214600
   0.0000024100    0.0051271300    0.0135181300
  -0.0000156100    0.0051501600    0.0135107200
  -0.0000075400    0.0051361200    0.0135179200
  -0.0000019700    0.0051271500    0.0135216200
   0.0000310700    0.0050473100    0.0135145300
   0.0001002300    0.0050885100    0.0135001900
   0.0001157600    0.0051627900    0.0135063500
  -0.0000608700    0.0051570700    0.0134943700
  -0.0002293000    0.0050910700    0.0135059800
   0.0000381200    0.0050287800    0.0135199100
   0.0012958500    0.0040297100    0.0133951300
   0.0011588100    0.0048067900    0.0134880800
  -0.0001871200    0.0052451400    0.0134800100
  -0.0001491600    0.0052160500    0.0135040600
  -0.0003246200    0.0050500300    0.0134641200
  -0.0024326600    0.0044216600    0.0138793700
   0.0000243500    0.0052810200    0.0135310300
   0.0000375800    0.0052252900    0.0134842200
  -0.0000217600    0.0052009100    0.0134819000
  -0.0000323900    0.0052023200    0.0134910600
  -0.0000281000    0.0052065300    0.0134944200
  -0.0000108600    0.0052685800    0.0134919800
   0.0000283500    0.0052042300    0.0134938100
  -0.0000009700    0.0051696500    0.0135090500
  -0.0000213500    0.0051901800    0.0134953700