phonopy:
  version: "2.25.0"
  frequency_unit_conversion_factor: 15.633302
  symmetry_tolerance: 1.00000e-05
  configuration:
    band: "0.0 0.0 0.0  0.5 0.0 0.0  0.5 0.5 0.0  0.0 0.5 0.0  0.0 0.0 0.0  0.0 0.0 0.5  0.5 0.0 0.5  0.5 0.5 0.5  0.0 0.5 0.5 0.0 0.0 0.5"
    mesh_numbers: "31 31 31"
    primitive_axes: "1 0 0 0 1 0 0 0 1"
    band_labels: "$\\Gamma$ X S Y $\\Gamma$ Z U R T Z"
    pdos: "1, 2"

physical_unit:
  atomic_mass: "AMU"
  length: "angstrom"
  force: "eV/angstrom"
  force_constants: "eV/angstrom^2"

space_group:
  type: "Pnma"
  number: 62
  Hall_symbol: "-P 2ac 2n"

primitive_matrix:
- [  1.000000000000000,  0.000000000000000,  0.000000000000000 ]
- [  0.000000000000000,  1.000000000000000,  0.000000000000000 ]
- [  0.000000000000000,  0.000000000000000,  1.000000000000000 ]

supercell_matrix:
- [   6,   0,   0 ]
- [   0,   6,   0 ]
- [   0,   0,   2 ]

primitive_cell:
  lattice:
  - [     3.883976269487837,     0.000000000000000,     0.000000000000000 ] # a
  - [     0.000000000000000,     4.556934773338188,     0.000000000000000 ] # b
  - [     0.000000000000000,     0.000000000000000,    11.159524748126589 ] # c
  points:
  - symbol: Ge # 1
    coordinates: [  0.250000000116039,  0.117576877878380,  0.125376839529010 ]
    mass: 72.640000
  - symbol: Ge # 2
    coordinates: [  0.750000000090253,  0.882423144649740,  0.874623145590655 ]
    mass: 72.640000
  - symbol: Ge # 3
    coordinates: [  0.750000000090253,  0.617576855405206,  0.374623145626551 ]
    mass: 72.640000
  - symbol: Ge # 4
    coordinates: [  0.250000000116039,  0.382423114813716,  0.625376854391397 ]
    mass: 72.640000
  - symbol: Se # 5
    coordinates: [  0.250000000116039,  0.504171586203313,  0.852277337598638 ]
    mass: 78.960000
  - symbol: Se # 6
    coordinates: [  0.750000000090253,  0.495828384015610,  0.147722632532994 ]
    mass: 78.960000
  - symbol: Se # 7
    coordinates: [  0.750000000090253,  0.004171606698406,  0.647722662383414 ]
    mass: 78.960000
  - symbol: Se # 8
    coordinates: [  0.250000000116039,  0.995828413851633,  0.352277367431110 ]
    mass: 78.960000
  reciprocal_lattice: # without 2pi
  - [     0.257468102433042,     0.000000000000000,     0.000000000000000 ] # a*
  - [     0.000000000000000,     0.219445756794857,     0.000000000000000 ] # b*
  - [     0.000000000000000,     0.000000000000000,     0.089609550816031 ] # c*

unit_cell:
  lattice:
  - [     3.883976269487837,     0.000000000000000,     0.000000000000000 ] # a
  - [     0.000000000000000,     4.556934773338188,     0.000000000000000 ] # b
  - [     0.000000000000000,     0.000000000000000,    11.159524748126589 ] # c
  points:
  - symbol: Ge # 1
    coordinates: [  0.250000000116039,  0.117576877878380,  0.125376839529010 ]
    mass: 72.640000
    reduced_to: 1
  - symbol: Ge # 2
    coordinates: [  0.750000000090253,  0.882423144649740,  0.874623145590655 ]
    mass: 72.640000
    reduced_to: 2
  - symbol: Ge # 3
    coordinates: [  0.750000000090253,  0.617576855405206,  0.374623145626551 ]
    mass: 72.640000
    reduced_to: 3
  - symbol: Ge # 4
    coordinates: [  0.250000000116039,  0.382423114813716,  0.625376854391397 ]
    mass: 72.640000
    reduced_to: 4
  - symbol: Se # 5
    coordinates: [  0.250000000116039,  0.504171586203313,  0.852277337598638 ]
    mass: 78.960000
    reduced_to: 5
  - symbol: Se # 6
    coordinates: [  0.750000000090253,  0.495828384015610,  0.147722632532994 ]
    mass: 78.960000
    reduced_to: 6
  - symbol: Se # 7
    coordinates: [  0.750000000090253,  0.004171606698406,  0.647722662383414 ]
    mass: 78.960000
    reduced_to: 7
  - symbol: Se # 8
    coordinates: [  0.250000000116039,  0.995828413851633,  0.352277367431110 ]
    mass: 78.960000
    reduced_to: 8

supercell:
  lattice:
  - [    23.303857616927022,     0.000000000000000,     0.000000000000000 ] # a
  - [     0.000000000000000,    27.341608640029129,     0.000000000000000 ] # b
  - [     0.000000000000000,     0.000000000000000,    22.319049496253179 ] # c
  points:
  - symbol: Ge # 1
    coordinates: [  0.041666666686006,  0.019596146313063,  0.062688419764505 ]
    mass: 72.640000
    reduced_to: 1
  - symbol: Ge # 2
    coordinates: [  0.208333333352673,  0.019596146313063,  0.062688419764505 ]
    mass: 72.640000
    reduced_to: 1
  - symbol: Ge # 3
    coordinates: [  0.375000000019340,  0.019596146313063,  0.062688419764505 ]
    mass: 72.640000
    reduced_to: 1
  - symbol: Ge # 4
    coordinates: [  0.541666666686006,  0.019596146313063,  0.062688419764505 ]
    mass: 72.640000
    reduced_to: 1
  - symbol: Ge # 5
    coordinates: [  0.708333333352673,  0.019596146313063,  0.062688419764505 ]
    mass: 72.640000
    reduced_to: 1
  - symbol: Ge # 6
    coordinates: [  0.875000000019340,  0.019596146313063,  0.062688419764505 ]
    mass: 72.640000
    reduced_to: 1
  - symbol: Ge # 7
    coordinates: [  0.041666666686006,  0.186262812979730,  0.062688419764505 ]
    mass: 72.640000
    reduced_to: 1
  - symbol: Ge # 8
    coordinates: [  0.208333333352673,  0.186262812979730,  0.062688419764505 ]
    mass: 72.640000
    reduced_to: 1
  - symbol: Ge # 9
    coordinates: [  0.375000000019340,  0.186262812979730,  0.062688419764505 ]
    mass: 72.640000
    reduced_to: 1
  - symbol: Ge # 10
    coordinates: [  0.541666666686006,  0.186262812979730,  0.062688419764505 ]
    mass: 72.640000
    reduced_to: 1
  - symbol: Ge # 11
    coordinates: [  0.708333333352673,  0.186262812979730,  0.062688419764505 ]
    mass: 72.640000
    reduced_to: 1
  - symbol: Ge # 12
    coordinates: [  0.875000000019340,  0.186262812979730,  0.062688419764505 ]
    mass: 72.640000
    reduced_to: 1
  - symbol: Ge # 13
    coordinates: [  0.041666666686006,  0.352929479646397,  0.062688419764505 ]
    mass: 72.640000
    reduced_to: 1
  - symbol: Ge # 14
    coordinates: [  0.208333333352673,  0.352929479646397,  0.062688419764505 ]
    mass: 72.640000
    reduced_to: 1
  - symbol: Ge # 15
    coordinates: [  0.375000000019340,  0.352929479646397,  0.062688419764505 ]
    mass: 72.640000
    reduced_to: 1
  - symbol: Ge # 16
    coordinates: [  0.541666666686006,  0.352929479646397,  0.062688419764505 ]
    mass: 72.640000
    reduced_to: 1
  - symbol: Ge # 17
    coordinates: [  0.708333333352673,  0.352929479646397,  0.062688419764505 ]
    mass: 72.640000
    reduced_to: 1
  - symbol: Ge # 18
    coordinates: [  0.875000000019340,  0.352929479646397,  0.062688419764505 ]
    mass: 72.640000
    reduced_to: 1
  - symbol: Ge # 19
    coordinates: [  0.041666666686006,  0.519596146313063,  0.062688419764505 ]
    mass: 72.640000
    reduced_to: 1
  - symbol: Ge # 20
    coordinates: [  0.208333333352673,  0.519596146313063,  0.062688419764505 ]
    mass: 72.640000
    reduced_to: 1
  - symbol: Ge # 21
    coordinates: [  0.375000000019340,  0.519596146313063,  0.062688419764505 ]
    mass: 72.640000
    reduced_to: 1
  - symbol: Ge # 22
    coordinates: [  0.541666666686006,  0.519596146313063,  0.062688419764505 ]
    mass: 72.640000
    reduced_to: 1
  - symbol: Ge # 23
    coordinates: [  0.708333333352673,  0.519596146313063,  0.062688419764505 ]
    mass: 72.640000
    reduced_to: 1
  - symbol: Ge # 24
    coordinates: [  0.875000000019340,  0.519596146313063,  0.062688419764505 ]
    mass: 72.640000
    reduced_to: 1
  - symbol: Ge # 25
    coordinates: [  0.041666666686006,  0.686262812979730,  0.062688419764505 ]
    mass: 72.640000
    reduced_to: 1
  - symbol: Ge # 26
    coordinates: [  0.208333333352673,  0.686262812979730,  0.062688419764505 ]
    mass: 72.640000
    reduced_to: 1
  - symbol: Ge # 27
    coordinates: [  0.375000000019340,  0.686262812979730,  0.062688419764505 ]
    mass: 72.640000
    reduced_to: 1
  - symbol: Ge # 28
    coordinates: [  0.541666666686006,  0.686262812979730,  0.062688419764505 ]
    mass: 72.640000
    reduced_to: 1
  - symbol: Ge # 29
    coordinates: [  0.708333333352673,  0.686262812979730,  0.062688419764505 ]
    mass: 72.640000
    reduced_to: 1
  - symbol: Ge # 30
    coordinates: [  0.875000000019340,  0.686262812979730,  0.062688419764505 ]
    mass: 72.640000
    reduced_to: 1
  - symbol: Ge # 31
    coordinates: [  0.041666666686006,  0.852929479646397,  0.062688419764505 ]
    mass: 72.640000
    reduced_to: 1
  - symbol: Ge # 32
    coordinates: [  0.208333333352673,  0.852929479646397,  0.062688419764505 ]
    mass: 72.640000
    reduced_to: 1
  - symbol: Ge # 33
    coordinates: [  0.375000000019340,  0.852929479646397,  0.062688419764505 ]
    mass: 72.640000
    reduced_to: 1
  - symbol: Ge # 34
    coordinates: [  0.541666666686006,  0.852929479646397,  0.062688419764505 ]
    mass: 72.640000
    reduced_to: 1
  - symbol: Ge # 35
    coordinates: [  0.708333333352673,  0.852929479646397,  0.062688419764505 ]
    mass: 72.640000
    reduced_to: 1
  - symbol: Ge # 36
    coordinates: [  0.875000000019340,  0.852929479646397,  0.062688419764505 ]
    mass: 72.640000
    reduced_to: 1
  - symbol: Ge # 37
    coordinates: [  0.041666666686006,  0.019596146313063,  0.562688419764505 ]
    mass: 72.640000
    reduced_to: 1
  - symbol: Ge # 38
    coordinates: [  0.208333333352673,  0.019596146313063,  0.562688419764505 ]
    mass: 72.640000
    reduced_to: 1
  - symbol: Ge # 39
    coordinates: [  0.375000000019340,  0.019596146313063,  0.562688419764505 ]
    mass: 72.640000
    reduced_to: 1
  - symbol: Ge # 40
    coordinates: [  0.541666666686006,  0.019596146313063,  0.562688419764505 ]
    mass: 72.640000
    reduced_to: 1
  - symbol: Ge # 41
    coordinates: [  0.708333333352673,  0.019596146313063,  0.562688419764505 ]
    mass: 72.640000
    reduced_to: 1
  - symbol: Ge # 42
    coordinates: [  0.875000000019340,  0.019596146313063,  0.562688419764505 ]
    mass: 72.640000
    reduced_to: 1
  - symbol: Ge # 43
    coordinates: [  0.041666666686006,  0.186262812979730,  0.562688419764505 ]
    mass: 72.640000
    reduced_to: 1
  - symbol: Ge # 44
    coordinates: [  0.208333333352673,  0.186262812979730,  0.562688419764505 ]
    mass: 72.640000
    reduced_to: 1
  - symbol: Ge # 45
    coordinates: [  0.375000000019340,  0.186262812979730,  0.562688419764505 ]
    mass: 72.640000
    reduced_to: 1
  - symbol: Ge # 46
    coordinates: [  0.541666666686006,  0.186262812979730,  0.562688419764505 ]
    mass: 72.640000
    reduced_to: 1
  - symbol: Ge # 47
    coordinates: [  0.708333333352673,  0.186262812979730,  0.562688419764505 ]
    mass: 72.640000
    reduced_to: 1
  - symbol: Ge # 48
    coordinates: [  0.875000000019340,  0.186262812979730,  0.562688419764505 ]
    mass: 72.640000
    reduced_to: 1
  - symbol: Ge # 49
    coordinates: [  0.041666666686006,  0.352929479646397,  0.562688419764505 ]
    mass: 72.640000
    reduced_to: 1
  - symbol: Ge # 50
    coordinates: [  0.208333333352673,  0.352929479646397,  0.562688419764505 ]
    mass: 72.640000
    reduced_to: 1
  - symbol: Ge # 51
    coordinates: [  0.375000000019340,  0.352929479646397,  0.562688419764505 ]
    mass: 72.640000
    reduced_to: 1
  - symbol: Ge # 52
    coordinates: [  0.541666666686006,  0.352929479646397,  0.562688419764505 ]
    mass: 72.640000
    reduced_to: 1
  - symbol: Ge # 53
    coordinates: [  0.708333333352673,  0.352929479646397,  0.562688419764505 ]
    mass: 72.640000
    reduced_to: 1
  - symbol: Ge # 54
    coordinates: [  0.875000000019340,  0.352929479646397,  0.562688419764505 ]
    mass: 72.640000
    reduced_to: 1
  - symbol: Ge # 55
    coordinates: [  0.041666666686006,  0.519596146313063,  0.562688419764505 ]
    mass: 72.640000
    reduced_to: 1
  - symbol: Ge # 56
    coordinates: [  0.208333333352673,  0.519596146313063,  0.562688419764505 ]
    mass: 72.640000
    reduced_to: 1
  - symbol: Ge # 57
    coordinates: [  0.375000000019340,  0.519596146313063,  0.562688419764505 ]
    mass: 72.640000
    reduced_to: 1
  - symbol: Ge # 58
    coordinates: [  0.541666666686006,  0.519596146313063,  0.562688419764505 ]
    mass: 72.640000
    reduced_to: 1
  - symbol: Ge # 59
    coordinates: [  0.708333333352673,  0.519596146313063,  0.562688419764505 ]
    mass: 72.640000
    reduced_to: 1
  - symbol: Ge # 60
    coordinates: [  0.875000000019340,  0.519596146313063,  0.562688419764505 ]
    mass: 72.640000
    reduced_to: 1
  - symbol: Ge # 61
    coordinates: [  0.041666666686006,  0.686262812979730,  0.562688419764505 ]
    mass: 72.640000
    reduced_to: 1
  - symbol: Ge # 62
    coordinates: [  0.208333333352673,  0.686262812979730,  0.562688419764505 ]
    mass: 72.640000
    reduced_to: 1
  - symbol: Ge # 63
    coordinates: [  0.375000000019340,  0.686262812979730,  0.562688419764505 ]
    mass: 72.640000
    reduced_to: 1
  - symbol: Ge # 64
    coordinates: [  0.541666666686006,  0.686262812979730,  0.562688419764505 ]
    mass: 72.640000
    reduced_to: 1
  - symbol: Ge # 65
    coordinates: [  0.708333333352673,  0.686262812979730,  0.562688419764505 ]
    mass: 72.640000
    reduced_to: 1
  - symbol: Ge # 66
    coordinates: [  0.875000000019340,  0.686262812979730,  0.562688419764505 ]
    mass: 72.640000
    reduced_to: 1
  - symbol: Ge # 67
    coordinates: [  0.041666666686006,  0.852929479646397,  0.562688419764505 ]
    mass: 72.640000
    reduced_to: 1
  - symbol: Ge # 68
    coordinates: [  0.208333333352673,  0.852929479646397,  0.562688419764505 ]
    mass: 72.640000
    reduced_to: 1
  - symbol: Ge # 69
    coordinates: [  0.375000000019340,  0.852929479646397,  0.562688419764505 ]
    mass: 72.640000
    reduced_to: 1
  - symbol: Ge # 70
    coordinates: [  0.541666666686006,  0.852929479646397,  0.562688419764505 ]
    mass: 72.640000
    reduced_to: 1
  - symbol: Ge # 71
    coordinates: [  0.708333333352673,  0.852929479646397,  0.562688419764505 ]
    mass: 72.640000
    reduced_to: 1
  - symbol: Ge # 72
    coordinates: [  0.875000000019340,  0.852929479646397,  0.562688419764505 ]
    mass: 72.640000
    reduced_to: 1
  - symbol: Ge # 73
    coordinates: [  0.125000000015042,  0.147070524108290,  0.437311572795328 ]
    mass: 72.640000
    reduced_to: 73
  - symbol: Ge # 74
    coordinates: [  0.291666666681709,  0.147070524108290,  0.437311572795328 ]
    mass: 72.640000
    reduced_to: 73
  - symbol: Ge # 75
    coordinates: [  0.458333333348376,  0.147070524108290,  0.437311572795328 ]
    mass: 72.640000
    reduced_to: 73
  - symbol: Ge # 76
    coordinates: [  0.625000000015042,  0.147070524108290,  0.437311572795328 ]
    mass: 72.640000
    reduced_to: 73
  - symbol: Ge # 77
    coordinates: [  0.791666666681709,  0.147070524108290,  0.437311572795328 ]
    mass: 72.640000
    reduced_to: 73
  - symbol: Ge # 78
    coordinates: [  0.958333333348375,  0.147070524108290,  0.437311572795328 ]
    mass: 72.640000
    reduced_to: 73
  - symbol: Ge # 79
    coordinates: [  0.125000000015042,  0.313737190774957,  0.437311572795328 ]
    mass: 72.640000
    reduced_to: 73
  - symbol: Ge # 80
    coordinates: [  0.291666666681709,  0.313737190774957,  0.437311572795328 ]
    mass: 72.640000
    reduced_to: 73
  - symbol: Ge # 81
    coordinates: [  0.458333333348376,  0.313737190774957,  0.437311572795328 ]
    mass: 72.640000
    reduced_to: 73
  - symbol: Ge # 82
    coordinates: [  0.625000000015042,  0.313737190774957,  0.437311572795328 ]
    mass: 72.640000
    reduced_to: 73
  - symbol: Ge # 83
    coordinates: [  0.791666666681709,  0.313737190774957,  0.437311572795328 ]
    mass: 72.640000
    reduced_to: 73
  - symbol: Ge # 84
    coordinates: [  0.958333333348375,  0.313737190774957,  0.437311572795328 ]
    mass: 72.640000
    reduced_to: 73
  - symbol: Ge # 85
    coordinates: [  0.125000000015042,  0.480403857441623,  0.437311572795328 ]
    mass: 72.640000
    reduced_to: 73
  - symbol: Ge # 86
    coordinates: [  0.291666666681709,  0.480403857441623,  0.437311572795328 ]
    mass: 72.640000
    reduced_to: 73
  - symbol: Ge # 87
    coordinates: [  0.458333333348376,  0.480403857441623,  0.437311572795328 ]
    mass: 72.640000
    reduced_to: 73
  - symbol: Ge # 88
    coordinates: [  0.625000000015042,  0.480403857441623,  0.437311572795328 ]
    mass: 72.640000
    reduced_to: 73
  - symbol: Ge # 89
    coordinates: [  0.791666666681709,  0.480403857441623,  0.437311572795328 ]
    mass: 72.640000
    reduced_to: 73
  - symbol: Ge # 90
    coordinates: [  0.958333333348375,  0.480403857441623,  0.437311572795328 ]
    mass: 72.640000
    reduced_to: 73
  - symbol: Ge # 91
    coordinates: [  0.125000000015042,  0.647070524108290,  0.437311572795328 ]
    mass: 72.640000
    reduced_to: 73
  - symbol: Ge # 92
    coordinates: [  0.291666666681709,  0.647070524108290,  0.437311572795328 ]
    mass: 72.640000
    reduced_to: 73
  - symbol: Ge # 93
    coordinates: [  0.458333333348376,  0.647070524108290,  0.437311572795328 ]
    mass: 72.640000
    reduced_to: 73
  - symbol: Ge # 94
    coordinates: [  0.625000000015042,  0.647070524108290,  0.437311572795328 ]
    mass: 72.640000
    reduced_to: 73
  - symbol: Ge # 95
    coordinates: [  0.791666666681709,  0.647070524108290,  0.437311572795328 ]
    mass: 72.640000
    reduced_to: 73
  - symbol: Ge # 96
    coordinates: [  0.958333333348375,  0.647070524108290,  0.437311572795328 ]
    mass: 72.640000
    reduced_to: 73
  - symbol: Ge # 97
    coordinates: [  0.125000000015042,  0.813737190774957,  0.437311572795328 ]
    mass: 72.640000
    reduced_to: 73
  - symbol: Ge # 98
    coordinates: [  0.291666666681709,  0.813737190774957,  0.437311572795328 ]
    mass: 72.640000
    reduced_to: 73
  - symbol: Ge # 99
    coordinates: [  0.458333333348376,  0.813737190774957,  0.437311572795328 ]
    mass: 72.640000
    reduced_to: 73
  - symbol: Ge # 100
    coordinates: [  0.625000000015042,  0.813737190774957,  0.437311572795328 ]
    mass: 72.640000
    reduced_to: 73
  - symbol: Ge # 101
    coordinates: [  0.791666666681709,  0.813737190774957,  0.437311572795328 ]
    mass: 72.640000
    reduced_to: 73
  - symbol: Ge # 102
    coordinates: [  0.958333333348375,  0.813737190774957,  0.437311572795328 ]
    mass: 72.640000
    reduced_to: 73
  - symbol: Ge # 103
    coordinates: [  0.125000000015042,  0.980403857441623,  0.437311572795328 ]
    mass: 72.640000
    reduced_to: 73
  - symbol: Ge # 104
    coordinates: [  0.291666666681709,  0.980403857441623,  0.437311572795328 ]
    mass: 72.640000
    reduced_to: 73
  - symbol: Ge # 105
    coordinates: [  0.458333333348376,  0.980403857441623,  0.437311572795328 ]
    mass: 72.640000
    reduced_to: 73
  - symbol: Ge # 106
    coordinates: [  0.625000000015042,  0.980403857441623,  0.437311572795328 ]
    mass: 72.640000
    reduced_to: 73
  - symbol: Ge # 107
    coordinates: [  0.791666666681709,  0.980403857441623,  0.437311572795328 ]
    mass: 72.640000
    reduced_to: 73
  - symbol: Ge # 108
    coordinates: [  0.958333333348375,  0.980403857441623,  0.437311572795328 ]
    mass: 72.640000
    reduced_to: 73
  - symbol: Ge # 109
    coordinates: [  0.125000000015042,  0.147070524108290,  0.937311572795328 ]
    mass: 72.640000
    reduced_to: 73
  - symbol: Ge # 110
    coordinates: [  0.291666666681709,  0.147070524108290,  0.937311572795328 ]
    mass: 72.640000
    reduced_to: 73
  - symbol: Ge # 111
    coordinates: [  0.458333333348376,  0.147070524108290,  0.937311572795328 ]
    mass: 72.640000
    reduced_to: 73
  - symbol: Ge # 112
    coordinates: [  0.625000000015042,  0.147070524108290,  0.937311572795328 ]
    mass: 72.640000
    reduced_to: 73
  - symbol: Ge # 113
    coordinates: [  0.791666666681709,  0.147070524108290,  0.937311572795328 ]
    mass: 72.640000
    reduced_to: 73
  - symbol: Ge # 114
    coordinates: [  0.958333333348375,  0.147070524108290,  0.937311572795328 ]
    mass: 72.640000
    reduced_to: 73
  - symbol: Ge # 115
    coordinates: [  0.125000000015042,  0.313737190774957,  0.937311572795328 ]
    mass: 72.640000
    reduced_to: 73
  - symbol: Ge # 116
    coordinates: [  0.291666666681709,  0.313737190774957,  0.937311572795328 ]
    mass: 72.640000
    reduced_to: 73
  - symbol: Ge # 117
    coordinates: [  0.458333333348376,  0.313737190774957,  0.937311572795328 ]
    mass: 72.640000
    reduced_to: 73
  - symbol: Ge # 118
    coordinates: [  0.625000000015042,  0.313737190774957,  0.937311572795328 ]
    mass: 72.640000
    reduced_to: 73
  - symbol: Ge # 119
    coordinates: [  0.791666666681709,  0.313737190774957,  0.937311572795328 ]
    mass: 72.640000
    reduced_to: 73
  - symbol: Ge # 120
    coordinates: [  0.958333333348375,  0.313737190774957,  0.937311572795328 ]
    mass: 72.640000
    reduced_to: 73
  - symbol: Ge # 121
    coordinates: [  0.125000000015042,  0.480403857441623,  0.937311572795328 ]
    mass: 72.640000
    reduced_to: 73
  - symbol: Ge # 122
    coordinates: [  0.291666666681709,  0.480403857441623,  0.937311572795328 ]
    mass: 72.640000
    reduced_to: 73
  - symbol: Ge # 123
    coordinates: [  0.458333333348376,  0.480403857441623,  0.937311572795328 ]
    mass: 72.640000
    reduced_to: 73
  - symbol: Ge # 124
    coordinates: [  0.625000000015042,  0.480403857441623,  0.937311572795328 ]
    mass: 72.640000
    reduced_to: 73
  - symbol: Ge # 125
    coordinates: [  0.791666666681709,  0.480403857441623,  0.937311572795328 ]
    mass: 72.640000
    reduced_to: 73
  - symbol: Ge # 126
    coordinates: [  0.958333333348375,  0.480403857441623,  0.937311572795328 ]
    mass: 72.640000
    reduced_to: 73
  - symbol: Ge # 127
    coordinates: [  0.125000000015042,  0.647070524108290,  0.937311572795328 ]
    mass: 72.640000
    reduced_to: 73
  - symbol: Ge # 128
    coordinates: [  0.291666666681709,  0.647070524108290,  0.937311572795328 ]
    mass: 72.640000
    reduced_to: 73
  - symbol: Ge # 129
    coordinates: [  0.458333333348376,  0.647070524108290,  0.937311572795328 ]
    mass: 72.640000
    reduced_to: 73
  - symbol: Ge # 130
    coordinates: [  0.625000000015042,  0.647070524108290,  0.937311572795328 ]
    mass: 72.640000
    reduced_to: 73
  - symbol: Ge # 131
    coordinates: [  0.791666666681709,  0.647070524108290,  0.937311572795328 ]
    mass: 72.640000
    reduced_to: 73
  - symbol: Ge # 132
    coordinates: [  0.958333333348375,  0.647070524108290,  0.937311572795328 ]
    mass: 72.640000
    reduced_to: 73
  - symbol: Ge # 133
    coordinates: [  0.125000000015042,  0.813737190774957,  0.937311572795328 ]
    mass: 72.640000
    reduced_to: 73
  - symbol: Ge # 134
    coordinates: [  0.291666666681709,  0.813737190774957,  0.937311572795328 ]
    mass: 72.640000
    reduced_to: 73
  - symbol: Ge # 135
    coordinates: [  0.458333333348376,  0.813737190774957,  0.937311572795328 ]
    mass: 72.640000
    reduced_to: 73
  - symbol: Ge # 136
    coordinates: [  0.625000000015042,  0.813737190774957,  0.937311572795328 ]
    mass: 72.640000
    reduced_to: 73
  - symbol: Ge # 137
    coordinates: [  0.791666666681709,  0.813737190774957,  0.937311572795328 ]
    mass: 72.640000
    reduced_to: 73
  - symbol: Ge # 138
    coordinates: [  0.958333333348375,  0.813737190774957,  0.937311572795328 ]
    mass: 72.640000
    reduced_to: 73
  - symbol: Ge # 139
    coordinates: [  0.125000000015042,  0.980403857441623,  0.937311572795328 ]
    mass: 72.640000
    reduced_to: 73
  - symbol: Ge # 140
    coordinates: [  0.291666666681709,  0.980403857441623,  0.937311572795328 ]
    mass: 72.640000
    reduced_to: 73
  - symbol: Ge # 141
    coordinates: [  0.458333333348376,  0.980403857441623,  0.937311572795328 ]
    mass: 72.640000
    reduced_to: 73
  - symbol: Ge # 142
    coordinates: [  0.625000000015042,  0.980403857441623,  0.937311572795328 ]
    mass: 72.640000
    reduced_to: 73
  - symbol: Ge # 143
    coordinates: [  0.791666666681709,  0.980403857441623,  0.937311572795328 ]
    mass: 72.640000
    reduced_to: 73
  - symbol: Ge # 144
    coordinates: [  0.958333333348375,  0.980403857441623,  0.937311572795328 ]
    mass: 72.640000
    reduced_to: 73
  - symbol: Ge # 145
    coordinates: [  0.125000000015042,  0.102929475900868,  0.187311572813276 ]
    mass: 72.640000
    reduced_to: 145
  - symbol: Ge # 146
    coordinates: [  0.291666666681709,  0.102929475900868,  0.187311572813276 ]
    mass: 72.640000
    reduced_to: 145
  - symbol: Ge # 147
    coordinates: [  0.458333333348376,  0.102929475900868,  0.187311572813276 ]
    mass: 72.640000
    reduced_to: 145
  - symbol: Ge # 148
    coordinates: [  0.625000000015042,  0.102929475900868,  0.187311572813276 ]
    mass: 72.640000
    reduced_to: 145
  - symbol: Ge # 149
    coordinates: [  0.791666666681709,  0.102929475900868,  0.187311572813276 ]
    mass: 72.640000
    reduced_to: 145
  - symbol: Ge # 150
    coordinates: [  0.958333333348375,  0.102929475900868,  0.187311572813276 ]
    mass: 72.640000
    reduced_to: 145
  - symbol: Ge # 151
    coordinates: [  0.125000000015042,  0.269596142567534,  0.187311572813276 ]
    mass: 72.640000
    reduced_to: 145
  - symbol: Ge # 152
    coordinates: [  0.291666666681709,  0.269596142567534,  0.187311572813276 ]
    mass: 72.640000
    reduced_to: 145
  - symbol: Ge # 153
    coordinates: [  0.458333333348376,  0.269596142567534,  0.187311572813276 ]
    mass: 72.640000
    reduced_to: 145
  - symbol: Ge # 154
    coordinates: [  0.625000000015042,  0.269596142567534,  0.187311572813276 ]
    mass: 72.640000
    reduced_to: 145
  - symbol: Ge # 155
    coordinates: [  0.791666666681709,  0.269596142567534,  0.187311572813276 ]
    mass: 72.640000
    reduced_to: 145
  - symbol: Ge # 156
    coordinates: [  0.958333333348375,  0.269596142567534,  0.187311572813276 ]
    mass: 72.640000
    reduced_to: 145
  - symbol: Ge # 157
    coordinates: [  0.125000000015042,  0.436262809234201,  0.187311572813276 ]
    mass: 72.640000
    reduced_to: 145
  - symbol: Ge # 158
    coordinates: [  0.291666666681709,  0.436262809234201,  0.187311572813276 ]
    mass: 72.640000
    reduced_to: 145
  - symbol: Ge # 159
    coordinates: [  0.458333333348376,  0.436262809234201,  0.187311572813276 ]
    mass: 72.640000
    reduced_to: 145
  - symbol: Ge # 160
    coordinates: [  0.625000000015042,  0.436262809234201,  0.187311572813276 ]
    mass: 72.640000
    reduced_to: 145
  - symbol: Ge # 161
    coordinates: [  0.791666666681709,  0.436262809234201,  0.187311572813276 ]
    mass: 72.640000
    reduced_to: 145
  - symbol: Ge # 162
    coordinates: [  0.958333333348375,  0.436262809234201,  0.187311572813276 ]
    mass: 72.640000
    reduced_to: 145
  - symbol: Ge # 163
    coordinates: [  0.125000000015042,  0.602929475900868,  0.187311572813276 ]
    mass: 72.640000
    reduced_to: 145
  - symbol: Ge # 164
    coordinates: [  0.291666666681709,  0.602929475900868,  0.187311572813276 ]
    mass: 72.640000
    reduced_to: 145
  - symbol: Ge # 165
    coordinates: [  0.458333333348376,  0.602929475900868,  0.187311572813276 ]
    mass: 72.640000
    reduced_to: 145
  - symbol: Ge # 166
    coordinates: [  0.625000000015042,  0.602929475900868,  0.187311572813276 ]
    mass: 72.640000
    reduced_to: 145
  - symbol: Ge # 167
    coordinates: [  0.791666666681709,  0.602929475900868,  0.187311572813276 ]
    mass: 72.640000
    reduced_to: 145
  - symbol: Ge # 168
    coordinates: [  0.958333333348375,  0.602929475900868,  0.187311572813276 ]
    mass: 72.640000
    reduced_to: 145
  - symbol: Ge # 169
    coordinates: [  0.125000000015042,  0.769596142567534,  0.187311572813276 ]
    mass: 72.640000
    reduced_to: 145
  - symbol: Ge # 170
    coordinates: [  0.291666666681709,  0.769596142567534,  0.187311572813276 ]
    mass: 72.640000
    reduced_to: 145
  - symbol: Ge # 171
    coordinates: [  0.458333333348376,  0.769596142567534,  0.187311572813276 ]
    mass: 72.640000
    reduced_to: 145
  - symbol: Ge # 172
    coordinates: [  0.625000000015042,  0.769596142567534,  0.187311572813276 ]
    mass: 72.640000
    reduced_to: 145
  - symbol: Ge # 173
    coordinates: [  0.791666666681709,  0.769596142567534,  0.187311572813276 ]
    mass: 72.640000
    reduced_to: 145
  - symbol: Ge # 174
    coordinates: [  0.958333333348375,  0.769596142567534,  0.187311572813276 ]
    mass: 72.640000
    reduced_to: 145
  - symbol: Ge # 175
    coordinates: [  0.125000000015042,  0.936262809234201,  0.187311572813276 ]
    mass: 72.640000
    reduced_to: 145
  - symbol: Ge # 176
    coordinates: [  0.291666666681709,  0.936262809234201,  0.187311572813276 ]
    mass: 72.640000
    reduced_to: 145
  - symbol: Ge # 177
    coordinates: [  0.458333333348376,  0.936262809234201,  0.187311572813276 ]
    mass: 72.640000
    reduced_to: 145
  - symbol: Ge # 178
    coordinates: [  0.625000000015042,  0.936262809234201,  0.187311572813276 ]
    mass: 72.640000
    reduced_to: 145
  - symbol: Ge # 179
    coordinates: [  0.791666666681709,  0.936262809234201,  0.187311572813276 ]
    mass: 72.640000
    reduced_to: 145
  - symbol: Ge # 180
    coordinates: [  0.958333333348375,  0.936262809234201,  0.187311572813276 ]
    mass: 72.640000
    reduced_to: 145
  - symbol: Ge # 181
    coordinates: [  0.125000000015042,  0.102929475900868,  0.687311572813275 ]
    mass: 72.640000
    reduced_to: 145
  - symbol: Ge # 182
    coordinates: [  0.291666666681709,  0.102929475900868,  0.687311572813275 ]
    mass: 72.640000
    reduced_to: 145
  - symbol: Ge # 183
    coordinates: [  0.458333333348376,  0.102929475900868,  0.687311572813275 ]
    mass: 72.640000
    reduced_to: 145
  - symbol: Ge # 184
    coordinates: [  0.625000000015042,  0.102929475900868,  0.687311572813275 ]
    mass: 72.640000
    reduced_to: 145
  - symbol: Ge # 185
    coordinates: [  0.791666666681709,  0.102929475900868,  0.687311572813275 ]
    mass: 72.640000
    reduced_to: 145
  - symbol: Ge # 186
    coordinates: [  0.958333333348375,  0.102929475900868,  0.687311572813275 ]
    mass: 72.640000
    reduced_to: 145
  - symbol: Ge # 187