 vasp.6.4.2 20Jul23 (build Oct 12 2023 10:31:02) complex                         
 executed on              LinuxNV date 2025.05.28  03:43:34
 running  128 mpi-ranks, with    1 threads/rank, on    2 nodes
 distrk:  each k-point on   64 cores,    2 groups
 distr:  one band on NCORE=   4 cores,   16 groups


--------------------------------------------------------------------------------------------------------


 INCAR:
   ENCUT = 360.000000
   SIGMA = 0.050000
   EDIFF = 1.00e-06
   ALGO = Normal
   GGA = PE
   PREC = Normal
   SYSTEM = ./
   ICHARG = 2
   ISMEAR = 0
   ISPIN = 1
   ISTART = 0
   ISYM = 0
   KPAR = 2
   LMAXMIX = 4
   NELM = 100
   NPAR = 16
   LASPH = .TRUE.
   LCHARG = .FALSE.
   LWAVE = .FALSE.

 POTCAR:    PAW_PBE Ge 05Jan2001                  
 POTCAR:    PAW_PBE Se 06Sep2000                  
 POTCAR:    PAW_PBE Ge 05Jan2001                  
   VRHFIN =Ge: s2p2                                                                                 
   LEXCH  = PE                                                                                      
   EATOM  =   104.9960 eV,    7.7170 Ry                                                             
                                                                                                    
   TITEL  = PAW_PBE Ge 05Jan2001                                                                    
   LULTRA =        F    use ultrasoft PP ?                                                          
   IUNSCR =        1    unscreen: 0-lin 1-nonlin 2-no                                               
   RPACOR =    2.170    partial core radius                                                         
   POMASS =   72.610; ZVAL   =    4.000    mass and valenz                                          
   RCORE  =    2.300    outmost cutoff radius                                                       
   RWIGS  =    2.300; RWIGS  =    1.217    wigner-seitz radius (au A)                               
   ENMAX  =  173.807; ENMIN  =  130.355 eV                                                          
   ICORE  =        3    local potential                                                             
   LCOR   =        T    correct aug charges                                                         
   LPAW   =        T    paw PP                                                                      
   EAUG   =  385.843                                                                                
   DEXC   =    0.000                                                                                
   RMAX   =    2.342    core radius for proj-oper                                                   
   RAUG   =    1.300    factor for augmentation sphere                                              
   RDEP   =    2.318    radius for radial grids                                                     
   RDEPT  =    2.103    core radius for aug-charge                                                  
                                                                                                    
   Atomic configuration                                                                             
   10 entries                                                                                       
     n  l   j            E        occ.                                                              
     1  0  0.50    -10959.8463   2.0000                                                             
     2  0  0.50     -1371.6056   2.0000                                                             
     2  1  1.50     -1198.4791   6.0000                                                             
     3  0  0.50      -168.4733   2.0000                                                             
     3  1  1.50      -115.6019   6.0000                                                             
     3  2  2.50       -29.3106  10.0000                                                             
     4  0  0.50       -11.7309   2.0000                                                             
     4  1  0.50        -3.8952   2.0000                                                             
     4  2  1.50        -4.0817   0.0000                                                             
     4  3  2.50        -4.0817   0.0000                                                             
   Description                                                                                      
     l       E           TYP  RCUT    TYP  RCUT                                                     
     0    -11.7309493     23  2.300                                                                 
     0     -7.4578696     23  2.300                                                                 
     1     -3.8952261     23  2.300                                                                 
     1      6.1178114     23  2.300                                                                 
     2     -4.0817478     23  2.300                                                                 
     3     -1.3605826      7  2.300                                                                 
  local pseudopotential read in
  partial core-charges read in
  partial kinetic energy density read in
  atomic valenz-charges read in
  non local Contribution for L=            0  read in
    real space projection operators read in
  non local Contribution for L=            0  read in
    real space projection operators read in
  non local Contribution for L=            1  read in
    real space projection operators read in
  non local Contribution for L=            1  read in
    real space projection operators read in
  non local Contribution for L=            2  read in
    real space projection operators read in
    PAW grid and wavefunctions read in
 
   number of l-projection  operators is LMAX  =            5
   number of lm-projection operators is LMMAX =           13
 
 POTCAR:    PAW_PBE Se 06Sep2000                  
   VRHFIN =Se: s2p4                                                                                 
   LEXCH  = PE                                                                                      
   EATOM  =   257.1286 eV,   18.8984 Ry                                                             
                                                                                                    
   TITEL  = PAW_PBE Se 06Sep2000                                                                    
   LULTRA =        F    use ultrasoft PP ?                                                          
   IUNSCR =        1    unscreen: 0-lin 1-nonlin 2-no                                               
   RPACOR =    1.900    partial core radius                                                         
   POMASS =   78.960; ZVAL   =    6.000    mass and valenz                                          
   RCORE  =    2.100    outmost cutoff radius                                                       
   RWIGS  =    2.200; RWIGS  =    1.164    wigner-seitz radius (au A)                               
   ENMAX  =  211.555; ENMIN  =  158.666 eV                                                          
   ICORE  =        3    local potential                                                             
   LCOR   =        T    correct aug charges                                                         
   LPAW   =        T    paw PP                                                                      
   EAUG   =  446.842                                                                                
   DEXC   =    0.000                                                                                
   RMAX   =    2.147    core radius for proj-oper                                                   
   RAUG   =    1.300    factor for augmentation sphere                                              
   RDEP   =    2.177    radius for radial grids                                                     
   RDEPT  =    1.928    core radius for aug-charge                                                  
                                                                                                    
   Atomic configuration                                                                             
   10 entries                                                                                       
     n  l   j            E        occ.                                                              
     1  0  0.50    -12503.4787   2.0000                                                             
     2  0  0.50     -1606.9547   2.0000                                                             
     2  1  1.50     -1413.3140   6.0000                                                             
     3  0  0.50      -213.4885   2.0000                                                             
     3  1  1.50      -152.9538   6.0000                                                             
     3  2  2.50       -53.1221  10.0000                                                             
     4  0  0.50       -17.2865   2.0000                                                             
     4  1  0.50        -6.5110   4.0000                                                             
     4  2  2.50        -6.8029   0.0000                                                             
     4  3  2.50        -6.8029   0.0000                                                             
   Description                                                                                      
     l       E           TYP  RCUT    TYP  RCUT                                                     
     0    -17.2865377     23  2.100                                                                 
     0    -15.3094411     23  2.100                                                                 
     1     -6.5110275     23  2.100                                                                 
     1     -0.0695192     23  2.100                                                                 
     2     -6.8029130     23  2.100                                                                 
     3     -1.3605826      7  2.100                                                                 
  local pseudopotential read in
  partial core-charges read in
  partial kinetic energy density read in
  atomic valenz-charges read in
  non local Contribution for L=            0  read in
    real space projection operators read in
  non local Contribution for L=            0  read in
    real space projection operators read in
  non local Contribution for L=            1  read in
    real space projection operators read in
  non local Contribution for L=            1  read in
    real space projection operators read in
  non local Contribution for L=            2  read in
    real space projection operators read in
    PAW grid and wavefunctions read in
 
   number of l-projection  operators is LMAX  =            5
   number of lm-projection operators is LMMAX =           13
 
  PAW_PBE Ge 05Jan2001                  :
 energy of atom  1       EATOM= -104.9960
 kinetic energy error for atom=    0.0005 (will be added to EATOM!!)
  PAW_PBE Se 06Sep2000                  :
 energy of atom  2       EATOM= -257.1286
 kinetic energy error for atom=    0.0030 (will be added to EATOM!!)
 
 
 POSCAR: Ge Se
  positions in cartesian coordinates
  No initial velocities read in
 exchange correlation table for  LEXCH =        8
   RHO(1)=    0.500       N(1)  =     2000
   RHO(2)=  100.500       N(2)  =     4000
 


--------------------------------------------------------------------------------------------------------


 ion  position               nearest neighbor table
   1  0.250  0.098  0.130-   5 2.58   6 2.63   6 2.63
   2  0.750  0.598  0.370-   6 2.58   5 2.63   5 2.63
   3  0.750  0.902  0.870-   7 2.58   8 2.63   8 2.63
   4  0.250  0.402  0.630-   8 2.58   7 2.63   7 2.63
   5  0.250  0.019  0.360-   1 2.58   2 2.63   2 2.63
   6  0.750  0.519  0.140-   2 2.58   1 2.63   1 2.63
   7  0.750  0.981  0.640-   3 2.58   4 2.63   4 2.63
   8  0.250  0.481  0.860-   4 2.58   3 2.63   3 2.63
 

IMPORTANT INFORMATION: All symmetrisations will be switched off!
NOSYMM: (Re-)initialisation of all symmetry stuff for point group C_1.


----------------------------------------------------------------------------------------

                                     Primitive cell                                     

  volume of cell :     180.5040

  direct lattice vectors                    reciprocal lattice vectors
     4.000000000  0.000000000  0.000000000     0.250000000  0.000000000  0.000000000
     0.000000000  4.050000000  0.000000000     0.000000000  0.246913580  0.000000000
     0.000000000  0.000000000 11.142221000     0.000000000  0.000000000  0.089748713

  length of vectors
     4.000000000  4.050000000 11.142221000     0.250000000  0.246913580  0.089748713

  position of ions in fractional coordinates (direct lattice)
     0.250000000  0.097602110  0.130338342
     0.750000000  0.597602110  0.369661658
     0.750000000  0.902397890  0.869661658
     0.250000000  0.402397890  0.630338342
     0.250000000  0.018647710  0.359850397
     0.750000000  0.518647710  0.140149603
     0.750000000  0.981352290  0.640149603
     0.250000000  0.481352290  0.859850397

  ion indices of the primitive-cell ions
   primitive index   ion index
                 1           1
                 2           2
                 3           3
                 4           4
                 5           5
                 6           6
                 7           7
                 8           8

----------------------------------------------------------------------------------------

 
 
 KPOINTS: KPOINTS created by Atomic Simulation Env

Automatic generation of k-mesh.
 Grid dimensions read from file:
 generate k-points for:    6    6    2

 Generating k-lattice:

  Cartesian coordinates                     Fractional coordinates (reciprocal lattice)
     0.041666667  0.000000000  0.000000000     0.166666667  0.000000000  0.000000000
     0.000000000  0.041152263  0.000000000     0.000000000  0.166666667  0.000000000
     0.000000000  0.000000000  0.044874357     0.000000000  0.000000000  0.500000000

  Length of vectors
     0.041666667  0.041152263  0.044874357

  Shift w.r.t. Gamma in fractional coordinates (k-lattice)
     0.000000000  0.000000000  0.000000000

 
 Subroutine IBZKPT returns following result:
 ===========================================
 
 Found     40 irreducible k-points:
 
 Following reciprocal coordinates:
            Coordinates               Weight
  0.000000  0.000000  0.000000      1.000000
  0.166667  0.000000  0.000000      2.000000
  0.333333  0.000000  0.000000      2.000000
  0.500000  0.000000  0.000000      1.000000
  0.000000  0.166667  0.000000      2.000000
  0.166667  0.166667  0.000000      2.000000
  0.166667 -0.166667  0.000000      2.000000
  0.333333  0.166667  0.000000      2.000000
  0.333333 -0.166667  0.000000      2.000000
  0.500000  0.166667  0.000000      2.000000
  0.000000  0.333333  0.000000      2.000000
  0.166667  0.333333  0.000000      2.000000
  0.166667 -0.333333  0.000000      2.000000
  0.333333  0.333333  0.000000      2.000000
  0.333333 -0.333333  0.000000      2.000000
  0.500000  0.333333  0.000000      2.000000
  0.000000  0.500000  0.000000      1.000000
  0.166667  0.500000  0.000000      2.000000
  0.333333  0.500000  0.000000      2.000000
  0.500000  0.500000  0.000000      1.000000
  0.000000  0.000000  0.500000      1.000000
  0.166667  0.000000  0.500000      2.000000
  0.333333  0.000000  0.500000      2.000000
  0.500000  0.000000  0.500000      1.000000
  0.000000  0.166667  0.500000      2.000000
  0.166667  0.166667  0.500000      2.000000
  0.166667 -0.166667  0.500000      2.000000
  0.333333  0.166667  0.500000      2.000000
  0.333333 -0.166667  0.500000      2.000000
  0.500000  0.166667  0.500000      2.000000
  0.000000  0.333333  0.500000      2.000000
  0.166667  0.333333  0.500000      2.000000
  0.166667 -0.333333  0.500000      2.000000
  0.333333  0.333333  0.500000      2.000000
  0.333333 -0.333333  0.500000      2.000000
  0.500000  0.333333  0.500000      2.000000
  0.000000  0.500000  0.500000      1.000000
  0.166667  0.500000  0.500000      2.000000
  0.333333  0.500000  0.500000      2.000000
  0.500000  0.500000  0.500000      1.000000
 
 Following cartesian coordinates:
            Coordinates               Weight
  0.000000  0.000000  0.000000      1.000000
  0.041667  0.000000  0.000000      2.000000
  0.083333  0.000000  0.000000      2.000000
  0.125000  0.000000  0.000000      1.000000
  0.000000  0.041152  0.000000      2.000000
  0.041667  0.041152  0.000000      2.000000
  0.041667 -0.041152  0.000000      2.000000
  0.083333  0.041152  0.000000      2.000000
  0.083333 -0.041152  0.000000      2.000000
  0.125000  0.041152  0.000000      2.000000
  0.000000  0.082305  0.000000      2.000000
  0.041667  0.082305  0.000000      2.000000
  0.041667 -0.082305  0.000000      2.000000
  0.083333  0.082305  0.000000      2.000000
  0.083333 -0.082305  0.000000      2.000000
  0.125000  0.082305  0.000000      2.000000
  0.000000  0.123457  0.000000      1.000000
  0.041667  0.123457  0.000000      2.000000
  0.083333  0.123457  0.000000      2.000000
  0.125000  0.123457  0.000000      1.000000
  0.000000  0.000000  0.044874      1.000000
  0.041667  0.000000  0.044874      2.000000
  0.083333  0.000000  0.044874      2.000000
  0.125000  0.000000  0.044874      1.000000
  0.000000  0.041152  0.044874      2.000000
  0.041667  0.041152  0.044874      2.000000
  0.041667 -0.041152  0.044874      2.000000
  0.083333  0.041152  0.044874      2.000000
  0.083333 -0.041152  0.044874      2.000000
  0.125000  0.041152  0.044874      2.000000
  0.000000  0.082305  0.044874      2.000000
  0.041667  0.082305  0.044874      2.000000
  0.041667 -0.082305  0.044874      2.000000
  0.083333  0.082305  0.044874      2.000000
  0.083333 -0.082305  0.044874      2.000000
  0.125000  0.082305  0.044874      2.000000
  0.000000  0.123457  0.044874      1.000000
  0.041667  0.123457  0.044874      2.000000
  0.083333  0.123457  0.044874      2.000000
  0.125000  0.123457  0.044874      1.000000
 


--------------------------------------------------------------------------------------------------------




 Dimension of arrays:
   k-points           NKPTS =     40   k-points in BZ     NKDIM =     40   number of bands    NBANDS=     32
   number of dos      NEDOS =    301   number of ions     NIONS =      8
   non local maximal  LDIM  =      5   non local SUM 2l+1 LMDIM =     13
   total plane-waves  NPLWV =  21600
   max r-space proj   IRMAX =      1   max aug-charges    IRDMAX=   6703
   dimension x,y,z NGX =    20 NGY =   20 NGZ =   54
   dimension x,y,z NGXF=    40 NGYF=   40 NGZF=  108
   support grid    NGXF=    40 NGYF=   40 NGZF=  108
   ions per type =               4   4
   NGX,Y,Z   is equivalent  to a cutoff of   8.31,  8.21,  8.06 a.u.
   NGXF,Y,Z  is equivalent  to a cutoff of  16.62, 16.42, 16.11 a.u.

 SYSTEM =  ./                                      
 POSCAR =  Ge Se                                   

 Startparameter for this run:
   NWRITE =      2    write-flag & timer
   PREC   = normal    normal or accurate (medium, high low for compatibility)
   ISTART =      0    job   : 0-new  1-cont  2-samecut
   ICHARG =      2    charge: 1-file 2-atom 10-const
   ISPIN  =      1    spin polarized calculation?
   LNONCOLLINEAR =      F non collinear calculations
   LSORBIT =      F    spin-orbit coupling
   INIWAV =      1    electr: 0-lowe 1-rand  2-diag
   LASPH  =      T    aspherical Exc in radial PAW
 Electronic Relaxation 1
   ENCUT  =  360.0 eV  26.46 Ry    5.14 a.u.   6.19  6.27 17.24*2*pi/ulx,y,z
   ENINI  =  360.0     initial cutoff
   ENAUG  =  446.8 eV  augmentation charge cutoff
   NELM   =    100;   NELMIN=  2; NELMDL= -5     # of ELM steps 
   EDIFF  = 0.1E-05   stopping-criterion for ELM
   LREAL  =      F    real-space projection
   NLSPLINE    = F    spline interpolate recip. space projectors
   LCOMPAT=      F    compatible to vasp.4.4
   GGA_COMPAT  = T    GGA compatible to vasp.4.4-vasp.4.6
   LMAXPAW     = -100 max onsite density
   LMAXMIX     =    4 max onsite mixed and CHGCAR
   VOSKOWN=      0    Vosko Wilk Nusair interpolation
   ROPT   =    0.00000   0.00000
 Ionic relaxation
   EDIFFG = 0.1E-04   stopping-criterion for IOM
   NSW    =      0    number of steps for IOM
   NBLOCK =      1;   KBLOCK =      1    inner block; outer block 
   IBRION =     -1    ionic relax: 0-MD 1-quasi-New 2-CG
   NFREE  =      0    steps in history (QN), initial steepest desc. (CG)
   ISIF   =      2    stress and relaxation
   IWAVPR =     10    prediction:  0-non 1-charg 2-wave 3-comb
   ISYM   =      0    0-nonsym 1-usesym 2-fastsym
   LCORR  =      T    Harris-Foulkes like correction to forces

   POTIM  = 0.5000    time-step for ionic-motion
   TEIN   =    0.0    initial temperature
   TEBEG  =    0.0;   TEEND  =   0.0 temperature during run
   SMASS  =  -3.00    Nose mass-parameter (am)
   estimated Nose-frequenzy (Omega)   =  0.10E-29 period in steps = 0.13E+47 mass=  -0.366E-27a.u.
   SCALEE = 1.0000    scale energy and forces
   NPACO  =    256;   APACO  = 10.0  distance and # of slots for P.C.
   PSTRESS=    0.0 pullay stress

  Mass of Ions in am
   POMASS =  72.61 78.96
  Ionic Valenz
   ZVAL   =   4.00  6.00
  Atomic Wigner-Seitz radii
   RWIGS  =  -1.00 -1.00
  virtual crystal weights 
   VCA    =   1.00  1.00
   NELECT =      40.0000    total number of electrons
   NUPDOWN=      -1.0000    fix difference up-down

 DOS related values:
   EMIN   =  10.00;   EMAX   =-10.00  energy-range for DOS
   EFERMI =   0.00;   METHOD = LEGACY      
   ISMEAR =     0;   SIGMA  =   0.05  broadening in eV -4-tet -1-fermi 0-gaus

 Electronic relaxation 2 (details)
   IALGO  =     38    algorithm
   LDIAG  =      T    sub-space diagonalisation (order eigenvalues)
   LSUBROT=      F    optimize rotation matrix (better conditioning)
   TURBO    =      0    0=normal 1=particle mesh
   IRESTART =      0    0=no restart 2=restart with 2 vectors
   NREBOOT  =      0    no. of reboots
   NMIN     =      0    reboot dimension
   EREF     =   0.00    reference energy to select bands
   IMIX   =      4    mixing-type and parameters
     AMIX     =   0.40;   BMIX     =  1.00
     AMIX_MAG =   1.60;   BMIX_MAG =  1.00
     AMIN     =   0.10
     WC   =   100.;   INIMIX=   1;  MIXPRE=   1;  MAXMIX= -45

 Intra band minimization:
   WEIMIN = 0.0000     energy-eigenvalue tresh-hold
   EBREAK =  0.78E-08  absolut break condition
   DEPER  =   0.30     relativ break condition  

   TIME   =   0.40     timestep for ELM

  volume/ion in A,a.u.               =      22.56       152.26
  Fermi-wavevector in a.u.,A,eV,Ry     =   0.990678  1.872110 13.353344  0.981443
  Thomas-Fermi vector in A             =   2.122366
 
 Write flags
   LWAVE        =      F    write WAVECAR
   LDOWNSAMPLE  =      F    k-point downsampling of WAVECAR
   LCHARG       =      F    write CHGCAR
   LVTOT        =      F    write LOCPOT, total local potential
   LVHAR        =      F    write LOCPOT, Hartree potential only
   LELF         =      F    write electronic localiz. function (ELF)
   LORBIT       =      0    0 simple, 1 ext, 2 COOP (PROOUT), +10 PAW based schemes


 Dipole corrections
   LMONO  =      F    monopole corrections only (constant potential shift)
   LDIPOL =      F    correct potential (dipole corrections)
   IDIPOL =      0    1-x, 2-y, 3-z, 4-all directions 
   EPSILON=  1.0000000 bulk dielectric constant

 Exchange correlation treatment:
   GGA     =    PE    GGA type
   LEXCH   =     8    internal setting for exchange type
   LIBXC   =     F    Libxc                    
   VOSKOWN =     0    Vosko Wilk Nusair interpolation
   LHFCALC =     F    Hartree Fock is set to
   LHFONE  =     F    Hartree Fock one center treatment
   AEXX    =    0.0000 exact exchange contribution

 Linear response parameters
   LEPSILON=     F    determine dielectric tensor
   LRPA    =     F    only Hartree local field effects (RPA)
   LNABLA  =     F    use nabla operator in PAW spheres
   LVEL    =     F    velocity operator in full k-point grid
   CSHIFT  =0.1000    complex shift for real part using Kramers Kronig
   OMEGAMAX=  -1.0    maximum frequency
   DEG_THRESHOLD= 0.2000000E-02 threshold for treating states as degnerate
   RTIME   =   -0.100 relaxation time in fs
  (WPLASMAI=    0.000 imaginary part of plasma frequency in eV, 0.658/RTIME)
   DFIELD  = 0.0000000 0.0000000 0.0000000 field for delta impulse in time
 
  Optional k-point grid parameters
   LKPOINTS_OPT  =     F    use optional k-point grid
   KPOINTS_OPT_MODE=     1    mode for optional k-point grid
 
 Orbital magnetization related:
   ORBITALMAG=     F  switch on orbital magnetization
   LCHIMAG   =     F  perturbation theory with respect to B field
   DQ        =  0.001000  dq finite difference perturbation B field
   LLRAUG    =     F  two centre corrections for induced B field
   LBONE     =     F  B-component reconstruction in AE one-centre
   LVGVCALC  =     T  calculate vGv susceptibility
   LVGVAPPL  =     F  apply vGv susceptibility instead of pGv for G=0

 Random number generation:
   RANDOM_GENERATOR = DEFAULT
   PCG_SEED         = not used


--------------------------------------------------------------------------------------------------------


 Static calculation
 charge density and potential will be updated during run
 non-spin polarized calculation
 Variant of blocked Davidson
 Davidson routine will perform the subspace rotation
 perform sub-space diagonalisation
    after iterative eigenvector-optimisation
 modified Broyden-mixing scheme, WC =      100.0
 initial mixing is a Kerker type mixing with AMIX =  0.4000 and BMIX =      1.0000
 Hartree-type preconditioning will be used
 using additional bands            12
 reciprocal scheme for non local part
 use partial core corrections
 calculate Harris-corrections to forces 
   (improved forces if not selfconsistent)
 use gradient corrections 
 use of overlap-Matrix (Vanderbilt PP)
 Gauss-broadening in eV      SIGMA  =   0.05


--------------------------------------------------------------------------------------------------------


  energy-cutoff  :      360.00
  volume of cell :      180.50
      direct lattice vectors                 reciprocal lattice vectors
     4.000000000  0.000000000  0.000000000     0.250000000  0.000000000  0.000000000
     0.000000000  4.050000000  0.000000000     0.000000000  0.246913580  0.000000000
     0.000000000  0.000000000 11.142221000     0.000000000  0.000000000  0.089748713

  length of vectors
     4.000000000  4.050000000 11.142221000     0.250000000  0.246913580  0.089748713


 
 k-points in units of 2pi/SCALE and weight: KPOINTS created by Atomic Simulation Env
   0.00000000  0.00000000  0.00000000       0.014
   0.04166667  0.00000000  0.00000000       0.028
   0.08333333  0.00000000  0.00000000       0.028
   0.12500000  0.00000000  0.00000000       0.014
   0.00000000  0.04115226  0.00000000       0.028
   0.04166667  0.04115226  0.00000000       0.028
   0.04166667 -0.04115226  0.00000000       0.028
   0.08333333  0.04115226  0.00000000       0.028
   0.08333333 -0.04115226  0.00000000       0.028
   0.12500000  0.04115226  0.00000000       0.028
   0.00000000  0.08230453  0.00000000       0.028
   0.04166667  0.08230453  0.00000000       0.028
   0.04166667 -0.08230453  0.00000000       0.028
   0.08333333  0.08230453  0.00000000       0.028
   0.08333333 -0.08230453  0.00000000       0.028
   0.12500000  0.08230453  0.00000000       0.028
   0.00000000  0.12345679  0.00000000       0.014
   0.04166667  0.12345679  0.00000000       0.028
   0.08333333  0.12345679  0.00000000       0.028
   0.12500000  0.12345679  0.00000000       0.014
   0.00000000  0.00000000  0.04487436       0.014
   0.04166667  0.00000000  0.04487436       0.028
   0.08333333  0.00000000  0.04487436       0.028
   0.12500000  0.00000000  0.04487436       0.014
   0.00000000  0.04115226  0.04487436       0.028
   0.04166667  0.04115226  0.04487436       0.028
   0.04166667 -0.04115226  0.04487436       0.028
   0.08333333  0.04115226  0.04487436       0.028
   0.08333333 -0.04115226  0.04487436       0.028
   0.12500000  0.04115226  0.04487436       0.028
   0.00000000  0.08230453  0.04487436       0.028
   0.04166667  0.08230453  0.04487436       0.028
   0.04166667 -0.08230453  0.04487436       0.028
   0.08333333  0.08230453  0.04487436       0.028
   0.08333333 -0.08230453  0.04487436       0.028
   0.12500000  0.08230453  0.04487436       0.028
   0.00000000  0.12345679  0.04487436       0.014
   0.04166667  0.12345679  0.04487436       0.028
   0.08333333  0.12345679  0.04487436       0.028
   0.12500000  0.12345679  0.04487436       0.014
 
 k-points in reciprocal lattice and weights: KPOINTS created by Atomic Simulation Env
   0.00000000  0.00000000  0.00000000       0.014
   0.16666667  0.00000000  0.00000000       0.028
   0.33333333  0.00000000  0.00000000       0.028
   0.50000000  0.00000000  0.00000000       0.014
   0.00000000  0.16666667  0.00000000       0.028
   0.16666667  0.16666667  0.00000000       0.028
   0.16666667 -0.16666667  0.00000000       0.028
   0.33333333  0.16666667  0.00000000       0.028
   0.33333333 -0.16666667  0.00000000       0.028
   0.50000000  0.16666667  0.00000000       0.028
   0.00000000  0.33333333  0.00000000       0.028
   0.16666667  0.33333333  0.00000000       0.028
   0.16666667 -0.33333333  0.00000000       0.028
   0.33333333  0.33333333  0.00000000       0.028
   0.33333333 -0.33333333  0.00000000       0.028
   0.50000000  0.33333333  0.00000000       0.028
   0.00000000  0.50000000  0.00000000       0.014
   0.16666667  0.50000000  0.00000000       0.028
   0.33333333  0.50000000  0.00000000       0.028
   0.50000000  0.50000000  0.00000000       0.014
   0.00000000  0.00000000  0.50000000       0.014
   0.16666667  0.00000000  0.50000000       0.028
   0.33333333  0.00000000  0.50000000       0.028
   0.50000000  0.00000000  0.50000000       0.014
   0.00000000  0.16666667  0.50000000       0.028
   0.16666667  0.16666667  0.50000000       0.028
   0.16666667 -0.16666667  0.50000000       0.028
   0.33333333  0.16666667  0.50000000       0.028
   0.33333333 -0.16666667  0.50000000       0.028
   0.50000000  0.16666667  0.50000000       0.028
   0.00000000  0.33333333  0.50000000       0.028
   0.16666667  0.33333333  0.50000000       0.028
   0.16666667 -0.33333333  0.50000000       0.028
   0.33333333  0.33333333  0.50000000       0.028
   0.33333333 -0.33333333  0.50000000       0.028
   0.50000000  0.33333333  0.50000000       0.028
   0.00000000  0.50000000  0.50000000       0.014
   0.16666667  0.50000000  0.50000000       0.028
   0.33333333  0.50000000  0.50000000       0.028
   0.50000000  0.50000000  0.50000000       0.014
 
 position of ions in fractional coordinates (direct lattice) 
   0.25000000  0.09760211  0.13033834
   0.75000000  0.59760211  0.36966166
   0.75000000  0.90239789  0.86966166
   0.25000000  0.40239789  0.63033834
   0.25000000  0.01864771  0.35985040
   0.75000000  0.51864771  0.14014960
   0.75000000  0.98135229  0.64014960
   0.25000000  0.48135229  0.85985040
 
 position of ions in cartesian coordinates  (Angst):
   1.00000000  0.39528854  1.45225861
   3.00000000  2.42028854  4.11885189
   3.00000000  3.65471146  9.68996239
   1.00000000  1.62971146  7.02336911
   1.00000000  0.07552323  4.00953265
   3.00000000  2.10052323  1.56157785
   3.00000000  3.97447677  7.13268835
   1.00000000  1.94947677  9.58064315
 


--------------------------------------------------------------------------------------------------------


 k-point   1 :   0.0000 0.0000 0.0000  plane waves:    2819
 k-point   2 :   0.1667 0.0000 0.0000  plane waves:    2791
 k-point   3 :   0.3333 0.0000 0.0000  plane waves:    2806
 k-point   4 :   0.5000 0.0000 0.0000  plane waves:    2804
 k-point   5 :   0.0000 0.1667 0.0000  plane waves:    2795
 k-point   6 :   0.1667 0.1667 0.0000  plane waves:    2803
 k-point   7 :   0.1667-0.1667 0.0000  plane waves:    2803
 k-point   8 :   0.3333 0.1667 0.0000  plane waves:    2800
 k-point   9 :   0.3333-0.1667 0.0000  plane waves:    2800
 k-point  10 :   0.5000 0.1667 0.0000  plane waves:    2796
 k-point  11 :   0.0000 0.3333 0.0000  plane waves:    2804
 k-point  12 :   0.1667 0.3333 0.0000  plane waves:    2795
 k-point  13 :   0.1667-0.3333 0.0000  plane waves:    2795
 k-point  14 :   0.3333 0.3333 0.0000  plane waves:    2795
 k-point  15 :   0.3333-0.3333 0.0000  plane waves:    2795
 k-point  16 :   0.5000 0.3333 0.0000  plane waves:    2800
 k-point  17 :   0.0000 0.5000 0.0000  plane waves:    2800
 k-point  18 :   0.1667 0.5000 0.0000  plane waves:    2790
 k-point  19 :   0.3333 0.5000 0.0000  plane waves:    2796
 k-point  20 :   0.5000 0.5000 0.0000  plane waves:    2808
 k-point  21 :   0.0000 0.0000 0.5000  plane waves:    2790
 k-point  22 :   0.1667 0.0000 0.5000  plane waves:    2782
 k-point  23 :   0.3333 0.0000 0.5000  plane waves:    2816
 k-point  24 :   0.5000 0.0000 0.5000  plane waves:    2824
 k-point  25 :   0.0000 0.1667 0.5000  plane waves:    2804
 k-point  26 :   0.1667 0.1667 0.5000  plane waves:    2794
 k-point  27 :   0.1667-0.1667 0.5000  plane waves:    2794
 k-point  28 :   0.3333 0.1667 0.5000  plane waves:    2804
 k-point  29 :   0.3333-0.1667 0.5000  plane waves:    2804
 k-point  30 :   0.5000 0.1667 0.5000  plane waves:    2808
 k-point  31 :   0.0000 0.3333 0.5000  plane waves:    2794
 k-point  32 :   0.1667 0.3333 0.5000  plane waves:    2790
 k-point  33 :   0.1667-0.3333 0.5000  plane waves:    2790
 k-point  34 :   0.3333 0.3333 0.5000  plane waves:    2792
 k-point  35 :   0.3333-0.3333 0.5000  plane waves:    2792
 k-point  36 :   0.5000 0.3333 0.5000  plane waves:    2800
 k-point  37 :   0.0000 0.5000 0.5000  plane waves:    2800
 k-point  38 :   0.1667 0.5000 0.5000  plane waves:    2800
 k-point  39 :   0.3333 0.5000 0.5000  plane waves:    2800
 k-point  40 :   0.5000 0.5000 0.5000  plane waves:    2808

 maximum and minimum number of plane-waves per node :       717      675

 maximum number of plane-waves:      2824
 maximum index in each direction: 
   IXMAX=    6   IYMAX=    6   IZMAX=   17
   IXMIN=   -6   IYMIN=   -6   IZMIN=  -17


 parallel 3D FFT for wavefunctions:
    minimum data exchange during FFTs selected (reduces bandwidth)
 parallel 3D FFT for charge:
    minimum data exchange during FFTs selected (reduces bandwidth)


 total amount of memory used by VASP MPI-rank0    37842. kBytes
=======================================================================

   base      :      30000. kBytes
   nonl-proj :       6082. kBytes
   fftplans  :        320. kBytes
   grid      :        462. kBytes
   one-center:         16. kBytes
   wavefun   :        962. kBytes
 
     INWAV:  cpu time      0.0000: real time      0.0001
 Broyden mixing: mesh for mixing (old mesh)
   NGX = 13   NGY = 13   NGZ = 35
  (NGX  = 40   NGY  = 40   NGZ  =108)
  gives a total of   5915 points

 initial charge density was supplied:
 charge density of overlapping atoms calculated
 number of electron      40.0000000 magnetization 
 keeping initial charge density in first step


--------------------------------------------------------------------------------------------------------


 Maximum index for augmentation-charges           104 (set IRDMAX)


--------------------------------------------------------------------------------------------------------


 First call to EWALD:  gamma=   0.314
 Maximum number of real-space cells 4x 4x 2
 Maximum number of reciprocal cells 2x 2x 5

    FEWALD:  cpu time      0.0009: real time      0.0009


--------------------------------------- Ionic step        1  -------------------------------------------




--------------------------------------- Iteration      1(   1)  ---------------------------------------


    POTLOK:  cpu time      0.0060: real time      0.0064
    SETDIJ:  cpu time      0.1411: real time      0.1418
     EDDAV:  cpu time      0.2585: real time      0.2614
       DOS:  cpu time      0.0016: real time      0.0016
    --------------------------------------------
      LOOP:  cpu time      0.4073: real time      0.4112

 eigenvalue-minimisations  :  2560
 total energy-change (2. order) : 0.1281754E+03  (-0.1299842E+04)
 number of electron      40.0000000 magnetization 
 augmentation part       40.0000000 magnetization 

 Free energy of the ion-electron system (eV)
  ---------------------------------------------------
  alpha Z        PSCENC =        93.87297400
  Ewald energy   TEWEN  =     -1466.00880391
  -Hartree energ DENC   =      -109.78140128
  -exchange      EXHF   =         0.00000000
  -V(xc)+E(xc)   XCENC  =       -32.60909202
  PAW double counting   =      1193.78262552    -1080.73714043
  entropy T*S    EENTRO =        -0.00386172
  eigenvalues    EBANDS =        81.17549056
  atomic energy  EATOM  =      1448.48460880
  Solvation  Ediel_sol  =         0.00000000
  ---------------------------------------------------
  free energy    TOTEN  =       128.17539951 eV

  energy without entropy =      128.17926123  energy(sigma->0) =      128.17733037


--------------------------------------------------------------------------------------------------------




--------------------------------------- Iteration      1(   2)  ---------------------------------------


     EDDAV:  cpu time      0.3180: real time      0.3208
       DOS:  cpu time      0.0006: real time      0.0006
    --------------------------------------------
      LOOP:  cpu time      0.3186: real time      0.3214

 eigenvalue-minimisations  :  3664
 total energy-change (2. order) :-0.1539667E+03  (-0.1497027E+03)
 number of electron      40.0000000 magnetization 
 augmentation part       40.0000000 magnetization 

 Free energy of the ion-electron system (eV)
  ---------------------------------------------------
  alpha Z        PSCENC =        93.87297400
  Ewald energy   TEWEN  =     -1466.00880391
  -Hartree energ DENC   =      -109.78140128
  -exchange      EXHF   =         0.00000000
  -V(xc)+E(xc)   XCENC  =       -32.60909202
  PAW double counting   =      1193.78262552    -1080.73714043
  entropy T*S    EENTRO =        -0.00000000
  eigenvalues    EBANDS =       -72.79502773
  atomic energy  EATOM  =      1448.48460880
  Solvation  Ediel_sol  =         0.00000000
  ---------------------------------------------------
  free energy    TOTEN  =       -25.79125706 eV

  energy without entropy =      -25.79125706  energy(sigma->0) =      -25.79125706


--------------------------------------------------------------------------------------------------------




--------------------------------------- Iteration      1(   3)  ---------------------------------------


     EDDAV:  cpu time      0.2968: real time      0.2997
       DOS:  cpu time      0.0006: real time      0.0006
    --------------------------------------------
      LOOP:  cpu time      0.2974: real time      0.3002

 eigenvalue-minimisations  :  3248
 total energy-change (2. order) :-0.8186801E+01  (-0.8168697E+01)
 number of electron      40.0000000 magnetization 
 augmentation part       40.0000000 magnetization 

 Free energy of the ion-electron system (eV)
  ---------------------------------------------------
  alpha Z        PSCENC =        93.87297400
  Ewald energy   TEWEN  =     -1466.00880391
  -Hartree energ DENC   =      -109.78140128
  -exchange      EXHF   =         0.00000000
  -V(xc)+E(xc)   XCENC  =       -32.60909202
  PAW double counting   =      1193.78262552    -1080.73714043
  entropy T*S    EENTRO =        -0.00000000
  eigenvalues    EBANDS =       -80.98182916
  atomic energy  EATOM  =      1448.48460880
  Solvation  Ediel_sol  =         0.00000000
  ---------------------------------------------------
  free energy    TOTEN  =       -33.97805849 eV

  energy without entropy =      -33.97805849  energy(sigma->0) =      -33.97805849


--------------------------------------------------------------------------------------------------------




--------------------------------------- Iteration      1(   4)  ---------------------------------------


     EDDAV:  cpu time      0.2888: real time      0.2918
       DOS:  cpu time      0.0007: real time      0.0007
    --------------------------------------------
      LOOP:  cpu time      0.2894: real time      0.2925

 eigenvalue-minimisations  :  3104
 total energy-change (2. order) :-0.5089934E-01  (-0.5088889E-01)
 number of electron      40.0000000 magnetization 
 augmentation part       40.0000000 magnetization 

 Free energy of the ion-electron system (eV)
  ---------------------------------------------------
  alpha Z        PSCENC =        93.87297400
  Ewald energy   TEWEN  =     -1466.00880391
  -Hartree energ DENC   =      -109.78140128
  -exchange      EXHF   =         0.00000000
  -V(xc)+E(xc)   XCENC  =       -32.60909202
  PAW double counting   =      1193.78262552    -1080.73714043
  entropy T*S    EENTRO =        -0.00000000
  eigenvalues    EBANDS =       -81.03272850
  atomic energy  EATOM  =      1448.48460880
  Solvation  Ediel_sol  =         0.00000000
  ---------------------------------------------------
  free energy    TOTEN  =       -34.02895783 eV

  energy without entropy =      -34.02895783  energy(sigma->0) =      -34.02895783


--------------------------------------------------------------------------------------------------------




--------------------------------------- Iteration      1(   5)  ---------------------------------------


     EDDAV:  cpu time      0.3007: real time      0.3037
       DOS:  cpu time      0.0006: real time      0.0006
    CHARGE:  cpu time      0.0046: real time      0.0047
    MIXING:  cpu time      0.0007: real time      0.0007
    --------------------------------------------
      LOOP:  cpu time      0.3067: real time      0.3097

 eigenvalue-minimisations  :  3248
 total energy-change (2. order) :-0.2902597E-03  (-0.2902513E-03)
 number of electron      40.0000009 magnetization 
 augmentation part       -7.4212588 magnetization 

 Broyden mixing:
  rms(total) = 0.66421E+00    rms(broyden)= 0.66420E+00
  rms(prec ) = 0.73674E+00
  weight for this iteration     100.00

 Free energy of the ion-electron system (eV)
  ---------------------------------------------------
  alpha Z        PSCENC =        93.87297400
  Ewald energy   TEWEN  =     -1466.00880391
  -Hartree energ DENC   =      -109.78140128
  -exchange      EXHF   =         0.00000000
  -V(xc)+E(xc)   XCENC  =       -32.60909202
  PAW double counting   =      1193.78262552    -1080.73714043
  entropy T*S    EENTRO =        -0.00000000
  eigenvalues    EBANDS =       -81.03301876
  atomic energy  EATOM  =      1448.48460880
  Solvation  Ediel_sol  =         0.00000000
  ---------------------------------------------------
  free energy    TOTEN  =       -34.02924809 eV

  energy without entropy =      -34.02924809  energy(sigma->0) =      -34.02924809


--------------------------------------------------------------------------------------------------------




--------------------------------------- Iteration      1(   6)  ---------------------------------------


    POTLOK:  cpu time      0.0054: real time      0.0056
    SETDIJ:  cpu time      0.1373: real time      0.1379
     EDDAV:  cpu time      0.3141: real time      0.3174
       DOS:  cpu time      0.0009: real time      0.0009
    CHARGE:  cpu time      0.0066: real time      0.0066
    MIXING:  cpu time      0.0010: real time      0.0010
    --------------------------------------------
      LOOP:  cpu time      0.4653: real time      0.4694

 eigenvalue-minimisations  :  3184
 total energy-change (2. order) : 0.3561616E+00  (-0.6983033E-01)
 number of electron      40.0000008 magnetization 
 augmentation part       -7.3702551 magnetization 

 Broyden mixing:
  rms(total) = 0.41579E+00    rms(broyden)= 0.41579E+00
  rms(prec ) = 0.43328E+00
  weight for this iteration     100.00

 eigenvalues of (default mixing * dielectric matrix)
  average eigenvalue GAMMA=   2.2651
  2.2651

 Free energy of the ion-electron system (eV)
  ---------------------------------------------------
  alpha Z        PSCENC =        93.87297400
  Ewald energy   TEWEN  =     -1466.00880391
  -Hartree energ DENC   =      -115.03949972
  -exchange      EXHF   =         0.00000000
  -V(xc)+E(xc)   XCENC  =       -32.05467714
  PAW double counting   =      1466.78601455    -1354.06225724
  entropy T*S    EENTRO =        -0.00000000
  eigenvalues    EBANDS =       -75.65144583
  atomic energy  EATOM  =      1448.48460880
  Solvation  Ediel_sol  =         0.00000000
  ---------------------------------------------------
  free energy    TOTEN  =       -33.67308649 eV

  energy without entropy =      -33.67308649  energy(sigma->0) =      -33.67308649


--------------------------------------------------------------------------------------------------------




--------------------------------------- Iteration      1(   7)  ---------------------------------------


    POTLOK:  cpu time      0.0076: real time      0.0078
    SETDIJ:  cpu time      0.1362: real time      0.1372
     EDDAV:  cpu time      0.3176: real time      0.3204
       DOS:  cpu time      0.0006: real time      0.0006
    CHARGE:  cpu time      0.0044: real time      0.0044
    MIXING:  cpu time      0.0005: real time      0.0005
    --------------------------------------------
      LOOP:  cpu time      0.4669: real time      0.4709

 eigenvalue-minimisations  :  3424
 total energy-change (2. order) : 0.4658086E-02  (-0.2421849E-01)
 number of electron      40.0000008 magnetization 
 augmentation part       -7.3556286 magnetization 

 Broyden mixing:
  rms(total) = 0.11901E+00    rms(broyden)= 0.11901E+00
  rms(prec ) = 0.12732E+00
  weight for this iteration     100.00

 eigenvalues of (default mixing * dielectric matrix)
  average eigenvalue GAMMA=   1.8200
  1.2608  2.3792

 Free energy of the ion-electron system (eV)
  ---------------------------------------------------
  alpha Z        PSCENC =        93.87297400
  Ewald energy   TEWEN  =     -1466.00880391
  -Hartree energ DENC   =      -117.56904873
  -exchange      EXHF   =         0.00000000
  -V(xc)+E(xc)   XCENC  =       -31.60282429
  PAW double counting   =      1824.85831494    -1712.39993182
  entropy T*S    EENTRO =        -0.00000000
  eigenvalues    EBANDS =       -73.30371740
  atomic energy  EATOM  =      1448.48460880
  Solvation  Ediel_sol  =         0.00000000
  ---------------------------------------------------
  free energy    TOTEN  =       -33.66842840 eV

  energy without entropy =      -33.66842840  energy(sigma->0) =      -33.66842840


--------------------------------------------------------------------------------------------------------




--------------------------------------- Iteration      1(   8)  ---------------------------------------


    POTLOK:  cpu time      0.0052: real time      0.0054
    SETDIJ:  cpu time      0.1373: real time      0.1379
     EDDAV:  cpu time      0.2966: real time      0.2992
       DOS:  cpu time      0.0006: real time      0.0006
    CHARGE:  cpu time      0.0043: real time      0.0043
    MIXING:  cpu time      0.0005: real time      0.0005
    --------------------------------------------
      LOOP:  cpu time      0.4444: real time      0.4479

 eigenvalue-minimisations  :  3120
 total energy-change (2. order) : 0.3082321E-02  (-0.3035088E-02)
 number of electron      40.0000008 magnetization 
 augmentation part       -7.3666649 magnetization 

 Broyden mixing:
  rms(total) = 0.16931E-01    rms(broyden)= 0.16931E-01
  rms(prec ) = 0.20283E-01
  weight for this iteration     100.00

 eigenvalues of (default mixing * dielectric matrix)
  average eigenvalue GAMMA=   1.7356
  2.5431  1.3319  1.3319

 Free energy of the ion-electron system (eV)
  ---------------------------------------------------
  alpha Z        PSCENC =        93.87297400
  Ewald energy   TEWEN  =     -1466.00880391
  -Hartree energ DENC   =      -117.19543732
  -exchange      EXHF   =         0.00000000
  -V(xc)+E(xc)   XCENC  =       -31.52177222
  PAW double counting   =      1948.28453232    -1835.87519937
  entropy T*S    EENTRO =        -0.00000000
  eigenvalues    EBANDS =       -73.70624838
  atomic energy  EATOM  =      1448.48460880
  Solvation  Ediel_sol  =         0.00000000
  ---------------------------------------------------
  free energy    TOTEN  =       -33.66534608 eV

  energy without entropy =      -33.66534608  energy(sigma->0) =      -33.66534608


--------------------------------------------------------------------------------------------------------




--------------------------------------- Iteration      1(   9)  ---------------------------------------


    POTLOK:  cpu time      0.0052: real time      0.0054
    SETDIJ:  cpu time      0.1366: real time      0.1376
     EDDAV:  cpu time      0.2923: real time      0.2949
       DOS:  cpu time      0.0006: real time      0.0006
    CHARGE:  cpu time      0.0042: real time      0.0042
    MIXING:  cpu time      0.0005: real time      0.0005
    --------------------------------------------
      LOOP:  cpu time      0.4394: real time      0.4432

 eigenvalue-minimisations  :  3152
 total energy-change (2. order) :-0.2177806E-03  (-0.3288196E-03)
 number of electron      40.0000008 magnetization 
 augmentation part       -7.3649144 magnetization 

 Broyden mixing:
  rms(total) = 0.63827E-02    rms(broyden)= 0.63827E-02
  rms(prec ) = 0.69772E-02
  weight for this iteration     100.00

 eigenvalues of (default mixing * dielectric matrix)
  average eigenvalue GAMMA=   1.7023
  2.2206  2.2206  1.1840  1.1840

 Free energy of the ion-electron system (eV)
  ---------------------------------------------------
  alpha Z        PSCENC =        93.87297400
  Ewald energy   TEWEN  =     -1466.00880391
  -Hartree energ DENC   =      -117.54956998
  -exchange      EXHF   =         0.00000000
  -V(xc)+E(xc)   XCENC  =       -31.48149142
  PAW double counting   =      1964.15207575    -1851.75619986
  entropy T*S    EENTRO =        -0.00000000
  eigenvalues    EBANDS =       -73.37915724
  atomic energy  EATOM  =      1448.48460880
  Solvation  Ediel_sol  =         0.00000000
  ---------------------------------------------------
  free energy    TOTEN  =       -33.66556386 eV

  energy without entropy =      -33.66556386  energy(sigma->0) =      -33.66556386


--------------------------------------------------------------------------------------------------------




--------------------------------------- Iteration      1(  10)  ---------------------------------------


    POTLOK:  cpu time      0.0053: real time      0.0055
    SETDIJ:  cpu time      0.1372: real time      0.1378
     EDDAV:  cpu time      0.2726: real time      0.2738
       DOS:  cpu time      0.0003: real time      0.0003
    CHARGE:  cpu time      0.0035: real time      0.0035
    MIXING:  cpu time      0.0003: real time      0.0003
    --------------------------------------------
      LOOP:  cpu time      0.4192: real time      0.4212

 eigenvalue-minimisations  :  3168
 total energy-change (2. order) :-0.2148846E-04  (-0.1802028E-04)
 number of electron      40.0000008 magnetization 
 augmentation part       -7.3649953 magnetization 

 Broyden mixing:
  rms(total) = 0.24073E-02    rms(broyden)= 0.24073E-02
  rms(prec ) = 0.28060E-02
  weight for this iteration     100.00

 eigenvalues of (default mixing * dielectric matrix)
  average eigenvalue GAMMA=   1.7750
  2.7872  2.4965  1.1236  1.2340  1.2340

 Free energy of the ion-electron system (eV)
  ---------------------------------------------------
  alpha Z        PSCENC =        93.87297400
  Ewald energy   TEWEN  =     -1466.00880391
  -Hartree energ DENC   =      -117.54740714
  -exchange      EXHF   =         0.00000000
  -V(xc)+E(xc)   XCENC  =       -31.48287724
  PAW double counting   =      1956.57176757    -1844.17031830
  entropy T*S    EENTRO =        -0.00000000
  eigenvalues    EBANDS =       -73.38552912
  atomic energy  EATOM  =      1448.48460880
  Solvation  Ediel_sol  =         0.00000000
  ---------------------------------------------------
  free energy    TOTEN  =       -33.66558535 eV

  energy without entropy =      -33.66558535  energy(sigma->0) =      -33.66558535


--------------------------------------------------------------------------------------------------------




--------------------------------------- Iteration      1(  11)  ---------------------------------------


    POTLOK:  cpu time      0.0036: real time      0.0037
    SETDIJ:  cpu time      0.1368: real time      0.1371
     EDDAV:  cpu time      0.1938: real time      0.1950
       DOS:  cpu time      0.0003: real time      0.0003
    CHARGE:  cpu time      0.0034: real time      0.0034
    MIXING:  cpu time      0.0003: real time      0.0003
    --------------------------------------------
      LOOP:  cpu time      0.3383: real time      0.3399

 eigenvalue-minimisations  :  3040
 total energy-change (2. order) :-0.2183740E-04  (-0.3605848E-05)
 number of electron      40.0000008 magnetization 
 augmentation part       -7.3651729 magnetization 

 Broyden mixing:
  rms(total) = 0.10381E-02    rms(broyden)= 0.10381E-02
  rms(prec ) = 0.11666E-02
  weight for this iteration     100.00

 eigenvalues of (default mixing * dielectric matrix)
  average eigenvalue GAMMA=   1.7248
  2.6053  2.2433  2.2433  1.1848  1.1848  0.8872

 Free energy of the ion-electron system (eV)
  ---------------------------------------------------
  alpha Z        PSCENC =        93.87297400
  Ewald energy   TEWEN  =     -1466.00880391
  -Hartree energ DENC   =      -117.56935395
  -exchange      EXHF   =         0.00000000
  -V(xc)+E(xc)   XCENC  =       -31.47756393
  PAW double counting   =      1957.69579083    -1845.29427499
  entropy T*S    EENTRO =        -0.00000000
  eigenvalues    EBANDS =       -73.36898402
  atomic energy  EATOM  =      1448.48460880
  Solvation  Ediel_sol  =         0.00000000
  ---------------------------------------------------
  free energy    TOTEN  =       -33.66560719 eV

  energy without entropy =      -33.66560719  energy(sigma->0) =      -33.66560719


--------------------------------------------------------------------------------------------------------




--------------------------------------- Iteration      1(  12)  ---------------------------------------


    POTLOK:  cpu time      0.0036: real time      0.0037
    SETDIJ:  cpu time      0.1350: real time      0.1353
     EDDAV:  cpu time      0.1948: real time      0.1957
       DOS:  cpu time      0.0003: real time      0.0003
    --------------------------------------------
      LOOP:  cpu time      0.3338: real time      0.3351

 eigenvalue-minimisations  :  3120
 total energy-change (2. order) : 0.3508713E-06  (-0.4116412E-06)
 number of electron      40.0000008 magnetization 
 augmentation part       -7.3651729 magnetization 

 Free energy of the ion-electron system (eV)
  ---------------------------------------------------
  alpha Z        PSCENC =        93.87297400
  Ewald energy   TEWEN  =     -1466.00880391
  -Hartree energ DENC   =      -117.57841209
  -exchange      EXHF   =         0.00000000
  -V(xc)+E(xc)   XCENC  =       -31.47684542
  PAW double counting   =      1957.32989614    -1844.92829102
  entropy T*S    EENTRO =        -0.00000000
  eigenvalues    EBANDS =       -73.36073333
  atomic energy  EATOM  =      1448.48460880
  Solvation  Ediel_sol  =         0.00000000
  ---------------------------------------------------
  free energy    TOTEN  =       -33.66560684 eV

  energy without entropy =      -33.66560684  energy(sigma->0) =      -33.66560684


--------------------------------------------------------------------------------------------------------




 average (electrostatic) potential at core
  the test charge radii are     1.1631  1.0808
  (the norm of the test charge is              1.0000)
       1 -32.8984       2 -32.8984       3 -32.8984       4 -32.8984       5 -54.3969
       6 -54.3969       7 -54.3969       8 -54.3969
 
 
 
 E-fermi :   4.1765     XC(G=0):  -9.6445     alpha+bet : -9.3519

 Fermi energy:         4.1765137625

 k-point     1 :       0.0000    0.0000    0.0000
  band No.  band energies     occupation 
      1     -10.6166      2.00000
      2     -10.2362      2.00000
      3      -9.2927      2.00000
      4      -8.6798      2.00000
      5      -3.6963      2.00000
      6      -3.1800      2.00000
      7      -1.7333      2.00000
      8      -1.7205      2.00000
      9      -1.4453      2.00000
     10       0.0296      2.00000
     11       0.4594      2.00000
     12       0.4855      2.00000
     13       0.5659      2.00000
     14       0.8359      2.00000
     15       1.3165      2.00000
     16       2.0396      2.00000
     17       2.2177      2.00000
     18       2.3635      2.00000
     19       3.0592      2.00000
     20       3.3857      2.00000
     21       4.5889      0.00000
     22       6.8077      0.00000
     23       6.9181      0.00000
     24       7.0385      0.00000
     25       7.4036      0.00000
     26       7.8686      0.00000
     27       8.0253      0.00000
     28       8.5645      0.00000
     29       8.9027      0.00000
     30       9.4028      0.00000
     31       9.5355      0.00000
     32      10.0719      0.00000

 k-point     2 :       0.1667    0.0000    0.0000
  band No.  band energies     occupation 
      1     -10.4328      2.00000
      2     -10.0694      2.00000
      3      -9.1856      2.00000
      4      -8.6526      2.00000
      5      -4.1578      2.00000
      6      -3.7487      2.00000
      7      -2.6084      2.00000
      8      -2.1463      2.00000
      9      -1.4457      2.00000
     10       0.3024      2.00000
     11       0.7200      2.00000
     12       0.7914      2.00000
     13       0.8002      2.00000
     14       0.9926      2.00000
     15       1.7536      2.00000
     16       2.2595      2.00000
     17       2.3865      2.00000
     18       2.8776      2.00000
     19       3.0949      2.00000
     20       3.1338      2.00000
     21       4.6538      0.00000
     22       6.6009      0.00000
     23       6.8334      0.00000
     24       7.1464      0.00000
     25       7.2974      0.00000
     26       7.4612      0.00000
     27       7.6486      0.00000
     28       7.7424      0.00000
     29       8.4458      0.00000
     30       8.5848      0.00000
     31       9.2462      0.00000
     32       9.3109      0.00000

 k-point     3 :       0.3333    0.0000    0.0000
  band No.  band energies     occupation 
      1      -9.9207      2.00000
      2      -9.6258      2.00000
      3      -9.0039      2.00000
      4      -8.7470      2.00000
      5      -4.9114      2.00000
      6      -4.4521      2.00000
      7      -4.0225      2.00000
      8      -3.3422      2.00000
      9      -0.8358      2.00000
     10       0.7856      2.00000
     11       1.1437      2.00000
     12       1.2838      2.00000
     13       1.4589      2.00000
     14       1.4802      2.00000
     15       2.2024      2.00000
     16       2.3439      2.00000
     17       2.7664      2.00000
     18       3.0140      2.00000
     19       3.1031      2.00000
     20       3.7803      2.00000
     21       4.9089      0.00000
     22       5.0119      0.00000
     23       5.7694      0.00000
     24       5.9425      0.00000
     25       6.2303      0.00000
     26       6.3901      0.00000
     27       6.5531      0.00000
     28       7.3119      0.00000
     29       7.4046      0.00000
     30       7.7205      0.00000
     31       8.5083      0.00000
     32       9.4039      0.00000

 k-point     4 :       0.5000    0.0000    0.0000
  band No.  band energies     occupation 
      1      -9.2404      2.00000
      2      -9.2404      2.00000
      3      -9.1366      2.00000
      4      -9.1366      2.00000
      5      -4.9557      2.00000
      6      -4.9557      2.00000
      7      -4.2958      2.00000
      8      -4.2958      2.00000
      9       0.0883      2.00000
     10       0.0883      2.00000
     11       1.7853      2.00000
     12       1.7853      2.00000
     13       1.8273      2.00000
     14       1.8273      2.00000
     15       2.2660      2.00000
     16       2.2660      2.00000
     17       3.0662      2.00000
     18       3.0662      2.00000
     19       3.3116      2.00000
     20       3.3116      2.00000
     21       5.2246      0.00000
     22       5.2246      0.00000
     23       5.2849      0.00000
     24       5.2849      0.00000
     25       5.6236      0.00000
     26       5.6236      0.00000
     27       6.2257      0.00000
     28       6.2257      0.00000
     29       6.6175      0.00000
     30       6.6175      0.00000
     31       9.0326      0.00000
     32       9.0326      0.00000

 k-point     5 :       0.0000    0.1667    0.0000
  band No.  band energies     occupation 
      1     -10.4532      2.00000
      2     -10.0797      2.00000
      3      -9.2300      2.00000
      4      -8.6658      2.00000
      5      -4.2197      2.00000
      6      -3.5040      2.00000
      7      -2.5546      2.00000
      8      -2.1006      2.00000
      9      -1.4280      2.00000
     10       0.2418      2.00000
     11       0.6409      2.00000
     12       0.6908      2.00000
     13       1.0179      2.00000
     14       1.2661      2.00000
     15       1.4672      2.00000
     16       2.1514      2.00000
     17       2.4578      2.00000
     18       2.9414      2.00000
     19       2.9782      2.00000
     20       3.3693      2.00000
     21       4.4006      0.00000
     22       6.3277      0.00000
     23       6.7544      0.00000
     24       6.9473      0.00000
     25       7.0059      0.00000
     26       7.3580      0.00000
     27       7.6401      0.00000
     28       8.1573      0.00000
     29       8.2402      0.00000
     30       8.6795      0.00000
     31       9.0939      0.00000
     32       9.2266      0.00000

 k-point     6 :       0.1667    0.1667    0.0000
  band No.  band energies     occupation 
      1     -10.2755      2.00000
      2      -9.9202      2.00000
      3      -9.1283      2.00000
      4      -8.6380      2.00000
      5      -4.4004      2.00000
      6      -3.7893      2.00000
      7      -2.8707      2.00000
      8      -2.5491      2.00000
      9      -1.2441      2.00000
     10      -0.4659      2.00000
     11      -0.2563      2.00000
     12       0.8924      2.00000
     13       1.1363      2.00000
     14       1.7681      2.00000
     15       1.7903      2.00000
     16       1.9365      2.00000
     17       3.0839      2.00000
     18       3.1510      2.00000
     19       3.2827      2.00000
     20       3.3880      2.00000
     21       4.5664      0.00000
     22       5.5194      0.00000
     23       5.9294      0.00000
     24       6.1016      0.00000
     25       7.0042      0.00000
     26       7.6886      0.00000
     27       7.8878      0.00000
     28       8.1057      0.00000
     29       8.5335      0.00000
     30       8.7427      0.00000
     31       8.7720      0.00000
     32       9.4433      0.00000

 k-point     7 :       0.1667   -0.1667    0.0000
  band No.  band energies     occupation 
      1     -10.2755      2.00000
      2      -9.9202      2.00000
      3      -9.1283      2.00000
      4      -8.6380      2.00000
      5      -4.4004      2.00000
      6      -3.7893      2.00000
      7      -2.8707      2.00000
      8      -2.5491      2.00000
      9      -1.2441      2.00000
     10      -0.4659      2.00000
     11      -0.2563      2.00000
     12       0.8924      2.00000
     13       1.1363      2.00000
     14       1.7681      2.00000
     15       1.7903      2.00000
     16       1.9365      2.00000
     17       3.0839      2.00000
     18       3.1510      2.00000
     19       3.2827      2.00000
     20       3.3880      2.00000
     21       4.5664      0.00000
     22       5.5194      0.00000
     23       5.9294      0.00000
     24       6.1016      0.00000
     25       7.0042      0.00000
     26       7.6886      0.00000
     27       7.8878      0.00000
     28       8.1057      0.00000
     29       8.5335      0.00000
     30       8.7427      0.00000
     31       8.7720      0.00000
     32       9.4433      0.00000

 k-point     8 :       0.3333    0.1667    0.0000
  band No.  band energies     occupation 
      1      -9.7853      2.00000
      2      -9.5021      2.00000
      3      -8.9536      2.00000
      4      -8.7127      2.00000
      5      -4.8090      2.00000
      6      -4.2879      2.00000
      7      -3.9298      2.00000
      8      -3.3786      2.00000
      9      -0.6827      2.00000
     10      -0.4898      2.00000
     11      -0.2254      2.00000
     12       0.7688      2.00000
     13       1.2707      2.00000
     14       1.5584      2.00000
     15       1.7199      2.00000
     16       2.3478      2.00000
     17       2.4800      2.00000
     18       2.7236      2.00000
     19       3.0538      2.00000
     20       3.4654      2.00000
     21       4.7084      0.00000
     22       5.4539      0.00000
     23       6.1302      0.00000
     24       6.2093      0.00000
     25       6.2474      0.00000
     26       7.0423      0.00000
     27       7.8388      0.00000
     28       8.1392      0.00000
     29       8.2540      0.00000
     30       8.7846      0.00000
     31       9.0173      0.00000
     32       9.4457      0.00000

 k-point     9 :       0.3333   -0.1667    0.0000
  band No.  band energies     occupation 
      1      -9.7853      2.00000
      2      -9.5021      2.00000
      3      -8.9536      2.00000
      4      -8.7127      2.00000
      5      -4.8090      2.00000
      6      -4.2879      2.00000
      7      -3.9298      2.00000
      8      -3.3786      2.00000
      9      -0.6827      2.00000
     10      -0.4898      2.00000
     11      -0.2254      2.00000
     12       0.7688      2.00000
     13       1.2707      2.00000
     14       1.5584      2.00000
     15       1.7199      2.00000
     16       2.3478      2.00000
     17       2.4800      2.00000
     18       2.7236      2.00000
     19       3.0538      2.00000
     20       3.4654      2.00000
     21       4.7084      0.00000
     22       5.4539      0.00000
     23       6.1302      0.00000
     24       6.2093      0.00000
     25       6.2474      0.00000
     26       7.0423      0.00000
     27       7.8388      0.00000
     28       8.1392      0.00000
     29       8.2540      0.00000
     30       8.7846      0.00000
     31       9.0173      0.00000
     32       9.4457      0.00000

 k-point    10 :       0.5000    0.1667    0.0000
  band No.  band energies     occupation 
      1      -9.1515      2.00000
      2      -9.1515      2.00000
      3      -9.0584      2.00000
      4      -9.0584      2.00000
      5      -4.7702      2.00000
      6      -4.7702      2.00000
      7      -4.1597      2.00000
      8      -4.1597      2.00000
      9      -0.0160      2.00000
     10      -0.0160      2.00000
     11       0.3852      2.00000
     12       0.3852      2.00000
     13       0.9734      2.00000
     14       0.9734      2.00000
     15       1.9018      2.00000
     16       1.9018      2.00000
     17       2.2844      2.00000
     18       2.2844      2.00000
     19       3.0883      2.00000
     20       3.0883      2.00000
     21       5.2151      0.00000
     22       5.2151      0.00000
     23       6.4255      0.00000
     24       6.4255      0.00000
     25       6.8985      0.00000
     26       6.8985      0.00000
     27       7.4398      0.00000
     28       7.4398      0.00000
     29       8.3007      0.00000
     30       8.3007      0.00000
     31       8.7294      0.00000
     32       8.7294      0.00000

 k-point    11 :       0.0000    0.3333    0.0000
  band No.  band energies     occupation 
      1     -10.0103      2.00000
      2      -9.6538      2.00000
      3      -9.1874      2.00000
      4      -8.7468      2.00000
      5      -4.9212      2.00000
      6      -3.9962      2.00000
      7      -3.9175      2.00000
      8      -3.1034      2.00000
      9      -0.8227      2.00000
     10       0.8299      2.00000
     11       0.8381      2.00000
     12       1.2560      2.00000
     13       1.7429      2.00000
     14       1.7495      2.00000
     15       1.8217      2.00000
     16       2.2884      2.00000
     17       2.6913      2.00000
     18       3.0471      2.00000
     19       3.3458      2.00000
     20       3.9332      2.00000
     21       4.7778      0.00000
     22       4.9181      0.00000
     23       5.2845      0.00000
     24       5.5781      0.00000
     25       6.2675      0.00000
     26       6.4073      0.00000
     27       6.5094      0.00000
     28       6.9996      0.00000
     29       7.3232      0.00000
     30       7.4674      0.00000
     31       8.9576      0.00000
     32       9.6299      0.00000

 k-point    12 :       0.1667    0.3333    0.0000
  band No.  band energies     occupation 
      1      -9.8531      2.00000
      2      -9.5189      2.00000
      3      -9.0906      2.00000
      4      -8.7030      2.00000
      5      -4.8116      2.00000
      6      -3.9278      2.00000
      7      -3.8485      2.00000
      8      -3.1798      2.00000
      9      -0.6676      2.00000
     10      -0.5644      2.00000
     11      -0.3572      2.00000
     12       0.7067      2.00000
     13       0.9476      2.00000
     14       1.5147      2.00000
     15       1.7780      2.00000
     16       2.4230      2.00000
     17       2.6231      2.00000
     18       2.9805      2.00000
     19       3.2860      2.00000
     20       3.5080      2.00000
     21       4.6875      0.00000
     22       5.1266      0.00000
     23       5.8810      0.00000
     24       6.0070      0.00000
     25       6.1928      0.00000
     26       6.9420      0.00000
     27       7.5378      0.00000
     28       8.1755      0.00000
     29       8.5297      0.00000
     30       8.8551      0.00000
     31       9.0980      0.00000
     32       9.2699      0.00000

 k-point    13 :       0.1667   -0.3333    0.0000
  band No.  band energies     occupation 
      1      -9.8531      2.00000
      2      -9.5189      2.00000
      3      -9.0906      2.00000
      4      -8.7030      2.00000
      5      -4.8116      2.00000
      6      -3.9278      2.00000
      7      -3.8485      2.00000
      8      -3.1798      2.00000
      9      -0.6676      2.00000
     10      -0.5644      2.00000
     11      -0.3572      2.00000
     12       0.7067      2.00000
     13       0.9476      2.00000
     14       1.5147      2.00000
     15       1.7780      2.00000
     16       2.4230      2.00000
     17       2.6231      2.00000
     18       2.9805      2.00000
     19       3.2860      2.00000
     20       3.5080      2.00000
     21       4.6875      0.00000
     22       5.1266      0.00000
     23       5.8810      0.00000
     24       6.0070      0.00000
     25       6.1928      0.00000
     26       6.9420      0.00000
     27       7.5378      0.00000
     28       8.1755      0.00000
     29       8.5297      0.00000
     30       8.8551      0.00000
     31       9.0980      0.00000
     32       9.2699      0.00000

 k-point    14 :       0.3333    0.3333    0.0000
  band No.  band energies     occupation 
      1      -9.4365      2.00000
      2      -9.1866      2.00000
      3      -8.9026      2.00000
      4      -8.6920      2.00000
      5      -4.5809      2.00000
      6      -3.8990      2.00000
      7      -3.8795      2.00000
      8      -3.5284      2.00000
      9      -1.4139      2.00000
     10      -1.1453      2.00000
     11      -0.4655      2.00000
     12      -0.1599      2.00000
     13       0.1797      2.00000
     14       0.6870      2.00000
     15       1.1272      2.00000
     16       1.3374      2.00000
     17       1.9237      2.00000
     18       2.2064      2.00000
     19       2.3976      2.00000
     20       2.8436      2.00000
     21       5.1486      0.00000
     22       6.8651      0.00000
     23       7.0314      0.00000
     24       7.2864      0.00000
     25       7.7871      0.00000
     26       8.1727      0.00000
     27       8.3502      0.00000
     28       8.5142      0.00000
     29       9.2312      0.00000
     30       9.3834      0.00000
     31       9.4529      0.00000
     32       9.9322      0.00000

 k-point    15 :       0.3333   -0.3333    0.0000
  band No.  band energies     occupation 
      1      -9.4365      2.00000
      2      -9.1866      2.00000
      3      -8.9026      2.00000
      4      -8.6920      2.00000
      5      -4.5809      2.00000
      6      -3.8990      2.00000
      7      -3.8795      2.00000
      8      -3.5284      2.00000
      9      -1.4139      2.00000
     10      -1.1453      2.00000
     11      -0.4655      2.00000
     12      -0.1599      2.00000
     13       0.1797      2.00000
     14       0.6870      2.00000
     15       1.1272      2.00000
     16       1.3374      2.00000
     17       1.9237      2.00000
     18       2.2064      2.00000
     19       2.3976      2.00000
     20       2.8436      2.00000
     21       5.1486      0.00000
     22       6.8651      0.00000
     23       7.0314      0.00000
     24       7.2864      0.00000
     25       7.7871      0.00000
     26       8.1727      0.00000
     27       8.3502      0.00000
     28       8.5142      0.00000
     29       9.2312      0.00000
     30       9.3834      0.00000
     31       9.4529      0.00000
     32       9.9322      0.00000

 k-point    16 :       0.5000    0.3333    0.0000
  band No.  band energies     occupation 
      1      -8.9546      2.00000
      2      -8.9546      2.00000
      3      -8.8933      2.00000
      4      -8.8933      2.00000
      5      -4.2891      2.00000
      6      -4.2891      2.00000
      7      -3.8566      2.00000
      8      -3.8566      2.00000
      9      -1.0708      2.00000
     10      -1.0708      2.00000
     11      -0.7430      2.00000
     12      -0.7430      2.00000
     13       0.1513      2.00000
     14       0.1513      2.00000
     15       0.9471      2.00000
     16       0.9471      2.00000
     17       1.3620      2.00000
     18       1.3620      2.00000
     19       2.4742      2.00000
     20       2.4742      2.00000
     21       6.1806      0.00000
     22       6.1806      0.00000
     23       7.8482      0.00000
     24       7.8482      0.00000
     25       8.6409      0.00000
     26       8.6409      0.00000
     27       8.8081      0.00000
     28       8.8081      0.00000
     29       9.1701      0.00000
     30       9.1701      0.00000
     31       9.9068      0.00000
     32       9.9068      0.00000

 k-point    17 :       0.0000    0.5000    0.0000
  band No.  band energies     occupation 
      1      -9.4729      2.00000
      2      -9.4729      2.00000
      3      -9.1166      2.00000
      4      -9.1166      2.00000
      5      -4.8554      2.00000
      6      -4.8554      2.00000
      7      -3.8836      2.00000
      8      -3.8836      2.00000
      9       0.0795      2.00000
     10       0.0795      2.00000
     11       1.5485      2.00000
     12       1.5485      2.00000
     13       1.9542      2.00000
     14       1.9542      2.00000
     15       2.3127      2.00000
     16       2.3127      2.00000
     17       3.0328      2.00000
     18       3.0328      2.00000
     19       3.4528      2.00000
     20       3.4528      2.00000
     21       4.9956      0.00000
     22       4.9956      0.00000
     23       5.3816      0.00000
     24       5.3816      0.00000
     25       5.5267      0.00000
     26       5.5267      0.00000
     27       6.0259      0.00000
     28       6.0259      0.00000
     29       6.3386      0.00000
     30       6.3386      0.00000
     31       9.5019      0.00000
     32       9.5019      0.00000

 k-point    18 :       0.1667    0.5000    0.0000
  band No.  band energies     occupation 
      1      -9.3516      2.00000
      2      -9.3516      2.00000
      3      -9.0269      2.00000
      4      -9.0269      2.00000
      5      -4.6855      2.00000
      6      -4.6855      2.00000
      7      -3.7705      2.00000
      8      -3.7705      2.00000
      9      -0.0808      2.00000
     10      -0.0808      2.00000
     11       0.1576      2.00000
     12       0.1576      2.00000
     13       0.7859      2.00000
     14       0.7859      2.00000
     15       1.9348      2.00000
     16       1.9348      2.00000
     17       2.7014      2.00000
     18       2.7014      2.00000
     19       3.1916      2.00000
     20       3.1916      2.00000
     21       5.2473      0.00000
     22       5.2473      0.00000
     23       5.8326      0.00000
     24       5.8326      0.00000
     25       6.6691      0.00000
     26       6.6691      0.00000
     27       7.5899      0.00000
     28       7.5899      0.00000
     29       8.1740      0.00000
     30       8.1740      0.00000
     31       9.2424      0.00000
     32       9.2424      0.00000

 k-point    19 :       0.3333    0.5000    0.0000
  band No.  band energies     occupation 
      1      -9.0620      2.00000
      2      -9.0620      2.00000
      3      -8.8498      2.00000
      4      -8.8498      2.00000
      5      -4.2638      2.00000
      6      -4.2638      2.00000
      7      -3.6097      2.00000
      8      -3.6097      2.00000
      9      -1.2553      2.00000
     10      -1.2553      2.00000
     11      -0.9097      2.00000
     12      -0.9097      2.00000
     13       0.2217      2.00000
     14       0.2217      2.00000
     15       0.9665      2.00000
     16       0.9665      2.00000
     17       1.4808      2.00000
     18       1.4808      2.00000
     19       2.4925      2.00000
     20       2.4925      2.00000
     21       6.0993      0.00000
     22       6.0993      0.00000
     23       7.9619      0.00000
     24       7.9619      0.00000
     25       8.6347      0.00000
     26       8.6347      0.00000
     27       8.7828      0.00000
     28       8.7828      0.00000
     29       9.1198      0.00000
     30       9.1198      0.00000
     31       9.9328      0.00000
     32       9.9328      0.00000

 k-point    20 :       0.5000    0.5000    0.0000
  band No.  band energies     occupation 
      1      -8.8398      2.00000
      2      -8.8398      2.00000
      3      -8.8106      2.00000
      4      -8.8106      2.00000
      5      -3.9253      2.00000
      6      -3.9253      2.00000
      7      -3.7061      2.00000
      8      -3.7061      2.00000
      9      -1.5806      2.00000
     10      -1.5806      2.00000
     11      -1.2840      2.00000
     12      -1.2840      2.00000
     13      -0.2410      2.00000
     14      -0.2410      2.00000
     15       0.2429      2.00000
     16       0.2429      2.00000
     17       1.5256      2.00000
     18       1.5256      2.00000
[...]
     32       8.5053      0.00000

 k-point    32 :       0.1667    0.3333    0.5000
  band No.  band energies     occupation 
      1      -9.7249      2.00000
      2      -9.7249      2.00000
      3      -8.8584      2.00000
      4      -8.8584      2.00000
      5      -4.4917      2.00000
      6      -4.4916      2.00000
      7      -3.4525      2.00000
      8      -3.4525      2.00000
      9      -0.4572      2.00000
     10      -0.4572      2.00000
     11       0.3895      2.00000
     12       0.3895      2.00000
     13       0.7578      2.00000
     14       0.7578      2.00000
     15       2.1284      2.00000
     16       2.1284      2.00000
     17       2.6292      2.00000
     18       2.6292      2.00000
     19       3.4348      2.00000
     20       3.4348      2.00000
     21       5.3789      0.00000
     22       5.3789      0.00000
     23       6.0992      0.00000
     24       6.0992      0.00000
     25       6.6572      0.00000
     26       6.6572      0.00000
     27       7.6208      0.00000
     28       7.6208      0.00000
     29       8.1343      0.00000
     30       8.1343      0.00000
     31       8.9475      0.00000
     32       8.9475      0.00000

 k-point    33 :       0.1667   -0.3333    0.5000
  band No.  band energies     occupation 
      1      -9.7249      2.00000
      2      -9.7249      2.00000
      3      -8.8584      2.00000
      4      -8.8584      2.00000
      5      -4.4917      2.00000
      6      -4.4916      2.00000
      7      -3.4525      2.00000
      8      -3.4525      2.00000
      9      -0.4572      2.00000
     10      -0.4572      2.00000
     11       0.3895      2.00000
     12       0.3895      2.00000
     13       0.7578      2.00000
     14       0.7578      2.00000
     15       2.1284      2.00000
     16       2.1284      2.00000
     17       2.6292      2.00000
     18       2.6292      2.00000
     19       3.4348      2.00000
     20       3.4348      2.00000
     21       5.3789      0.00000
     22       5.3789      0.00000
     23       6.0992      0.00000
     24       6.0992      0.00000
     25       6.6572      0.00000
     26       6.6572      0.00000
     27       7.6208      0.00000
     28       7.6208      0.00000
     29       8.1343      0.00000
     30       8.1343      0.00000
     31       8.9475      0.00000
     32       8.9475      0.00000

 k-point    34 :       0.3333    0.3333    0.5000
  band No.  band energies     occupation 
      1      -9.3378      2.00000
      2      -9.3378      2.00000
      3      -8.7710      2.00000
      4      -8.7710      2.00000
      5      -4.3118      2.00000
      6      -4.3118      2.00000
      7      -3.6707      2.00000
      8      -3.6707      2.00000
      9      -1.2429      2.00000
     10      -1.2429      2.00000
     11      -0.1785      2.00000
     12      -0.1785      2.00000
     13       0.3723      2.00000
     14       0.3723      2.00000
     15       1.1339      2.00000
     16       1.1339      2.00000
     17       1.8758      2.00000
     18       1.8758      2.00000
     19       2.7645      2.00000
     20       2.7645      2.00000
     21       6.4706      0.00000
     22       6.4706      0.00000
     23       6.9429      0.00000
     24       6.9429      0.00000
     25       7.2938      0.00000
     26       7.2938      0.00000
     27       8.4262      0.00000
     28       8.4262      0.00000
     29       9.1720      0.00000
     30       9.1720      0.00000
     31      10.3119      0.00000
     32      10.3119      0.00000

 k-point    35 :       0.3333   -0.3333    0.5000
  band No.  band energies     occupation 
      1      -9.3378      2.00000
      2      -9.3378      2.00000
      3      -8.7710      2.00000
      4      -8.7710      2.00000
      5      -4.3118      2.00000
      6      -4.3118      2.00000
      7      -3.6707      2.00000
      8      -3.6707      2.00000
      9      -1.2429      2.00000
     10      -1.2429      2.00000
     11      -0.1785      2.00000
     12      -0.1785      2.00000
     13       0.3723      2.00000
     14       0.3723      2.00000
     15       1.1339      2.00000
     16       1.1339      2.00000
     17       1.8758      2.00000
     18       1.8758      2.00000
     19       2.7645      2.00000
     20       2.7645      2.00000
     21       6.4706      0.00000
     22       6.4706      0.00000
     23       6.9429      0.00000
     24       6.9429      0.00000
     25       7.2938      0.00000
     26       7.2938      0.00000
     27       8.4262      0.00000
     28       8.4262      0.00000
     29       9.1720      0.00000
     30       9.1720      0.00000
     31      10.3119      0.00000
     32      10.3119      0.00000

 k-point    36 :       0.5000    0.3333    0.5000
  band No.  band energies     occupation 
      1      -8.9245      2.00000
      2      -8.9245      2.00000
      3      -8.9245      2.00000
      4      -8.9245      2.00000
      5      -4.0879      2.00000
      6      -4.0879      2.00000
      7      -4.0879      2.00000
      8      -4.0879      2.00000
      9      -0.8539      2.00000
     10      -0.8539      2.00000
     11      -0.8539      2.00000
     12      -0.8539      2.00000
     13       0.3394      2.00000
     14       0.3394      2.00000
     15       0.3394      2.00000
     16       0.3394      2.00000
     17       2.0959      2.00000
     18       2.0959      2.00000
     19       2.0959      2.00000
     20       2.0959      2.00000
     21       6.7736      0.00000
     22       6.7736      0.00000
     23       6.7736      0.00000
     24       6.7736      0.00000
     25       8.5229      0.00000
     26       8.5229      0.00000
     27       8.5229      0.00000
     28       8.5229      0.00000
     29      10.0346      0.00000
     30      10.0346      0.00000
     31      10.0346      0.00000
     32      10.0346      0.00000

 k-point    37 :       0.0000    0.5000    0.5000
  band No.  band energies     occupation 
      1      -9.4677      2.00000
      2      -9.4677      2.00000
      3      -9.1242      2.00000
      4      -9.1242      2.00000
      5      -4.7398      2.00000
      6      -4.7398      2.00000
      7      -4.0659      2.00000
      8      -4.0659      2.00000
      9       0.8189      2.00000
     10       0.8189      2.00000
     11       1.2298      2.00000
     12       1.2298      2.00000
     13       1.5574      2.00000
     14       1.5574      2.00000
     15       1.9403      2.00000
     16       1.9403      2.00000
     17       3.2649      2.00000
     18       3.2649      2.00000
     19       3.3496      2.00000
     20       3.3496      2.00000
     21       5.0830      0.00000
     22       5.0830      0.00000
     23       5.4613      0.00000
     24       5.4613      0.00000
     25       5.4836      0.00000
     26       5.4836      0.00000
     27       6.2352      0.00000
     28       6.2352      0.00000
     29       7.0179      0.00000
     30       7.0179      0.00000
     31       8.3096      0.00000
     32       8.3096      0.00000

 k-point    38 :       0.1667    0.5000    0.5000
  band No.  band energies     occupation 
      1      -9.3469      2.00000
      2      -9.3469      2.00000
      3      -9.0337      2.00000
      4      -9.0337      2.00000
      5      -4.5829      2.00000
      6      -4.5829      2.00000
      7      -3.9296      2.00000
      8      -3.9296      2.00000
      9       0.1157      2.00000
     10       0.1157      2.00000
     11       0.1784      2.00000
     12       0.1784      2.00000
     13       1.2149      2.00000
     14       1.2149      2.00000
     15       1.3318      2.00000
     16       1.3318      2.00000
     17       2.4767      2.00000
     18       2.4767      2.00000
     19       3.0771      2.00000
     20       3.0771      2.00000
     21       5.8886      0.00000
     22       5.8886      0.00000
     23       6.0496      0.00000
     24       6.0496      0.00000
     25       6.5388      0.00000
     26       6.5388      0.00000
     27       7.7273      0.00000
     28       7.7273      0.00000
     29       8.1548      0.00000
     30       8.1548      0.00000
     31       8.1956      0.00000
     32       8.1956      0.00000

 k-point    39 :       0.3333    0.5000    0.5000
  band No.  band energies     occupation 
      1      -9.0583      2.00000
      2      -9.0583      2.00000
      3      -8.8544      2.00000
      4      -8.8544      2.00000
      5      -4.2022      2.00000
      6      -4.2022      2.00000
      7      -3.6980      2.00000
      8      -3.6980      2.00000
      9      -1.0868      2.00000
     10      -1.0868      2.00000
     11      -1.0542      2.00000
     12      -1.0542      2.00000
     13       0.4934      2.00000
     14       0.4934      2.00000
     15       0.4992      2.00000
     16       0.4992      2.00000
     17       1.8412      2.00000
     18       1.8412      2.00000
     19       2.3302      2.00000
     20       2.3302      2.00000
     21       6.4035      0.00000
     22       6.4035      0.00000
     23       7.2381      0.00000
     24       7.2381      0.00000
     25       8.4004      0.00000
     26       8.4004      0.00000
     27       8.5413      0.00000
     28       8.5413      0.00000
     29       9.8119      0.00000
     30       9.8119      0.00000
     31      10.0960      0.00000
     32      10.0960      0.00000

 k-point    40 :       0.5000    0.5000    0.5000
  band No.  band energies     occupation 
      1      -8.8253      2.00000
      2      -8.8253      2.00000
      3      -8.8253      2.00000
      4      -8.8253      2.00000
      5      -3.8270      2.00000
      6      -3.8270      2.00000
      7      -3.8270      2.00000
      8      -3.8270      2.00000
      9      -1.3211      2.00000
     10      -1.3211      2.00000
     11      -1.3211      2.00000
     12      -1.3211      2.00000
     13      -0.2719      2.00000
     14      -0.2719      2.00000
     15      -0.2719      2.00000
     16      -0.2719      2.00000
     17       2.1388      2.00000
     18       2.1388      2.00000
     19       2.1388      2.00000
     20       2.1388      2.00000
     21       6.5357      0.00000
     22       6.5357      0.00000
     23       6.5357      0.00000
     24       6.5357      0.00000
     25       9.6489      0.00000
     26       9.6489      0.00000
     27       9.6489      0.00000
     28       9.6489      0.00000
     29      10.5700      0.00000
     30      10.5700      0.00000
     31      10.5700      0.00000
     32      10.5700      0.00000


--------------------------------------------------------------------------------------------------------


 soft charge-density along one line, spin component            1
         0         1         2         3         4         5         6         7         8         9
 total charge-density along one line
 
 pseudopotential strength for first ion, spin component:            1
 14.339  17.884   0.032   0.043   0.000   0.058   0.077   0.000
 17.884  22.320   0.041   0.054   0.000   0.073   0.097   0.000
  0.032   0.041   3.195  -0.002  -0.000   5.437  -0.003  -0.000
  0.043   0.054  -0.002   3.193  -0.000  -0.003   5.433  -0.000
  0.000   0.000  -0.000  -0.000   3.196  -0.000  -0.000   5.438
  0.058   0.073   5.437  -0.003  -0.000   9.307  -0.006  -0.000
  0.077   0.097  -0.003   5.433  -0.000  -0.006   9.301  -0.000
  0.000   0.000  -0.000  -0.000   5.438  -0.000  -0.000   9.309
 -0.000  -0.000   0.000  -0.000   0.005   0.000  -0.000   0.010
 -0.004  -0.005   0.012   0.010  -0.000   0.021   0.017  -0.000
 -0.003  -0.003  -0.003   0.010  -0.000  -0.006   0.019  -0.000
 -0.000  -0.000  -0.000   0.000   0.011  -0.000   0.000   0.021
  0.001   0.001  -0.010  -0.000   0.000  -0.017  -0.000   0.000
 total augmentation occupancy for first ion, spin component:            1
  2.759  -0.747   0.261   0.360  -0.000  -0.046  -0.067   0.000  -0.000  -0.011  -0.006  -0.000   0.011
 -0.747   0.731  -0.335  -0.458   0.000   0.052   0.072  -0.000   0.000   0.009   0.010   0.000  -0.010
  0.261  -0.335   1.211   0.038  -0.000  -0.200   0.004   0.000   0.000   0.028  -0.069   0.000   0.007
  0.360  -0.458   0.038   1.297  -0.000   0.004  -0.216   0.000   0.000  -0.009   0.118  -0.000   0.000
 -0.000   0.000  -0.000  -0.000   1.244  -0.000   0.000  -0.218   0.111  -0.000  -0.000   0.026  -0.000
 -0.046   0.052  -0.200   0.004  -0.000   0.037  -0.002  -0.000  -0.000  -0.005   0.011   0.000  -0.001
 -0.067   0.072   0.004  -0.216   0.000  -0.002   0.041  -0.000  -0.000   0.001  -0.021  -0.000   0.000
  0.000  -0.000   0.000   0.000  -0.218  -0.000  -0.000   0.042  -0.019   0.000  -0.000  -0.004  -0.000
 -0.000   0.000   0.000   0.000   0.111  -0.000  -0.000  -0.019   0.035   0.000  -0.000   0.001  -0.000
 -0.011   0.009   0.028  -0.009  -0.000  -0.005   0.001   0.000   0.000   0.011  -0.005   0.000   0.001
 -0.006   0.010  -0.069   0.118  -0.000   0.011  -0.021  -0.000  -0.000  -0.005   0.035   0.000  -0.003
 -0.000   0.000   0.000  -0.000   0.026   0.000  -0.000  -0.004   0.001   0.000   0.000   0.010  -0.000
  0.011  -0.010   0.007   0.000  -0.000  -0.001   0.000  -0.000  -0.000   0.001  -0.003  -0.000   0.009


------------------------ aborting loop because EDIFF is reached ----------------------------------------


    CHARGE:  cpu time      0.0037: real time      0.0037
    FORLOC:  cpu time      0.0001: real time      0.0001
    FORNL :  cpu time      0.0201: real time      0.0201
    STRESS:  cpu time      0.1748: real time      0.1754
    FORCOR:  cpu time      0.0033: real time      0.0033
    FORHAR:  cpu time      0.0008: real time      0.0008
    MIXING:  cpu time      0.0009: real time      0.0009
    OFIELD:  cpu time      0.0000: real time      0.0000

  FORCE on cell =-STRESS in cart. coord.  units (eV):
  Direction    XX          YY          ZZ          XY          YZ          ZX
  --------------------------------------------------------------------------------------
  Alpha Z    93.87297    93.87297    93.87297
  Ewald    -454.33633  -492.40280  -519.27164    -0.00000     0.00000    -0.00000
  Hartree    52.86334    40.53373    24.18617    -0.00000     0.00000     0.00000
  E(xc)    -141.42559  -141.52544  -142.07685     0.00000     0.00000    -0.00000
  Local    -170.51917  -125.20709   -84.96102     0.00000    -0.00000    -0.00000
  n-local   240.73511   240.07045   242.90337    -0.00000    -0.00000     0.00000
  augment   -11.34580   -11.73753   -12.04942    -0.00000     0.00000     0.00000
  Kinetic   392.52090   400.80421   399.23614     0.00000    -0.00000    -0.00000
  Fock        0.00000     0.00000     0.00000     0.00000     0.00000     0.00000
  -------------------------------------------------------------------------------------
  Total       2.36544     4.40850     1.83972     0.00000    -0.00000    -0.00000
  in kB      20.99596    39.13047    16.32962     0.00001    -0.00000    -0.00000
  external pressure =       25.49 kB  Pullay stress =        0.00 kB


 VOLUME and BASIS-vectors are now :
 -----------------------------------------------------------------------------
  energy-cutoff  :      360.00
  volume of cell :      180.50
      direct lattice vectors                 reciprocal lattice vectors
     4.000000000  0.000000000  0.000000000     0.250000000  0.000000000  0.000000000
     0.000000000  4.050000000  0.000000000     0.000000000  0.246913580  0.000000000
     0.000000000  0.000000000 11.142221000     0.000000000  0.000000000  0.089748713

  length of vectors
     4.000000000  4.050000000 11.142221000     0.250000000  0.246913580  0.089748713


 FORCES acting on ions
    electron-ion (+dipol)            ewald-force                    non-local-force                 convergence-correction
 -----------------------------------------------------------------------------------------------
   0.565E-06 0.907E+01 0.247E+02   0.107E-14 -.111E+02 -.273E+02   -.394E-06 0.200E+01 0.263E+01   -.125E-06 -.963E-04 -.102E-02
   0.105E-05 0.907E+01 -.247E+02   0.298E-14 -.111E+02 0.273E+02   -.600E-06 0.200E+01 -.263E+01   -.514E-06 -.960E-04 0.101E-02
   -.858E-06 -.907E+01 -.247E+02   -.338E-14 0.111E+02 0.273E+02   0.428E-06 -.200E+01 -.263E+01   0.389E-06 0.951E-04 0.101E-02
   0.289E-06 -.907E+01 0.247E+02   -.145E-14 0.111E+02 -.273E+02   -.125E-06 -.200E+01 0.263E+01   -.337E-06 0.965E-04 -.101E-02
   -.179E-05 -.841E+01 -.271E+02   -.623E-14 0.932E+01 0.288E+02   0.749E-06 -.843E+00 -.173E+01   0.990E-06 0.198E-03 0.174E-02
   -.553E-06 -.841E+01 0.271E+02   -.214E-14 0.932E+01 -.288E+02   0.303E-06 -.843E+00 0.173E+01   0.289E-07 0.199E-03 -.175E-02
   -.943E-06 0.841E+01 0.271E+02   -.173E-14 -.932E+01 -.288E+02   0.522E-06 0.843E+00 0.173E+01   0.538E-06 -.200E-03 -.174E-02
   0.137E-05 0.841E+01 -.271E+02   0.371E-14 -.932E+01 0.288E+02   -.241E-06 0.843E+00 -.173E+01   -.106E-05 -.197E-03 0.175E-02
 -----------------------------------------------------------------------------------------------
   -.867E-06 -.367E-06 -.235E-05   -.717E-14 0.000E+00 0.320E-13   0.642E-06 0.940E-06 -.274E-07   -.882E-07 -.958E-06 0.244E-05
 
 
 POSITION                                       TOTAL-FORCE (eV/Angst)
 -----------------------------------------------------------------------------------
      1.00000      0.39529      1.45226         0.000000     -0.057426      0.013482
      3.00000      2.42029      4.11885        -0.000000     -0.057426     -0.013481
      3.00000      3.65471      9.68996        -0.000000      0.057425     -0.013482
      1.00000      1.62971      7.02337        -0.000000      0.057425      0.013481
      1.00000      0.07552      4.00953        -0.000000      0.071047     -0.000293
      3.00000      2.10052      1.56158        -0.000000      0.071047      0.000293
      3.00000      3.97448      7.13269         0.000000     -0.071046      0.000293
      1.00000      1.94948      9.58064         0.000000     -0.071047     -0.000293
 -----------------------------------------------------------------------------------
    total drift:                               -0.000000     -0.000000      0.000000


--------------------------------------------------------------------------------------------------------



  FREE ENERGIE OF THE ION-ELECTRON SYSTEM (eV)
  ---------------------------------------------------
  free  energy   TOTEN  =       -33.66560684 eV

  energy  without entropy=      -33.66560684  energy(sigma->0) =      -33.66560684
 


--------------------------------------------------------------------------------------------------------


    POTLOK:  cpu time      0.1131: real time      0.1133


--------------------------------------------------------------------------------------------------------


     LOOP+:  cpu time      4.9552: real time      4.9935
    4ORBIT:  cpu time      0.0000: real time      0.0000

 total amount of memory used by VASP MPI-rank0    37842. kBytes
=======================================================================

   base      :      30000. kBytes
   nonl-proj :       6082. kBytes
   fftplans  :        320. kBytes
   grid      :        462. kBytes
   one-center:         16. kBytes
   wavefun   :        962. kBytes
 
  
  
 General timing and accounting informations for this job:
 ========================================================
  
                  Total CPU time used (sec):        5.822
                            User time (sec):        5.468
                          System time (sec):        0.354
                         Elapsed time (sec):        7.298
  
                   Maximum memory used (kb):      188864.
                   Average memory used (kb):          N/A
  
                          Minor page faults:        21092
                          Major page faults:           34
                 Voluntary context switches:         2195
