 running  128 mpi-ranks, with    1 threads/rank, on    2 nodes
 distrk:  each k-point on   64 cores,    2 groups
 distr:  one band on    4 cores,   16 groups
 vasp.6.4.2 20Jul23 (build Oct 12 2023 10:31:02) complex                         
 POSCAR found type information on POSCAR GeSe
 POSCAR found :  2 types and       8 ions
 Reading from existing POTCAR
 scaLAPACK will be used
 Reading from existing POTCAR
 LDA part: xc-table for Pade appr. of Perdew
 POSCAR, INCAR and KPOINTS ok, starting setup
 FFT: planning ... GRIDC
 FFT: planning ... GRID_SOFT
 FFT: planning ... GRID
 WAVECAR not read
 entering main loop
       N       E                     dE             d eps       ncg     rms          rms(c)
DAV:   1     0.128175399508E+03    0.12818E+03   -0.12998E+04  2560   0.780E+02
DAV:   2    -0.257912570645E+02   -0.15397E+03   -0.14970E+03  3664   0.140E+02
DAV:   3    -0.339780584887E+02   -0.81868E+01   -0.81687E+01  3248   0.371E+01
DAV:   4    -0.340289578265E+02   -0.50899E-01   -0.50889E-01  3104   0.335E+00
DAV:   5    -0.340292480861E+02   -0.29026E-03   -0.29025E-03  3248   0.248E-01    0.664E+00
DAV:   6    -0.336730864887E+02    0.35616E+00   -0.69830E-01  3184   0.285E+00    0.416E+00
DAV:   7    -0.336684284029E+02    0.46581E-02   -0.24218E-01  3424   0.173E+00    0.119E+00
DAV:   8    -0.336653460819E+02    0.30823E-02   -0.30351E-02  3120   0.644E-01    0.169E-01
DAV:   9    -0.336655638625E+02   -0.21778E-03   -0.32882E-03  3152   0.256E-01    0.638E-02
DAV:  10    -0.336655853510E+02   -0.21488E-04   -0.18020E-04  3168   0.608E-02    0.241E-02
DAV:  11    -0.336656071883E+02   -0.21837E-04   -0.36058E-05  3040   0.278E-02    0.104E-02
DAV:  12    -0.336656068375E+02    0.35087E-06   -0.41164E-06  3120   0.813E-03
   1 F= -.33665607E+02 E0= -.33665607E+02  d E =-.152721E-11
