 vasp.6.4.1 05Apr23 (build May 18 2023 13:19:41) complex                         
 executed on    LinuxNV_CrayMPICH date 2024.04.06  05:09:53
 running  256 mpi-ranks, with    1 threads/rank, on    7 nodes
 distrk:  each k-point on  128 cores,    2 groups
 distr:  one band on NCORE=   4 cores,   32 groups


--------------------------------------------------------------------------------------------------------


 INCAR:
   ENCUT = 400.000000
   SIGMA = 0.010000
   EDIFF = 1.00e-06
   ALGO = N
   GGA = PE
   PREC = Accurate
   SYSTEM = 02_SCF
   ICHARG = 0
   ISMEAR = 0
   ISPIN = 2
   ISTART = 1
   KPAR = 2
   LORBIT = 11
   NBANDS = 896
   NELMIN = 5
   NPAR = 32
   IVDW = 11
   LCHARG = .TRUE.
   LWAVE = .TRUE.
   LREAL = .FALSE.

 POTCAR:    PAW_PBE S 17Jan2003                   
 -----------------------------------------------------------------------------
|                                                                             |
|           W    W    AA    RRRRR   N    N  II  N    N   GGGG   !!!           |
|           W    W   A  A   R    R  NN   N  II  NN   N  G    G  !!!           |
|           W    W  A    A  R    R  N N  N  II  N N  N  G       !!!           |
|           W WW W  AAAAAA  RRRRR   N  N N  II  N  N N  G  GGG   !            |
|           WW  WW  A    A  R   R   N   NN  II  N   NN  G    G                |
|           W    W  A    A  R    R  N    N  II  N    N   GGGG   !!!           |
|                                                                             |
|     You use a magnetic or noncollinear calculation, but did not specify     |
|     the initial magnetic moment with the MAGMOM tag. Note that a            |
|     default of 1 will be used for all atoms. This ferromagnetic setup       |
|     may break the symmetry of the crystal, in particular it may rule        |
|     out finding an antiferromagnetic solution. Thence, we recommend         |
|     setting the initial magnetic moment manually or verifying carefully     |
|     that this magnetic setup is desired.                                    |
|                                                                             |
 -----------------------------------------------------------------------------

 POTCAR:    PAW_PBE S 17Jan2003                   
   VRHFIN =S : s2p4                                                                                 
   LEXCH  = PE                                                                                      
   EATOM  =   276.8230 eV,   20.3459 Ry                                                             
                                                                                                    
   TITEL  = PAW_PBE S 17Jan2003                                                                     
   LULTRA =        F    use ultrasoft PP ?                                                          
   IUNSCR =        1    unscreen: 0-lin 1-nonlin 2-no                                               
   RPACOR =    1.500    partial core radius                                                         
   POMASS =   32.066; ZVAL   =    6.000    mass and valenz                                          
   RCORE  =    1.900    outmost cutoff radius                                                       
   RWIGS  =    2.200; RWIGS  =    1.164    wigner-seitz radius (au A)                               
   ENMAX  =  280.000; ENMIN  =  194.016 eV                                                          
   ICORE  =        2    local potential                                                             
   LCOR   =        T    correct aug charges                                                         
   LPAW   =        T    paw PP                                                                      
   EAUG   =  335.092                                                                                
   DEXC   =     .000                                                                                
   RMAX   =    2.867    core radius for proj-oper                                                   
   RAUG   =    1.300    factor for augmentation sphere                                              
   RDEP   =    1.954    radius for radial grids                                                     
   QCUT   =   -4.360; QGAM   =    8.721    optimization parameters                                  
                                                                                                    
   Description                                                                                      
     l     E      TYP  RCUT    TYP  RCUT                                                            
     0   .000     23  1.900                                                                         
     0   .000     23  1.900                                                                         
     1   .000     23  1.900                                                                         
     1   .000     23  1.900                                                                         
     2   .000     23  1.900                                                                         
  local pseudopotential read in
  partial core-charges read in
  atomic valenz-charges read in
  non local Contribution for L=            0  read in
    real space projection operators read in
  non local Contribution for L=            0  read in
    real space projection operators read in
  non local Contribution for L=            1  read in
    real space projection operators read in
  non local Contribution for L=            1  read in
    real space projection operators read in
    PAW grid and wavefunctions read in
 
   number of l-projection  operators is LMAX  =            4
   number of lm-projection operators is LMMAX =            8
 
  PAW_PBE S 17Jan2003                   :
 energy of atom  1       EATOM= -276.8230
 kinetic energy error for atom=    0.0046 (will be added to EATOM!!)
 
 
 POSCAR:  S
  positions in cartesian coordinates
  No initial velocities read in
 exchange correlation table for  LEXCH =        8
   RHO(1)=    0.500       N(1)  =     2000
   RHO(2)=  100.500       N(2)  =     4000
 


--------------------------------------------------------------------------------------------------------


 ion  position               nearest neighbor table
   1  0.417  0.413  0.490-
 
  LATTYP: Found a simple orthorhombic cell.
 ALAT       =    19.9214134216
 B/A-ratio  =     1.6250001197
 C/A-ratio  =     2.0303804144
  
  Lattice vectors:
  
 A1 = (   0.0000000000, -19.9214134216,   0.0000000000)
 A2 = (  32.3722991943,   0.0000000000,   0.0000000000)
 A3 = (   0.0000000000,   0.0000000000,  40.4480476379)


Analysis of symmetry for initial positions (statically):
=====================================================================
 Subroutine PRICEL returns:
 Original cell was already a primitive cell.
 

 Routine SETGRP: Setting up the symmetry group for a 
 simple orthorhombic supercell.


 Subroutine GETGRP returns: Found  8 space group operations
 (whereof  1 operations were pure point group operations)
 out of a pool of  8 trial point group operations.


The static configuration has the point symmetry C_1 .
 The point group associated with its full space group is D_2h.


Analysis of symmetry for dynamics (positions and initial velocities):
=====================================================================
 Subroutine PRICEL returns:
 Original cell was already a primitive cell.
 

 Routine SETGRP: Setting up the symmetry group for a 
 simple orthorhombic supercell.


 Subroutine GETGRP returns: Found  8 space group operations
 (whereof  1 operations were pure point group operations)
 out of a pool of  8 trial point group operations.


The dynamic configuration has the point symmetry C_1 .
 The point group associated with its full space group is D_2h.


Analysis of structural, dynamic, and magnetic symmetry:
=====================================================================
 Subroutine PRICEL returns:
 Original cell was already a primitive cell.
 

 Routine SETGRP: Setting up the symmetry group for a 
 simple orthorhombic supercell.


 Subroutine GETGRP returns: Found  8 space group operations
 (whereof  1 operations were pure point group operations)
 out of a pool of  8 trial point group operations.


The overall configuration has the point symmetry C_1 .
 The point group associated with its full space group is D_2h.


 Subroutine INISYM returns: Found  8 space group operations
 (whereof  1 operations are pure point group operations),
 and found     1 'primitive' translations


----------------------------------------------------------------------------------------

                                     Primitive cell                                     

  volume of cell :   26085.0250

  direct lattice vectors                    reciprocal lattice vectors
    32.372299194  0.000000000  0.000000000     0.030890608  0.000000000  0.000000000
     0.000000000 19.921413422  0.000000000     0.000000000  0.050197241  0.000000000
     0.000000000  0.000000000 40.448047638     0.000000000  0.000000000  0.024723072

  length of vectors
    32.372299194 19.921413422 40.448047638     0.030890608  0.050197241  0.024723072

  position of ions in fractional coordinates (direct lattice)
     0.416631983  0.412513004  0.489628002

  ion indices of the primitive-cell ions
   primitive index   ion index
                 1           1

----------------------------------------------------------------------------------------

 
 
 KPOINTS: KPOINTS created by Atomic Simulation Env

Automatic generation of k-mesh.
 Grid dimensions read from file:
 generate k-points for:    1    1    2

 Generating k-lattice:

  Cartesian coordinates                     Fractional coordinates (reciprocal lattice)
     0.030890608  0.000000000  0.000000000     1.000000000  0.000000000  0.000000000
     0.000000000  0.050197241  0.000000000     0.000000000  1.000000000  0.000000000
     0.000000000  0.000000000  0.012361536     0.000000000  0.000000000  0.500000000

  Length of vectors
     0.030890608  0.050197241  0.012361536

  Shift w.r.t. Gamma in fractional coordinates (k-lattice)
     0.000000000  0.000000000  0.000000000

 
 Subroutine IBZKPT returns following result:
 ===========================================
 
 Found      2 irreducible k-points:
 
 Following reciprocal coordinates:
            Coordinates               Weight
  0.000000  0.000000  0.000000      1.000000
  0.000000  0.000000  0.500000      1.000000
 
 Following cartesian coordinates:
            Coordinates               Weight
  0.000000  0.000000  0.000000      1.000000
  0.000000  0.000000  0.012362      1.000000
 


--------------------------------------------------------------------------------------------------------




 Dimension of arrays:
   k-points           NKPTS =      2   k-points in BZ     NKDIM =      2   number of bands    NBANDS=    896
   number of dos      NEDOS =    301   number of ions     NIONS =      1
   non local maximal  LDIM  =      4   non local SUM 2l+1 LMDIM =      8
   total plane-waves  NPLWV = ******
   max r-space proj   IRMAX =      1   max aug-charges    IRDMAX=  10060
   dimension x,y,z NGX =   216 NGY =  140 NGZ =  270
   dimension x,y,z NGXF=   432 NGYF=  280 NGZF=  540
   support grid    NGXF=   432 NGYF=  280 NGZF=  540
   ions per type =               1
   NGX,Y,Z   is equivalent  to a cutoff of  11.09, 11.68, 11.10 a.u.
   NGXF,Y,Z  is equivalent  to a cutoff of  22.19, 23.37, 22.19 a.u.

 SYSTEM =  02_SCF                                  
 POSCAR =   S                                      

 Startparameter for this run:
   NWRITE =      2    write-flag & timer
   PREC   = accura    normal or accurate (medium, high low for compatibility)
   ISTART =      0    job   : 0-new  1-cont  2-samecut
   ICHARG =      2    charge: 1-file 2-atom 10-const
   ISPIN  =      2    spin polarized calculation?
   LNONCOLLINEAR =      F non collinear calculations
   LSORBIT =      F    spin-orbit coupling
   INIWAV =      1    electr: 0-lowe 1-rand  2-diag
   LASPH  =      F    aspherical Exc in radial PAW
 Electronic Relaxation 1
   ENCUT  =  400.0 eV  29.40 Ry    5.42 a.u.  52.79 32.49 65.96*2*pi/ulx,y,z
   ENINI  =  400.0     initial cutoff
   ENAUG  =  335.1 eV  augmentation charge cutoff
   NELM   =     60;   NELMIN=  5; NELMDL=  0     # of ELM steps 
   EDIFF  = 0.1E-05   stopping-criterion for ELM
   LREAL  =      F    real-space projection
   NLSPLINE    = F    spline interpolate recip. space projectors
   LCOMPAT=      F    compatible to vasp.4.4
   GGA_COMPAT  = T    GGA compatible to vasp.4.4-vasp.4.6
   LMAXPAW     = -100 max onsite density
   LMAXMIX     =    2 max onsite mixed and CHGCAR
   VOSKOWN=      0    Vosko Wilk Nusair interpolation
   ROPT   =    0.00000
 Ionic relaxation
   EDIFFG = 0.1E-04   stopping-criterion for IOM
   NSW    =      0    number of steps for IOM
   NBLOCK =      1;   KBLOCK =      1    inner block; outer block 
   IBRION =     -1    ionic relax: 0-MD 1-quasi-New 2-CG
   NFREE  =      0    steps in history (QN), initial steepest desc. (CG)
   ISIF   =      2    stress and relaxation
   IWAVPR =     10    prediction:  0-non 1-charg 2-wave 3-comb
   ISYM   =      2    0-nonsym 1-usesym 2-fastsym
   LCORR  =      T    Harris-Foulkes like correction to forces

   POTIM  = 0.5000    time-step for ionic-motion
   TEIN   =    0.0    initial temperature
   TEBEG  =    0.0;   TEEND  =   0.0 temperature during run
   SMASS  =  -3.00    Nose mass-parameter (am)
   estimated Nose-frequenzy (Omega)   =  0.10E-29 period in steps = 0.13E+47 mass=  -0.239E-25a.u.
   SCALEE = 1.0000    scale energy and forces
   NPACO  =    256;   APACO  = 10.0  distance and # of slots for P.C.
   PSTRESS=    0.0 pullay stress

  Mass of Ions in am
   POMASS =  32.07
  Ionic Valenz
   ZVAL   =   6.00
  Atomic Wigner-Seitz radii
   RWIGS  =  -1.00
  virtual crystal weights 
   VCA    =   1.00
   NELECT =       6.0000    total number of electrons
   NUPDOWN=      -1.0000    fix difference up-down

 DOS related values:
   EMIN   =  10.00;   EMAX   =-10.00  energy-range for DOS
   EFERMI =   0.00;   METHOD = LEGACY      
   ISMEAR =     0;   SIGMA  =   0.01  broadening in eV -4-tet -1-fermi 0-gaus

 Electronic relaxation 2 (details)
   IALGO  =     38    algorithm
   LDIAG  =      T    sub-space diagonalisation (order eigenvalues)
   LSUBROT=      F    optimize rotation matrix (better conditioning)
   TURBO    =      0    0=normal 1=particle mesh
   IRESTART =      0    0=no restart 2=restart with 2 vectors
   NREBOOT  =      0    no. of reboots
   NMIN     =      0    reboot dimension
   EREF     =   0.00    reference energy to select bands
   IMIX   =      4    mixing-type and parameters
     AMIX     =   0.40;   BMIX     =  1.00
     AMIX_MAG =   1.60;   BMIX_MAG =  1.00
     AMIN     =   0.10
     WC   =   100.;   INIMIX=   1;  MIXPRE=   1;  MAXMIX= -45

 Intra band minimization:
   WEIMIN = 0.0000     energy-eigenvalue tresh-hold
   EBREAK =  0.28E-09  absolut break condition
   DEPER  =   0.30     relativ break condition  

   TIME   =   0.40     timestep for ELM

  volume/ion in A,a.u.               =   26085.03    176030.44
  Fermi-wavevector in a.u.,A,eV,Ry     =   0.100306  0.189551  0.136893  0.010061
  Thomas-Fermi vector in A             =   0.675333
 
 Write flags
   LWAVE        =      T    write WAVECAR
   LDOWNSAMPLE  =      F    k-point downsampling of WAVECAR
   LCHARG       =      T    write CHGCAR
   LVTOT        =      F    write LOCPOT, total local potential
   LVHAR        =      F    write LOCPOT, Hartree potential only
   LELF         =      F    write electronic localiz. function (ELF)
   LORBIT       =     11    0 simple, 1 ext, 2 COOP (PROOUT), +10 PAW based schemes


 Dipole corrections
   LMONO  =      F    monopole corrections only (constant potential shift)
   LDIPOL =      F    correct potential (dipole corrections)
   IDIPOL =      0    1-x, 2-y, 3-z, 4-all directions 
   EPSILON=  1.0000000 bulk dielectric constant

 Exchange correlation treatment:
   GGA     =    PE    GGA type
   LEXCH   =     8    internal setting for exchange type
   LIBXC   =     F    Libxc                    
   VOSKOWN =     0    Vosko Wilk Nusair interpolation
   LHFCALC =     F    Hartree Fock is set to
   LHFONE  =     F    Hartree Fock one center treatment
   AEXX    =    0.0000 exact exchange contribution

 Linear response parameters
   LEPSILON=     F    determine dielectric tensor
   LRPA    =     F    only Hartree local field effects (RPA)
   LNABLA  =     F    use nabla operator in PAW spheres
   LVEL    =     F    velocity operator in full k-point grid
   CSHIFT  =0.1000    complex shift for real part using Kramers Kronig
   OMEGAMAX=  -1.0    maximum frequency
   DEG_THRESHOLD= 0.2000000E-02 threshold for treating states as degnerate
   RTIME   =   -0.100 relaxation time in fs
  (WPLASMAI=    0.000 imaginary part of plasma frequency in eV, 0.658/RTIME)
   DFIELD  = 0.0000000 0.0000000 0.0000000 field for delta impulse in time
 
  Optional k-point grid parameters
   LKPOINTS_OPT  =     F    use optional k-point grid
   KPOINTS_OPT_MODE=     1    mode for optional k-point grid
 
 Orbital magnetization related:
   ORBITALMAG=     F  switch on orbital magnetization
   LCHIMAG   =     F  perturbation theory with respect to B field
   DQ        =  0.001000  dq finite difference perturbation B field
   LLRAUG    =     F  two centre corrections for induced B field
   LBONE     =     F  B-component reconstruction in AE one-centre
   LVGVCALC  =     T  calculate vGv susceptibility
   LVGVAPPL  =     F  apply vGv susceptibility instead of pGv for G=0

 Random number generation:
   RANDOM_GENERATOR = DEFAULT
   PCG_SEED         = not used


--------------------------------------------------------------------------------------------------------


 Static calculation
 charge density and potential will be updated during run
 spin polarized calculation
 Variant of blocked Davidson
 Davidson routine will perform the subspace rotation
 perform sub-space diagonalisation
    after iterative eigenvector-optimisation
 modified Broyden-mixing scheme, WC =      100.0
 initial mixing is a Kerker type mixing with AMIX =  0.4000 and BMIX =      1.0000
 Hartree-type preconditioning will be used
 using additional bands           893
 reciprocal scheme for non local part
 use partial core corrections
 calculate Harris-corrections to forces 
   (improved forces if not selfconsistent)
 use gradient corrections 
 use of overlap-Matrix (Vanderbilt PP)
 Gauss-broadening in eV      SIGMA  =   0.01


--------------------------------------------------------------------------------------------------------


  energy-cutoff  :      400.00
  volume of cell :    26085.03
      direct lattice vectors                 reciprocal lattice vectors
    32.372299194  0.000000000  0.000000000     0.030890608  0.000000000  0.000000000
     0.000000000 19.921413422  0.000000000     0.000000000  0.050197241  0.000000000
     0.000000000  0.000000000 40.448047638     0.000000000  0.000000000  0.024723072

  length of vectors
    32.372299194 19.921413422 40.448047638     0.030890608  0.050197241  0.024723072


 
 k-points in units of 2pi/SCALE and weight: KPOINTS created by Atomic Simulation Env
   0.00000000  0.00000000  0.00000000       0.500
   0.00000000  0.00000000  0.01236154       0.500
 
 k-points in reciprocal lattice and weights: KPOINTS created by Atomic Simulation Env
   0.00000000  0.00000000  0.00000000       0.500
   0.00000000  0.00000000  0.50000000       0.500
 
 position of ions in fractional coordinates (direct lattice) 
   0.41663198  0.41251300  0.48962800
 
 position of ions in cartesian coordinates  (Angst):
  13.48733521  8.21784210 19.80449677
 


--------------------------------------------------------------------------------------------------------


 k-point   1 :   0.0000 0.0000 0.0000  plane waves:  473959
 k-point   2 :   0.0000 0.0000 0.5000  plane waves:  473680

 maximum and minimum number of plane-waves per node :    118517   118418

 maximum number of plane-waves:    473959
 maximum index in each direction: 
   IXMAX=   52   IYMAX=   32   IZMAX=   65
   IXMIN=  -52   IYMIN=  -32   IZMIN=  -66


 parallel 3D FFT for wavefunctions:
    minimum data exchange during FFTs selected (reduces bandwidth)
 parallel 3D FFT for charge:
    minimum data exchange during FFTs selected (reduces bandwidth)


 total amount of memory used by VASP MPI-rank0   546435. kBytes
=======================================================================

   base      :      30000. kBytes
   nonl-proj :      17068. kBytes
   fftplans  :      79694. kBytes
   grid      :     207208. kBytes
   one-center:          6. kBytes
   wavefun   :     212459. kBytes
 
     INWAV:  cpu time      0.0000: real time      0.0000
 Broyden mixing: mesh for mixing (old mesh)
   NGX =105   NGY = 65   NGZ =131
  (NGX  =432   NGY  =280   NGZ  =540)
  gives a total of 894075 points

 initial charge density was supplied:
 charge density of overlapping atoms calculated
 number of electron       6.0000000 magnetization       1.0000000
 keeping initial charge density in first step


--------------------------------------------------------------------------------------------------------


 Maximum index for augmentation-charges             0 (set IRDMAX)


--------------------------------------------------------------------------------------------------------


 First call to EWALD:  gamma=   0.060
 Maximum number of real-space cells 3x 4x 2
 Maximum number of reciprocal cells 3x 2x 4

    FEWALD:  cpu time      0.0781: real time      0.0781


--------------------------------------- Ionic step        1  -------------------------------------------




--------------------------------------- Iteration      1(   1)  ---------------------------------------


    POTLOK:  cpu time      0.8185: real time      0.8186
    SETDIJ:  cpu time      0.0029: real time      0.0029
     EDDAV:  cpu time     28.2630: real time     28.2723
       DOS:  cpu time      0.0016: real time      0.0016
    --------------------------------------------
      LOOP:  cpu time     29.0861: real time     29.0955

 eigenvalue-minimisations  :  7168
 total energy-change (2. order) : 0.3966296E+02  (-0.2621252E+02)
 number of electron       6.0000000 magnetization       1.0000000
 augmentation part        6.0000000 magnetization       1.0000000

 Free energy of the ion-electron system (eV)
  ---------------------------------------------------
  alpha Z        PSCENC =         0.00578669
  Ewald energy   TEWEN  =       -21.16206747
  -Hartree energ DENC   =      -207.24934173
  -exchange      EXHF   =         0.00000000
  -V(xc)+E(xc)   XCENC  =        10.95620467
  PAW double counting   =        99.17335537      -95.97310228
  entropy T*S    EENTRO =        -0.00000001
  eigenvalues    EBANDS =       -22.90627457
  atomic energy  EATOM  =       276.81840277
  Solvation  Ediel_sol  =         0.00000000
  ---------------------------------------------------
  free energy    TOTEN  =        39.66296343 eV

  energy without entropy =       39.66296344  energy(sigma->0) =       39.66296344


--------------------------------------------------------------------------------------------------------




--------------------------------------- Iteration      1(   2)  ---------------------------------------


     EDDAV:  cpu time     30.7200: real time     30.7287
       DOS:  cpu time      0.0008: real time      0.0008
    --------------------------------------------
      LOOP:  cpu time     30.7208: real time     30.7295

 eigenvalue-minimisations  :  8064
 total energy-change (2. order) :-0.2971650E+02  (-0.2631961E+02)
 number of electron       6.0000000 magnetization       1.0000000
 augmentation part        6.0000000 magnetization       1.0000000

 Free energy of the ion-electron system (eV)
  ---------------------------------------------------
  alpha Z        PSCENC =         0.00578669
  Ewald energy   TEWEN  =       -21.16206747
  -Hartree energ DENC   =      -207.24934173
  -exchange      EXHF   =         0.00000000
  -V(xc)+E(xc)   XCENC  =        10.95620467
  PAW double counting   =        99.17335537      -95.97310228
  entropy T*S    EENTRO =        -0.00000000
  eigenvalues    EBANDS =       -52.62277916
  atomic energy  EATOM  =       276.81840277
  Solvation  Ediel_sol  =         0.00000000
  ---------------------------------------------------
  free energy    TOTEN  =         9.94645885 eV

  energy without entropy =        9.94645885  energy(sigma->0) =        9.94645885


--------------------------------------------------------------------------------------------------------




--------------------------------------- Iteration      1(   3)  ---------------------------------------


     EDDAV:  cpu time     32.8405: real time     32.8460
       DOS:  cpu time      0.0014: real time      0.0014
    --------------------------------------------
      LOOP:  cpu time     32.8418: real time     32.8474

 eigenvalue-minimisations  :  8768
 total energy-change (2. order) :-0.1027557E+02  (-0.1009883E+02)
 number of electron       6.0000000 magnetization       1.0000000
 augmentation part        6.0000000 magnetization       1.0000000

 Free energy of the ion-electron system (eV)
  ---------------------------------------------------
  alpha Z        PSCENC =         0.00578669
  Ewald energy   TEWEN  =       -21.16206747
  -Hartree energ DENC   =      -207.24934173
  -exchange      EXHF   =         0.00000000
  -V(xc)+E(xc)   XCENC  =        10.95620467
  PAW double counting   =        99.17335537      -95.97310228
  entropy T*S    EENTRO =        -0.00549029
  eigenvalues    EBANDS =       -62.89285928
  atomic energy  EATOM  =       276.81840277
  Solvation  Ediel_sol  =         0.00000000
  ---------------------------------------------------
  free energy    TOTEN  =        -0.32911156 eV

  energy without entropy =       -0.32362127  energy(sigma->0) =       -0.32636642


--------------------------------------------------------------------------------------------------------




--------------------------------------- Iteration      1(   4)  ---------------------------------------


     EDDAV:  cpu time     31.5155: real time     31.5186
       DOS:  cpu time      0.0014: real time      0.0014
    --------------------------------------------
      LOOP:  cpu time     31.5169: real time     31.5200

 eigenvalue-minimisations  :  8352
 total energy-change (2. order) :-0.3257487E+00  (-0.3234889E+00)
 number of electron       6.0000000 magnetization       1.0000000
 augmentation part        6.0000000 magnetization       1.0000000

 Free energy of the ion-electron system (eV)
  ---------------------------------------------------
  alpha Z        PSCENC =         0.00578669
  Ewald energy   TEWEN  =       -21.16206747
  -Hartree energ DENC   =      -207.24934173
  -exchange      EXHF   =         0.00000000
  -V(xc)+E(xc)   XCENC  =        10.95620467
  PAW double counting   =        99.17335537      -95.97310228
  entropy T*S    EENTRO =        -0.00771302
  eigenvalues    EBANDS =       -63.21638523
  atomic energy  EATOM  =       276.81840277
  Solvation  Ediel_sol  =         0.00000000
  ---------------------------------------------------
  free energy    TOTEN  =        -0.65486024 eV

  energy without entropy =       -0.64714722  energy(sigma->0) =       -0.65100373


--------------------------------------------------------------------------------------------------------




--------------------------------------- Iteration      1(   5)  ---------------------------------------


     EDDAV:  cpu time     32.1168: real time     32.1244
       DOS:  cpu time      0.0013: real time      0.0013
    CHARGE:  cpu time      1.7592: real time      1.7623
    MIXING:  cpu time      0.0388: real time      0.0388
    --------------------------------------------
      LOOP:  cpu time     33.9162: real time     33.9269

 eigenvalue-minimisations  :  8512
 total energy-change (2. order) :-0.2437307E-02  (-0.2437127E-02)
 number of electron       6.0000000 magnetization       1.0376990
 augmentation part       -0.8464267 magnetization      -1.0695522

 Broyden mixing:
  rms(total) = 0.27782E+00    rms(broyden)= 0.27779E+00
  rms(prec ) = 0.27780E+00
  weight for this iteration     100.00

 Free energy of the ion-electron system (eV)
  ---------------------------------------------------
  alpha Z        PSCENC =         0.00578669
  Ewald energy   TEWEN  =       -21.16206747
  -Hartree energ DENC   =      -207.24934173
  -exchange      EXHF   =         0.00000000
  -V(xc)+E(xc)   XCENC  =        10.95620467
  PAW double counting   =        99.17335537      -95.97310228
  entropy T*S    EENTRO =        -0.00771312
  eigenvalues    EBANDS =       -63.21882244
  atomic energy  EATOM  =       276.81840277
  Solvation  Ediel_sol  =         0.00000000
  ---------------------------------------------------
  free energy    TOTEN  =        -0.65729755 eV

  energy without entropy =       -0.64958443  energy(sigma->0) =       -0.65344099


--------------------------------------------------------------------------------------------------------




--------------------------------------- Iteration      1(   6)  ---------------------------------------


    POTLOK:  cpu time      0.7799: real time      0.7839
    SETDIJ:  cpu time      0.0020: real time      0.0020
     EDDAV:  cpu time     29.3747: real time     29.3772
       DOS:  cpu time      0.0015: real time      0.0015
    CHARGE:  cpu time      1.6756: real time      1.6762
    MIXING:  cpu time      0.0323: real time      0.0323
    --------------------------------------------
      LOOP:  cpu time     31.8660: real time     31.8730

 eigenvalue-minimisations  :  7584
 total energy-change (2. order) : 0.1359611E+01  (-0.1079025E+00)
 number of electron       6.0000000 magnetization       1.0729200
 augmentation part       -0.8538134 magnetization      -1.0420427

 Broyden mixing:
  rms(total) = 0.80913E-01    rms(broyden)= 0.80904E-01
  rms(prec ) = 0.81934E-01
  weight for this iteration     100.00

 eigenvalues of (default mixing * dielectric matrix)
  average eigenvalue GAMMA=   0.9414
  0.9414

 Free energy of the ion-electron system (eV)
  ---------------------------------------------------
  alpha Z        PSCENC =         0.00578669
  Ewald energy   TEWEN  =       -21.16206747
  -Hartree energ DENC   =      -207.41509382
  -exchange      EXHF   =         0.00000000
  -V(xc)+E(xc)   XCENC  =        12.42394112
  PAW double counting   =        99.22413580      -96.01369673
  entropy T*S    EENTRO =        -0.00771311
  eigenvalues    EBANDS =       -63.17138179
  atomic energy  EATOM  =       276.81840277
  Solvation  Ediel_sol  =         0.00000000
  ---------------------------------------------------
  free energy    TOTEN  =         0.70231345 eV

  energy without entropy =        0.71002656  energy(sigma->0) =        0.70617000


--------------------------------------------------------------------------------------------------------




--------------------------------------- Iteration      1(   7)  ---------------------------------------


    POTLOK:  cpu time      0.7376: real time      0.7425
    SETDIJ:  cpu time      0.0022: real time      0.0022
     EDDAV:  cpu time     30.0552: real time     30.0574
       DOS:  cpu time      0.0014: real time      0.0014
    CHARGE:  cpu time      1.6630: real time      1.6646
    MIXING:  cpu time      0.0378: real time      0.0379
    --------------------------------------------
      LOOP:  cpu time     32.4973: real time     32.5059

 eigenvalue-minimisations  :  7712
 total energy-change (2. order) :-0.5569155E+00  (-0.9169691E-02)
 number of electron       6.0000000 magnetization       1.1076802
 augmentation part       -0.8489269 magnetization      -1.0055128

 Broyden mixing:
  rms(total) = 0.48078E-01    rms(broyden)= 0.48077E-01
  rms(prec ) = 0.48444E-01
  weight for this iteration     100.00

 eigenvalues of (default mixing * dielectric matrix)
  average eigenvalue GAMMA=   0.8780
  0.9375  0.8184

 Free energy of the ion-electron system (eV)
  ---------------------------------------------------
  alpha Z        PSCENC =         0.00578669
  Ewald energy   TEWEN  =       -21.16206747
  -Hartree energ DENC   =      -208.40562247
  -exchange      EXHF   =         0.00000000
  -V(xc)+E(xc)   XCENC  =        12.11041879
  PAW double counting   =       101.02525218      -97.84125465
  entropy T*S    EENTRO =        -0.00767664
  eigenvalues    EBANDS =       -62.39784126
  atomic energy  EATOM  =       276.81840277
  Solvation  Ediel_sol  =         0.00000000
  ---------------------------------------------------
  free energy    TOTEN  =         0.14539793 eV

  energy without entropy =        0.15307457  energy(sigma->0) =        0.14923625


--------------------------------------------------------------------------------------------------------




--------------------------------------- Iteration      1(   8)  ---------------------------------------


    POTLOK:  cpu time      0.7396: real time      0.7459
    SETDIJ:  cpu time      0.0024: real time      0.0024
     EDDAV:  cpu time     30.6708: real time     30.6736
       DOS:  cpu time      0.0015: real time      0.0015
    CHARGE:  cpu time      1.6227: real time      1.6238
    MIXING:  cpu time      0.0338: real time      0.0338
    --------------------------------------------
      LOOP:  cpu time     33.0709: real time     33.0810

 eigenvalue-minimisations  :  8000
 total energy-change (2. order) :-0.4341781E+00  (-0.1319494E-01)
 number of electron       5.9999999 magnetization       1.1079085
 augmentation part       -0.8447017 magnetization      -1.0005300

 Broyden mixing:
  rms(total) = 0.27733E+00    rms(broyden)= 0.27732E+00
  rms(prec ) = 0.28037E+00
  weight for this iteration     100.00

 eigenvalues of (default mixing * dielectric matrix)
  average eigenvalue GAMMA=   0.6166
  0.9586  0.8400  0.0511

 Free energy of the ion-electron system (eV)
  ---------------------------------------------------
  alpha Z        PSCENC =         0.00578669
  Ewald energy   TEWEN  =       -21.16206747
  -Hartree energ DENC   =      -208.78904555
  -exchange      EXHF   =         0.00000000
  -V(xc)+E(xc)   XCENC  =        11.82390493
  PAW double counting   =       101.33345140      -98.15488975
  entropy T*S    EENTRO =        -0.00215604
  eigenvalues    EBANDS =       -62.16216712
  atomic energy  EATOM  =       276.81840277
  Solvation  Ediel_sol  =         0.00000000
  ---------------------------------------------------
  free energy    TOTEN  =        -0.28878017 eV

  energy without entropy =       -0.28662412  energy(sigma->0) =       -0.28770214


--------------------------------------------------------------------------------------------------------




--------------------------------------- Iteration      1(   9)  ---------------------------------------


    POTLOK:  cpu time      0.7384: real time      0.7449
    SETDIJ:  cpu time      0.0022: real time      0.0022
     EDDAV:  cpu time     29.8581: real time     29.8605
       DOS:  cpu time      0.0013: real time      0.0013
    CHARGE:  cpu time      1.7324: real time      1.7338
    MIXING:  cpu time      0.0317: real time      0.0317
    --------------------------------------------
      LOOP:  cpu time     32.3641: real time     32.3745

 eigenvalue-minimisations  :  7712
 total energy-change (2. order) : 0.1550854E-01  (-0.1731089E-01)
 number of electron       6.0000000 magnetization       1.1070886
 augmentation part       -0.8442150 magnetization      -1.0008679

 Broyden mixing:
  rms(total) = 0.28230E+00    rms(broyden)= 0.28229E+00
  rms(prec ) = 0.28537E+00
  weight for this iteration     100.00

 eigenvalues of (default mixing * dielectric matrix)
  average eigenvalue GAMMA=   0.4952
  0.9975  0.8446  0.1132  0.0253

 Free energy of the ion-electron system (eV)
  ---------------------------------------------------
  alpha Z        PSCENC =         0.00578669
  Ewald energy   TEWEN  =       -21.16206747
  -Hartree energ DENC   =      -208.81773761
  -exchange      EXHF   =         0.00000000
  -V(xc)+E(xc)   XCENC  =        11.83925338
  PAW double counting   =       101.37538785      -98.19735159
  entropy T*S    EENTRO =        -0.00204638
  eigenvalues    EBANDS =       -62.13289926
  atomic energy  EATOM  =       276.81840277
  Solvation  Ediel_sol  =         0.00000000
  ---------------------------------------------------
  free energy    TOTEN  =        -0.27327163 eV

  energy without entropy =       -0.27122525  energy(sigma->0) =       -0.27224844


--------------------------------------------------------------------------------------------------------




--------------------------------------- Iteration      1(  10)  ---------------------------------------


    POTLOK:  cpu time      0.7315: real time      0.7374
    SETDIJ:  cpu time      0.0021: real time      0.0021
     EDDAV:  cpu time     28.9803: real time     28.9829
       DOS:  cpu time      0.0014: real time      0.0014
    CHARGE:  cpu time      1.6666: real time      1.6678
    MIXING:  cpu time      0.0321: real time      0.0321
    --------------------------------------------
      LOOP:  cpu time     31.4140: real time     31.4238

 eigenvalue-minimisations  :  7456
 total energy-change (2. order) : 0.1116497E-01  (-0.1425467E-03)
 number of electron       6.0000000 magnetization       1.1070000
 augmentation part       -0.8440448 magnetization      -1.0010065

 Broyden mixing:
  rms(total) = 0.16268E+00    rms(broyden)= 0.16267E+00
  rms(prec ) = 0.16439E+00
  weight for this iteration     100.00

 eigenvalues of (default mixing * dielectric matrix)
  average eigenvalue GAMMA=   0.4904
  1.0014  0.8320  0.2967  0.2967  0.0252

 Free energy of the ion-electron system (eV)
  ---------------------------------------------------
  alpha Z        PSCENC =         0.00578669
  Ewald energy   TEWEN  =       -21.16206747
  -Hartree energ DENC   =      -208.85380874
  -exchange      EXHF   =         0.00000000
  -V(xc)+E(xc)   XCENC  =        11.84008910
  PAW double counting   =       101.43651977      -98.25917668
  entropy T*S    EENTRO =        -0.00569254
  eigenvalues    EBANDS =       -62.08215955
  atomic energy  EATOM  =       276.81840277
  Solvation  Ediel_sol  =         0.00000000
  ---------------------------------------------------
  free energy    TOTEN  =        -0.26210666 eV

  energy without entropy =       -0.25641412  energy(sigma->0) =       -0.25926039


--------------------------------------------------------------------------------------------------------




--------------------------------------- Iteration      1(  11)  ---------------------------------------


    POTLOK:  cpu time      0.7402: real time      0.7448
    SETDIJ:  cpu time      0.0018: real time      0.0018
     EDDAV:  cpu time     29.7684: real time     29.7720
       DOS:  cpu time      0.0076: real time      0.0077
    CHARGE:  cpu time      1.6386: real time      1.6401
    MIXING:  cpu time      0.0322: real time      0.0322
    --------------------------------------------
      LOOP:  cpu time     32.1889: real time     32.1985

 eigenvalue-minimisations  :  7680
 total energy-change (2. order) :-0.8440728E-02  (-0.9191157E-05)
 number of electron       6.0000000 magnetization       1.1055805
 augmentation part       -0.8440297 magnetization      -1.0024082

 Broyden mixing:
  rms(total) = 0.16254E+00    rms(broyden)= 0.16254E+00
  rms(prec ) = 0.16425E+00
  weight for this iteration     100.00

 eigenvalues of (default mixing * dielectric matrix)
  average eigenvalue GAMMA=   0.4424
  0.9939  0.8401  0.2772  0.2772  0.2410  0.0252

 Free energy of the ion-electron system (eV)
  ---------------------------------------------------
  alpha Z        PSCENC =         0.00578669
  Ewald energy   TEWEN  =       -21.16206747
  -Hartree energ DENC   =      -208.85478187
  -exchange      EXHF   =         0.00000000
  -V(xc)+E(xc)   XCENC  =        11.83150351
  PAW double counting   =       101.43872430      -98.26141567
  entropy T*S    EENTRO =        -0.00570920
  eigenvalues    EBANDS =       -62.08099044
  atomic energy  EATOM  =       276.81840277
  Solvation  Ediel_sol  =         0.00000000
  ---------------------------------------------------
  free energy    TOTEN  =        -0.27054739 eV

  energy without entropy =       -0.26483819  energy(sigma->0) =       -0.26769279


--------------------------------------------------------------------------------------------------------




--------------------------------------- Iteration      1(  12)  ---------------------------------------


    POTLOK:  cpu time      0.7404: real time      0.7408
    SETDIJ:  cpu time      0.0030: real time      0.0030
     EDDAV:  cpu time     31.1899: real time     31.1937
       DOS:  cpu time      0.0013: real time      0.0013
    CHARGE:  cpu time      1.5760: real time      1.5787
    MIXING:  cpu time      0.0485: real time      0.0485
    --------------------------------------------
      LOOP:  cpu time     33.5589: real time     33.5660

 eigenvalue-minimisations  :  8032
 total energy-change (2. order) : 0.8787969E-02  (-0.1319961E-03)
 number of electron       6.0000000 magnetization       1.1348148
 augmentation part       -0.8440419 magnetization      -0.9731811

 Broyden mixing:
  rms(total) = 0.86977E-01    rms(broyden)= 0.86972E-01
  rms(prec ) = 0.87810E-01
  weight for this iteration     100.00

 eigenvalues of (default mixing * dielectric matrix)
  average eigenvalue GAMMA=   0.5743
  1.1278  1.1278  0.5321  0.5948  0.3060  0.3060  0.0252

 Free energy of the ion-electron system (eV)
  ---------------------------------------------------
  alpha Z        PSCENC =         0.00578669
  Ewald energy   TEWEN  =       -21.16206747
  -Hartree energ DENC   =      -208.85665634
  -exchange      EXHF   =         0.00000000
  -V(xc)+E(xc)   XCENC  =        11.83542737
  PAW double counting   =       101.44363983      -98.26636096
  entropy T*S    EENTRO =        -0.00735205
  eigenvalues    EBANDS =       -62.07257925
  atomic energy  EATOM  =       276.81840277
  Solvation  Ediel_sol  =         0.00000000
  ---------------------------------------------------
  free energy    TOTEN  =        -0.26175942 eV

  energy without entropy =       -0.25440737  energy(sigma->0) =       -0.25808339


--------------------------------------------------------------------------------------------------------




--------------------------------------- Iteration      1(  13)  ---------------------------------------


    POTLOK:  cpu time      0.7424: real time      0.7470
    SETDIJ:  cpu time      0.0019: real time      0.0019
     EDDAV:  cpu time     29.2894: real time     29.2930
       DOS:  cpu time      0.0013: real time      0.0013
    CHARGE:  cpu time      1.6168: real time      1.6183
    MIXING:  cpu time      0.0325: real time      0.0325
    --------------------------------------------
      LOOP:  cpu time     31.6843: real time     31.6940

 eigenvalue-minimisations  :  7520
 total energy-change (2. order) :-0.1945665E+00  (-0.1231794E-02)
 number of electron       6.0000000 magnetization       1.1954138
 augmentation part       -0.8444138 magnetization      -0.9111063

 Broyden mixing:
  rms(total) = 0.72133E-01    rms(broyden)= 0.72133E-01
  rms(prec ) = 0.72868E-01
  weight for this iteration     100.00

 eigenvalues of (default mixing * dielectric matrix)
  average eigenvalue GAMMA=   0.6704
  1.2921  1.2921  0.5635  0.9697  0.6253  0.2976  0.2976  0.0252

 Free energy of the ion-electron system (eV)
  ---------------------------------------------------
  alpha Z        PSCENC =         0.00578669
  Ewald energy   TEWEN  =       -21.16206747
  -Hartree energ DENC   =      -208.71936349
  -exchange      EXHF   =         0.00000000
  -V(xc)+E(xc)   XCENC  =        11.65812573
  PAW double counting   =       101.00422824      -97.82294834
  entropy T*S    EENTRO =        -0.00741725
  eigenvalues    EBANDS =       -62.23107281
  atomic energy  EATOM  =       276.81840277
  Solvation  Ediel_sol  =         0.00000000
  ---------------------------------------------------
  free energy    TOTEN  =        -0.45632594 eV

  energy without entropy =       -0.44890870  energy(sigma->0) =       -0.45261732


--------------------------------------------------------------------------------------------------------




--------------------------------------- Iteration      1(  14)  ---------------------------------------


    POTLOK:  cpu time      0.7382: real time      0.7434
    SETDIJ:  cpu time      0.0022: real time      0.0022
     EDDAV:  cpu time     29.8361: real time     29.8391
       DOS:  cpu time      0.0013: real time      0.0013
    CHARGE:  cpu time      1.6301: real time      1.6319
    MIXING:  cpu time      0.0313: real time      0.0313
    --------------------------------------------
      LOOP:  cpu time     32.2393: real time     32.2492

 eigenvalue-minimisations  :  7584
 total energy-change (2. order) :-0.2232810E+00  (-0.2331783E-02)
 number of electron       6.0000000 magnetization       1.2672807
 augmentation part       -0.8453336 magnetization      -0.8382233

 Broyden mixing:
  rms(total) = 0.14196E+00    rms(broyden)= 0.14196E+00
  rms(prec ) = 0.14347E+00
  weight for this iteration     100.00

 eigenvalues of (default mixing * dielectric matrix)
  average eigenvalue GAMMA=   0.8583
  2.6496  1.2506  1.2506  0.5673  0.7718  0.6180  0.2959  0.2959  0.0252

 Free energy of the ion-electron system (eV)
  ---------------------------------------------------
  alpha Z        PSCENC =         0.00578669
  Ewald energy   TEWEN  =       -21.16206747
  -Hartree energ DENC   =      -208.42955132
  -exchange      EXHF   =         0.00000000
  -V(xc)+E(xc)   XCENC  =        11.45322514
  PAW double counting   =       100.22324951      -97.02930733
  entropy T*S    EENTRO =        -0.00639912
  eigenvalues    EBANDS =       -62.55294578
  atomic energy  EATOM  =       276.81840277
  Solvation  Ediel_sol  =         0.00000000
  ---------------------------------------------------
  free energy    TOTEN  =        -0.67960692 eV

  energy without entropy =       -0.67320780  energy(sigma->0) =       -0.67640736


--------------------------------------------------------------------------------------------------------




--------------------------------------- Iteration      1(  15)  ---------------------------------------


    POTLOK:  cpu time      0.7357: real time      0.7404
    SETDIJ:  cpu time      0.0034: real time      0.0034
     EDDAV:  cpu time     29.2516: real time     29.2541
       DOS:  cpu time      0.0013: real time      0.0013
    CHARGE:  cpu time      1.5877: real time      1.5904
    MIXING:  cpu time      0.0304: real time      0.0304
    --------------------------------------------
      LOOP:  cpu time     31.6102: real time     31.6200

 eigenvalue-minimisations  :  7456
 total energy-change (2. order) :-0.1094289E+00  (-0.7010832E-02)
 number of electron       6.0000000 magnetization       1.3011921
 augmentation part       -0.8464823 magnetization      -0.8031204

 Broyden mixing:
  rms(total) = 0.16686E+00    rms(broyden)= 0.16685E+00
  rms(prec ) = 0.16861E+00
  weight for this iteration     100.00

 eigenvalues of (default mixing * dielectric matrix)
  average eigenvalue GAMMA=   0.8567
  2.8080  0.5619  1.2153  1.2153  0.8322  0.7191  0.6004  0.2945  0.2945  0.0252

 Free energy of the ion-electron system (eV)
  ---------------------------------------------------
  alpha Z        PSCENC =         0.00578669
  Ewald energy   TEWEN  =       -21.16206747
  -Hartree energ DENC   =      -208.12312666
  -exchange      EXHF   =         0.00000000
  -V(xc)+E(xc)   XCENC  =        11.34159670
  PAW double counting   =        99.65414560      -96.45233310
  entropy T*S    EENTRO =        -0.00602761
  eigenvalues    EBANDS =       -62.86541274
  atomic energy  EATOM  =       276.81840277
  Solvation  Ediel_sol  =         0.00000000
  ---------------------------------------------------
  free energy    TOTEN  =        -0.78903583 eV

  energy without entropy =       -0.78300822  energy(sigma->0) =       -0.78602203


--------------------------------------------------------------------------------------------------------




--------------------------------------- Iteration      1(  16)  ---------------------------------------


    POTLOK:  cpu time      0.7402: real time      0.7420
    SETDIJ:  cpu time      0.7360: real time      0.7360
     EDDAV:  cpu time     29.4747: real time     29.4772
       DOS:  cpu time      0.0014: real time      0.0014
    CHARGE:  cpu time      1.6804: real time      1.6818
    MIXING:  cpu time      0.0467: real time      0.0467
    --------------------------------------------
      LOOP:  cpu time     32.6796: real time     32.6853

 eigenvalue-minimisations  :  7584
 total energy-change (2. order) :-0.2590228E-01  (-0.1633067E-01)
 number of electron       6.0000000 magnetization       1.3685941
 augmentation part       -0.8463013 magnetization      -0.7354030

 Broyden mixing:
  rms(total) = 0.18526E+00    rms(broyden)= 0.18525E+00
  rms(prec ) = 0.18722E+00
  weight for this iteration     100.00

 eigenvalues of (default mixing * dielectric matrix)
  average eigenvalue GAMMA=   1.0056
  3.8586  1.6591  1.2616  1.2616  0.5635  0.7652  0.6187  0.4603  0.2940  0.2940
  0.0252

 Free energy of the ion-electron system (eV)
  ---------------------------------------------------
  alpha Z        PSCENC =         0.00578669
  Ewald energy   TEWEN  =       -21.16206747
  -Hartree energ DENC   =      -208.08494831
  -exchange      EXHF   =         0.00000000
  -V(xc)+E(xc)   XCENC  =        11.31877922
  PAW double counting   =        99.70764558      -96.50663250
  entropy T*S    EENTRO =        -0.00509511
  eigenvalues    EBANDS =       -62.90680897
  atomic energy  EATOM  =       276.81840277
  Solvation  Ediel_sol  =         0.00000000
  ---------------------------------------------------
  free energy    TOTEN  =        -0.81493811 eV

  energy without entropy =       -0.80984300  energy(sigma->0) =       -0.81239055


--------------------------------------------------------------------------------------------------------




--------------------------------------- Iteration      1(  17)  ---------------------------------------


    POTLOK:  cpu time      0.7372: real time      0.7441
    SETDIJ:  cpu time      0.0027: real time      0.0027
     EDDAV:  cpu time     29.5860: real time     29.5886
       DOS:  cpu time      0.0013: real time      0.0013
    CHARGE:  cpu time      1.6863: real time      1.6878
    MIXING:  cpu time      0.0489: real time      0.0489
    --------------------------------------------
      LOOP:  cpu time     32.0624: real time     32.0732

 eigenvalue-minimisations  :  7552
 total energy-change (2. order) :-0.1827688E-01  (-0.1539239E-02)
 number of electron       6.0000000 magnetization       1.4275359
 augmentation part       -0.8464271 magnetization      -0.6762598

 Broyden mixing:
  rms(total) = 0.71821E-01    rms(broyden)= 0.71814E-01
  rms(prec ) = 0.72560E-01
  weight for this iteration     100.00

 eigenvalues of (default mixing * dielectric matrix)
  average eigenvalue GAMMA=   1.0729
  4.6388  2.0005  0.5636  1.2664  1.2664  0.7704  0.6166  0.5695  0.5695  0.2940
  0.2940  0.0252

 Free energy of the ion-electron system (eV)
  ---------------------------------------------------
  alpha Z        PSCENC =         0.00578669
  Ewald energy   TEWEN  =       -21.16206747
  -Hartree energ DENC   =      -207.98217073
  -exchange      EXHF   =         0.00000000
  -V(xc)+E(xc)   XCENC  =        11.28786443
  PAW double counting   =        99.75151966      -96.55044251
  entropy T*S    EENTRO =        -0.00740420
  eigenvalues    EBANDS =       -62.99470361
  atomic energy  EATOM  =       276.81840277
  Solvation  Ediel_sol  =         0.00000000
  ---------------------------------------------------
  free energy    TOTEN  =        -0.83321499 eV

  energy without entropy =       -0.82581079  energy(sigma->0) =       -0.82951289


--------------------------------------------------------------------------------------------------------




--------------------------------------- Iteration      1(  18)  ---------------------------------------


    POTLOK:  cpu time      0.7364: real time      0.7420
    SETDIJ:  cpu time      0.0020: real time      0.0020
     EDDAV:  cpu time     29.9949: real time     29.9974
       DOS:  cpu time      0.0013: real time      0.0013
    CHARGE:  cpu time      2.3129: real time      2.3143
    MIXING:  cpu time      0.0316: real time      0.0316
    --------------------------------------------
      LOOP:  cpu time     33.0791: real time     33.0886

 eigenvalue-minimisations  :  7680
 total energy-change (2. order) :-0.1585955E-01  (-0.1239791E-02)
 number of electron       6.0000000 magnetization       1.4714035
 augmentation part       -0.8463857 magnetization      -0.6322826

 Broyden mixing:
  rms(total) = 0.83134E-01    rms(broyden)= 0.83129E-01
  rms(prec ) = 0.84006E-01
  weight for this iteration     100.00

 eigenvalues of (default mixing * dielectric matrix)
  average eigenvalue GAMMA=   1.1156
  5.3676  2.2178  0.5636  1.2494  1.2494  0.7810  0.7810  0.2940  0.2940  0.6228
  0.5288  0.5288  0.0252

 Free energy of the ion-electron system (eV)
  ---------------------------------------------------
  alpha Z        PSCENC =         0.00578669
  Ewald energy   TEWEN  =       -21.16206747
  -Hartree energ DENC   =      -207.92620731
  -exchange      EXHF   =         0.00000000
  -V(xc)+E(xc)   XCENC  =        11.26959286
  PAW double counting   =        99.82185967      -96.62147550
  entropy T*S    EENTRO =        -0.00729644
  eigenvalues    EBANDS =       -63.04766979
  atomic energy  EATOM  =       276.81840277
  Solvation  Ediel_sol  =         0.00000000
  ---------------------------------------------------
  free energy    TOTEN  =        -0.84907453 eV

  energy without entropy =       -0.84177810  energy(sigma->0) =       -0.84542632


--------------------------------------------------------------------------------------------------------




--------------------------------------- Iteration      1(  19)  ---------------------------------------


    POTLOK:  cpu time      0.7350: real time      0.7355
    SETDIJ:  cpu time      0.0034: real time      0.0034
     EDDAV:  cpu time     31.0954: real time     31.0981
       DOS:  cpu time      0.0020: real time      0.0020
    CHARGE:  cpu time      1.7184: real time      1.7237
    MIXING:  cpu time      0.0340: real time      0.0340
    --------------------------------------------
      LOOP:  cpu time     33.5882: real time     33.5967

 eigenvalue-minimisations  :  7808
 total energy-change (2. order) :-0.7251199E-02  (-0.3139483E-04)
 number of electron       6.0000000 magnetization       1.5419198
 augmentation part       -0.8463601 magnetization      -0.5617266

 Broyden mixing:
  rms(total) = 0.27768E-01    rms(broyden)= 0.27766E-01
  rms(prec ) = 0.28058E-01
  weight for this iteration     100.00

 eigenvalues of (default mixing * dielectric matrix)
  average eigenvalue GAMMA=   1.3213
  6.7769  2.9987  1.8688  0.5636  1.2576  1.2576  0.2940  0.2940  0.7556  0.5900
  0.5900  0.6135  0.6135  0.0252

 Free energy of the ion-electron system (eV)
  ---------------------------------------------------
  alpha Z        PSCENC =         0.00578669
  Ewald energy   TEWEN  =       -21.16206747
  -Hartree energ DENC   =      -207.89903258
  -exchange      EXHF   =         0.00000000
  -V(xc)+E(xc)   XCENC  =        11.26090744
  PAW double counting   =        99.86022049      -96.66044072
  entropy T*S    EENTRO =        -0.00766634
  eigenvalues    EBANDS =       -63.07243601
  atomic energy  EATOM  =       276.81840277
  Solvation  Ediel_sol  =         0.00000000
  ---------------------------------------------------
  free energy    TOTEN  =        -0.85632573 eV

  energy without entropy =       -0.84865939  energy(sigma->0) =       -0.85249256


--------------------------------------------------------------------------------------------------------




--------------------------------------- Iteration      1(  20)  ---------------------------------------


    POTLOK:  cpu time      0.7393: real time      0.7398
    SETDIJ:  cpu time      0.0021: real time      0.0021
     EDDAV:  cpu time     30.7297: real time     30.7322
       DOS:  cpu time      0.0013: real time      0.0013
    CHARGE:  cpu time      2.6106: real time      2.6197
    MIXING:  cpu time      0.0338: real time      0.0338
    --------------------------------------------
      LOOP:  cpu time     34.1168: real time     34.1289

 eigenvalue-minimisations  :  7776
 total energy-change (2. order) :-0.9906378E-02  (-0.3010823E-03)
 number of electron       6.0000000 magnetization       1.6083140
 augmentation part       -0.8463858 magnetization      -0.4952757

 Broyden mixing:
  rms(total) = 0.46198E-01    rms(broyden)= 0.46195E-01
  rms(prec ) = 0.46680E-01
  weight for this iteration     100.00

 eigenvalues of (default mixing * dielectric matrix)
  average eigenvalue GAMMA=   1.3996
  7.6847  3.5003  1.9591  0.5636  1.2275  1.2275  1.0598  0.2940  0.2940  0.5690
  0.5690  0.7239  0.6777  0.6182  0.0252

 Free energy of the ion-electron system (eV)
  ---------------------------------------------------
  alpha Z        PSCENC =         0.00578669
  Ewald energy   TEWEN  =       -21.16206747
  -Hartree energ DENC   =      -207.86235812
  -exchange      EXHF   =         0.00000000
  -V(xc)+E(xc)   XCENC  =        11.24982603
  PAW double counting   =        99.86588723      -96.66625133
  entropy T*S    EENTRO =        -0.00758462
  eigenvalues    EBANDS =       -63.10787328
  atomic energy  EATOM  =       276.81840277
  Solvation  Ediel_sol  =         0.00000000
  ---------------------------------------------------
  free energy    TOTEN  =        -0.86623211 eV

  energy without entropy =       -0.85864749  energy(sigma->0) =       -0.86243980


--------------------------------------------------------------------------------------------------------




--------------------------------------- Iteration      1(  21)  ---------------------------------------


    POTLOK:  cpu time      0.7347: real time      0.7351
    SETDIJ:  cpu time      0.0043: real time      0.0043
     EDDAV:  cpu time     29.9038: real time     29.9076
       DOS:  cpu time      0.0018: real time      0.0018
    CHARGE:  cpu time      1.7029: real time      1.7124
    MIXING:  cpu time      0.0494: real time      0.0494
    --------------------------------------------
      LOOP:  cpu time     32.3969: real time     32.4106

 eigenvalue-minimisations  :  7680
 total energy-change (2. order) :-0.4014804E-02  (-0.1075446E-04)
 number of electron       6.0000000 magnetization       1.6741906
 augmentation part       -0.8463855 magnetization      -0.4293841

 Broyden mixing:
  rms(total) = 0.17344E-01    rms(broyden)= 0.17343E-01
  rms(prec ) = 0.17524E-01
  weight for this iteration     100.00

 eigenvalues of (default mixing * dielectric matrix)
  average eigenvalue GAMMA=   1.4788
  8.5587  3.9844  2.1443  0.5636  1.3495  1.2182  1.2182  0.0252  0.2940  0.2940
  0.9027  0.6974  0.6974  0.6153  0.5490  0.5490

 Free energy of the ion-electron system (eV)
  ---------------------------------------------------
  alpha Z        PSCENC =         0.00578669
  Ewald energy   TEWEN  =       -21.16206747
  -Hartree energ DENC   =      -207.84443250
  -exchange      EXHF   =         0.00000000
  -V(xc)+E(xc)   XCENC  =        11.24553767
  PAW double counting   =        99.86227103      -96.66275220
  entropy T*S    EENTRO =        -0.00769514
  eigenvalues    EBANDS =       -63.12529776
  atomic energy  EATOM  =       276.81840277
  Solvation  Ediel_sol  =         0.00000000
  ---------------------------------------------------
  free energy    TOTEN  =        -0.87024692 eV

  energy without entropy =       -0.86255177  energy(sigma->0) =       -0.86639934


--------------------------------------------------------------------------------------------------------




--------------------------------------- Iteration      1(  22)  ---------------------------------------


    POTLOK:  cpu time      0.7346: real time      0.7394
    SETDIJ:  cpu time      0.0019: real time      0.0019
     EDDAV:  cpu time     29.6952: real time     29.6986
       DOS:  cpu time      0.0023: real time      0.0023
    CHARGE:  cpu time      1.7532: real time      1.7622
    MIXING:  cpu time      0.0364: real time      0.0364
    --------------------------------------------
      LOOP:  cpu time     32.2237: real time     32.2408

 eigenvalue-minimisations  :  7648
 total energy-change (2. order) :-0.2387702E-02  (-0.3800101E-05)
 number of electron       6.0000000 magnetization       1.7299450
 augmentation part       -0.8464102 magnetization      -0.3736155

 Broyden mixing:
  rms(total) = 0.13222E-01    rms(broyden)= 0.13221E-01
  rms(prec ) = 0.13361E-01
  weight for this iteration     100.00

 eigenvalues of (default mixing * dielectric matrix)
  average eigenvalue GAMMA=   1.6063
  9.8030  4.5494  2.6179  1.7167  0.5636  1.2262  1.2262  1.1088  0.0252  0.2940
  0.2940  0.8000  0.5502  0.5502  0.6831  0.6831  0.6161

 Free energy of the ion-electron system (eV)
  ---------------------------------------------------
  alpha Z        PSCENC =         0.00578669
  Ewald energy   TEWEN  =       -21.16206747
  -Hartree energ DENC   =      -207.83858476
  -exchange      EXHF   =         0.00000000
  -V(xc)+E(xc)   XCENC  =        11.24386879
  PAW double counting   =        99.83837198      -96.63858681
  entropy T*S    EENTRO =        -0.00770298
  eigenvalues    EBANDS =       -63.13212283
  atomic energy  EATOM  =       276.81840277
  Solvation  Ediel_sol  =         0.00000000
  ---------------------------------------------------
  free energy    TOTEN  =        -0.87263462 eV

  energy without entropy =       -0.86493164  energy(sigma->0) =       -0.86878313


--------------------------------------------------------------------------------------------------------




--------------------------------------- Iteration      1(  23)  ---------------------------------------


    POTLOK:  cpu time      0.7420: real time      0.7458
    SETDIJ:  cpu time      0.0021: real time      0.0021
     EDDAV:  cpu time     29.5552: real time     29.5575
       DOS:  cpu time      0.0024: real time      0.0024
    CHARGE:  cpu time      1.7697: real time      1.7805
    MIXING:  cpu time      0.0356: real time      0.0356
    --------------------------------------------
      LOOP:  cpu time     32.1071: real time     32.1240

 eigenvalue-minimisations  :  7552
 total energy-change (2. order) :-0.1934908E-02  (-0.9430976E-04)
 number of electron       6.0000000 magnetization       1.7770550
 augmentation part       -0.8464215 magnetization      -0.3265022

 Broyden mixing:
  rms(total) = 0.35040E-01    rms(broyden)= 0.35039E-01
  rms(prec ) = 0.35404E-01
  weight for this iteration     100.00

 eigenvalues of (default mixing * dielectric matrix)
  average eigenvalue GAMMA=   1.6526
 10.4300  4.8939  2.8760  1.9727  0.5636  1.2703  1.2703  1.0338  1.0338  0.0252
  0.2940  0.2940  0.7310  0.7310  0.5572  0.5572  0.6141  0.5990

 Free energy of the ion-electron system (eV)
  ---------------------------------------------------
  alpha Z        PSCENC =         0.00578669
  Ewald energy   TEWEN  =       -21.16206747
  -Hartree energ DENC   =      -207.83854397
  -exchange      EXHF   =         0.00000000
  -V(xc)+E(xc)   XCENC  =        11.24222845
  PAW double counting   =        99.82480515      -96.62481617
  entropy T*S    EENTRO =        -0.00763834
  eigenvalues    EBANDS =       -63.13272663
  atomic energy  EATOM  =       276.81840277
  Solvation  Ediel_sol  =         0.00000000
  ---------------------------------------------------
  free energy    TOTEN  =        -0.87456953 eV

  energy without entropy =       -0.86693119  energy(sigma->0) =       -0.87075036


--------------------------------------------------------------------------------------------------------




--------------------------------------- Iteration      1(  24)  ---------------------------------------


    POTLOK:  cpu time      0.7316: real time      0.7321
    SETDIJ:  cpu time      0.0019: real time      0.0019
     EDDAV:  cpu time     29.4741: real time     29.4789
       DOS:  cpu time      0.0024: real time      0.0024
    CHARGE:  cpu time      1.7652: real time      1.7766
    MIXING:  cpu time      0.0358: real time      0.0358
    --------------------------------------------
      LOOP:  cpu time     32.0110: real time     32.0277

 eigenvalue-minimisations  :  7552
 total energy-change (2. order) :-0.5154701E-03  (-0.1776413E-03)
 number of electron       6.0000000 magnetization       1.8219199
 augmentation part       -0.8463868 magnetization      -0.2816348

 Broyden mixing:
  rms(total) = 0.23790E-01    rms(broyden)= 0.23788E-01
  rms(prec ) = 0.24035E-01
  weight for this iteration     100.00

 eigenvalues of (default mixing * dielectric matrix)
  average eigenvalue GAMMA=   1.7674
 11.6547  5.6577  3.3908  2.1820  0.5636  1.4973  1.2494  1.2494  0.0252  0.2940
  0.2940  0.8985  0.8985  0.7726  0.5531  0.5531  0.6748  0.5616  0.6110

 Free energy of the ion-electron system (eV)
  ---------------------------------------------------
  alpha Z        PSCENC =         0.00578669
  Ewald energy   TEWEN  =       -21.16206747
  -Hartree energ DENC   =      -207.84535857
  -exchange      EXHF   =         0.00000000
  -V(xc)+E(xc)   XCENC  =        11.24185316
  PAW double counting   =        99.83163171      -96.63173396
  entropy T*S    EENTRO =        -0.00767814
  eigenvalues    EBANDS =       -63.12592118
  atomic energy  EATOM  =       276.81840277
  Solvation  Ediel_sol  =         0.00000000
  ---------------------------------------------------
  free energy    TOTEN  =        -0.87508500 eV

  energy without entropy =       -0.86740686  energy(sigma->0) =       -0.87124593


--------------------------------------------------------------------------------------------------------




--------------------------------------- Iteration      1(  25)  ---------------------------------------


    POTLOK:  cpu time      0.7404: real time      0.7407
    SETDIJ:  cpu time      0.0018: real time      0.0018
     EDDAV:  cpu time     30.4517: real time     30.4543
       DOS:  cpu time      0.0028: real time      0.0028
    CHARGE:  cpu time      1.7385: real time      1.7592
    MIXING:  cpu time      0.0362: real time      0.0362
    --------------------------------------------
      LOOP:  cpu time     32.9715: real time     32.9950

 eigenvalue-minimisations  :  7904
 total energy-change (2. order) :-0.8559908E-03  (-0.9008668E-04)
 number of electron       6.0000000 magnetization       1.8636184
 augmentation part       -0.8464081 magnetization      -0.2399221

 Broyden mixing:
  rms(total) = 0.17859E-01    rms(broyden)= 0.17858E-01
  rms(prec ) = 0.18048E-01
  weight for this iteration     100.00

 eigenvalues of (default mixing * dielectric matrix)
  average eigenvalue GAMMA=   1.8703
 12.9233  6.4983  3.7272  2.3820  0.5636  1.7342  1.2287  1.2287  0.0252  0.2940
  0.2940  1.0509  0.9320  0.7964  0.7964  0.5549  0.5549  0.6469  0.5700  0.6043

 Free energy of the ion-electron system (eV)
  ---------------------------------------------------
  alpha Z        PSCENC =         0.00578669
  Ewald energy   TEWEN  =       -21.16206747
  -Hartree energ DENC   =      -207.84482124
  -exchange      EXHF   =         0.00000000
  -V(xc)+E(xc)   XCENC  =        11.24082908
  PAW double counting   =        99.82576073      -96.62567139
  entropy T*S    EENTRO =        -0.00769380
  eigenvalues    EBANDS =       -63.12646635
  atomic energy  EATOM  =       276.81840277
  Solvation  Ediel_sol  =         0.00000000
  ---------------------------------------------------
  free energy    TOTEN  =        -0.87594099 eV

  energy without entropy =       -0.86824718  energy(sigma->0) =       -0.87209409


--------------------------------------------------------------------------------------------------------




--------------------------------------- Iteration      1(  26)  ---------------------------------------


    POTLOK:  cpu time      0.7379: real time      0.7384
    SETDIJ:  cpu time      0.0070: real time      0.0070
     EDDAV:  cpu time     29.0361: real time     29.0434
       DOS:  cpu time      0.0028: real time      0.0028
    CHARGE:  cpu time      1.8027: real time      1.8212
    MIXING:  cpu time      0.0355: real time      0.0355
    --------------------------------------------
      LOOP:  cpu time     31.6219: real time     31.6483

 eigenvalue-minimisations  :  7392
 total energy-change (2. order) :-0.2679835E-03  (-0.1276532E-03)
 number of electron       6.0000000 magnetization       1.9051916
 augmentation part       -0.8463881 magnetization      -0.1983462

 Broyden mixing:
  rms(total) = 0.32035E-01    rms(broyden)= 0.32034E-01
  rms(prec ) = 0.32368E-01
  weight for this iteration     100.00

 eigenvalues of (default mixing * dielectric matrix)
  average eigenvalue GAMMA=   2.0504
 15.1805  7.5563  4.2272  2.7201  2.0418  0.5636  1.3869  1.2487  1.2487  0.9881
  0.9881  0.0252  0.2940  0.2940  0.7138  0.7138  0.5488  0.5488  0.6304  0.6163
  0.5236

 Free energy of the ion-electron system (eV)
  ---------------------------------------------------
  alpha Z        PSCENC =         0.00578669
  Ewald energy   TEWEN  =       -21.16206747
  -Hartree energ DENC   =      -207.84868123
  -exchange      EXHF   =         0.00000000
  -V(xc)+E(xc)   XCENC  =        11.24068381
  PAW double counting   =        99.83508916      -96.63515585
  entropy T*S    EENTRO =        -0.00764897
  eigenvalues    EBANDS =       -63.12261788
  atomic energy  EATOM  =       276.81840277
  Solvation  Ediel_sol  =         0.00000000
  ---------------------------------------------------
  free energy    TOTEN  =        -0.87620897 eV

  energy without entropy =       -0.86856000  energy(sigma->0) =       -0.87238449


--------------------------------------------------------------------------------------------------------




--------------------------------------- Iteration      1(  27)  ---------------------------------------


    POTLOK:  cpu time      0.7393: real time      0.7397
    SETDIJ:  cpu time      0.0021: real time      0.0021
     EDDAV:  cpu time     29.5292: real time     29.5327
       DOS:  cpu time      0.0026: real time      0.0026
    CHARGE:  cpu time      1.8008: real time      1.8210
    MIXING:  cpu time      0.0429: real time      0.0429
    --------------------------------------------
      LOOP:  cpu time     32.1169: real time     32.1411

 eigenvalue-minimisations  :  7584
 total energy-change (2. order) : 0.3564662E-03  (-0.1027498E-03)
 number of electron       6.0000000 magnetization       1.9369251
 augmentation part       -0.8464033 magnetization      -0.1666078

 Broyden mixing:
  rms(total) = 0.15223E-01    rms(broyden)= 0.15220E-01
  rms(prec ) = 0.15382E-01
  weight for this iteration     100.00

 eigenvalues of (default mixing * dielectric matrix)
  average eigenvalue GAMMA=   2.2387
 18.7292  8.5336  4.6624  3.0187  2.0897  0.5636  1.5231  1.2425  1.2425  0.0252
  0.2940  0.2940  0.9563  0.9563  0.8135  0.8135  0.5516  0.5516  0.6627  0.6178
  0.6178  0.4912

 Free energy of the ion-electron system (eV)
  ---------------------------------------------------
  alpha Z        PSCENC =         0.00578669
  Ewald energy   TEWEN  =       -21.16206747
  -Hartree energ DENC   =      -207.84838477
  -exchange      EXHF   =         0.00000000
  -V(xc)+E(xc)   XCENC  =        11.24097671
  PAW double counting   =        99.83484200      -96.63484095
  entropy T*S    EENTRO =        -0.00769917
  eigenvalues    EBANDS =       -63.12286830
  atomic energy  EATOM  =       276.81840277
  Solvation  Ediel_sol  =         0.00000000
  ---------------------------------------------------
  free energy    TOTEN  =        -0.87585250 eV

  energy without entropy =       -0.86815333  energy(sigma->0) =       -0.87200292


--------------------------------------------------------------------------------------------------------




--------------------------------------- Iteration      1(  28)  ---------------------------------------


    POTLOK:  cpu time      0.7377: real time      0.7398
    SETDIJ:  cpu time      0.0020: real time      0.0020
     EDDAV:  cpu time     29.5753: real time     29.5778
       DOS:  cpu time      0.0027: real time      0.0027
    CHARGE:  cpu time      1.8136: real time      1.8362
    MIXING:  cpu time      0.0384: real time      0.0384
    --------------------------------------------
      LOOP:  cpu time     32.1697: real time     32.1969

 eigenvalue-minimisations  :  7488
 total energy-change (2. order) :-0.7301755E-03  (-0.3030463E-04)
 number of electron       6.0000000 magnetization       1.9698590
 augmentation part       -0.8463915 magnetization      -0.1336754

 Broyden mixing:
  rms(total) = 0.82589E-02    rms(broyden)= 0.82582E-02
  rms(prec ) = 0.83439E-02
  weight for this iteration     100.00

 eigenvalues of (default mixing * dielectric matrix)
  average eigenvalue GAMMA=   2.4016
 22.1017  9.0857  5.0029  3.1755  2.2781  0.5636  1.7214  1.2238  1.2238  1.2257
  1.0041  1.0041  0.0252  0.2940  0.2940  0.7631  0.7029  0.7029  0.5486  0.5486
  0.6168  0.6168  0.5136

 Free energy of the ion-electron system (eV)
  ---------------------------------------------------
  alpha Z        PSCENC =         0.00578669
  Ewald energy   TEWEN  =       -21.16206747
  -Hartree energ DENC   =      -207.85046097
  -exchange      EXHF   =         0.00000000
  -V(xc)+E(xc)   XCENC  =        11.24034956
  PAW double counting   =        99.83966681      -96.63977867
  entropy T*S    EENTRO =        -0.00770892
  eigenvalues    EBANDS =       -63.12077248
  atomic energy  EATOM  =       276.81840277
  Solvation  Ediel_sol  =         0.00000000
  ---------------------------------------------------
  free energy    TOTEN  =        -0.87658268 eV

  energy without entropy =       -0.86887376  energy(sigma->0) =       -0.87272822


--------------------------------------------------------------------------------------------------------




--------------------------------------- Iteration      1(  29)  ---------------------------------------


    POTLOK:  cpu time      0.7360: real time      0.7363
    SETDIJ:  cpu time      0.0021: real time      0.0021
     EDDAV:  cpu time     30.8564: real time     30.8685
       DOS:  cpu time      0.0042: real time      0.0042
    CHARGE:  cpu time      1.8203: real time      1.8389
    MIXING:  cpu time      0.0385: real time      0.0385
    --------------------------------------------
      LOOP:  cpu time     33.4575: real time     33.4885

 eigenvalue-minimisations  :  7616
 total energy-change (2. order) :-0.3650996E-03  (-0.2445826E-04)
 number of electron       6.0000000 magnetization       1.9870176
 augmentation part       -0.8463977 magnetization      -0.1165154

 Broyden mixing:
  rms(total) = 0.13912E-01    rms(broyden)= 0.13912E-01
  rms(prec ) = 0.14058E-01
  weight for this iteration     100.00

 eigenvalues of (default mixing * dielectric matrix)
  average eigenvalue GAMMA=   2.4935
 24.2812  9.4218  5.2361  3.4638  2.5706  1.9346  0.5636  1.2739  1.2739  1.2706
  0.0252  0.2940  0.2940  1.0352  1.0352  0.8313  0.8313  0.5491  0.5491  0.6828
  0.6828  0.6223  0.6120  0.5101

 Free energy of the ion-electron system (eV)
  ---------------------------------------------------
  alpha Z        PSCENC =         0.00578669
  Ewald energy   TEWEN  =       -21.16206747
  -Hartree energ DENC   =      -207.84995940
  -exchange      EXHF   =         0.00000000
  -V(xc)+E(xc)   XCENC  =        11.24002164
  PAW double counting   =        99.83758096      -96.63767239
  entropy T*S    EENTRO =        -0.00770133
  eigenvalues    EBANDS =       -63.12133923
  atomic energy  EATOM  =       276.81840277
  Solvation  Ediel_sol  =         0.00000000
  ---------------------------------------------------
  free energy    TOTEN  =        -0.87694778 eV

  energy without entropy =       -0.86924645  energy(sigma->0) =       -0.87309711


--------------------------------------------------------------------------------------------------------




--------------------------------------- Iteration      1(  30)  ---------------------------------------


    POTLOK:  cpu time      0.7307: real time      0.7362
    SETDIJ:  cpu time      0.0090: real time      0.0090
     EDDAV:  cpu time     29.2420: real time     29.2491
       DOS:  cpu time      0.0044: real time      0.0044
    CHARGE:  cpu time      1.8024: real time      1.8299
    MIXING:  cpu time      0.0388: real time      0.0388
    --------------------------------------------
      LOOP:  cpu time     31.8273: real time     31.8675

 eigenvalue-minimisations  :  7456
 total energy-change (2. order) :-0.3737288E-03  (-0.1101447E-04)
 number of electron       6.0000000 magnetization       1.9946303
 augmentation part       -0.8463940 magnetization      -0.1089044

 Broyden mixing:
  rms(total) = 0.42167E-02    rms(broyden)= 0.42158E-02
  rms(prec ) = 0.42607E-02
  weight for this iteration     100.00

 eigenvalues of (default mixing * dielectric matrix)
  average eigenvalue GAMMA=   2.5137
 25.2908  9.6004  5.3893  3.7364  2.6739  2.0705  0.5636  1.5594  1.2485  1.2485
  1.0636  1.0636  0.0252  0.2940  0.2940  1.0048  0.7980  0.7311  0.7311  0.5501
  0.5501  0.6317  0.6106  0.6106  0.5038

 Free energy of the ion-electron system (eV)
  ---------------------------------------------------
  alpha Z        PSCENC =         0.00578669
  Ewald energy   TEWEN  =       -21.16206747
  -Hartree energ DENC   =      -207.85023836
  -exchange      EXHF   =         0.00000000
  -V(xc)+E(xc)   XCENC  =        11.23966836
  PAW double counting   =        99.83716978      -96.63730119
  entropy T*S    EENTRO =        -0.00771203
  eigenvalues    EBANDS =       -63.12103006
  atomic energy  EATOM  =       276.81840277
  Solvation  Ediel_sol  =         0.00000000
  ---------------------------------------------------
  free energy    TOTEN  =        -0.87732151 eV

  energy without entropy =       -0.86960948  energy(sigma->0) =       -0.87346549


--------------------------------------------------------------------------------------------------------




--------------------------------------- Iteration      1(  31)  ---------------------------------------


    POTLOK:  cpu time      0.7243: real time      0.7310
    SETDIJ:  cpu time      0.0085: real time      0.0085
     EDDAV:  cpu time     29.4710: real time     29.4782
       DOS:  cpu time      0.0032: real time      0.0032
    CHARGE:  cpu time      1.8337: real time      1.8588
    MIXING:  cpu time      0.0439: real time      0.0439
    --------------------------------------------
      LOOP:  cpu time     32.0845: real time     32.1236

 eigenvalue-minimisations  :  7424
 total energy-change (2. order) :-0.4351687E-03  (-0.2613203E-05)
 number of electron       6.0000000 magnetization       1.9978364
 augmentation part       -0.8463966 magnetization      -0.1056968

 Broyden mixing:
[...]
  243          m_sumb_d                              0.003585                         20   4
  244        set_dd_magatom                        0.000000                            1   3
  245        set_dd_paw                            0.007551                            1   3
  246          set_rsgf_all                          0.000000                          1   4
  247          m_sumb_d                              0.007533                          8   4
  248        strkin                                0.036934                            1   3
  249          m_sumb_d                              0.001473                          1   4
  250        strelo                                0.011555                            1   3
  251          m_sumb_d                              0.000140                          2   4
  252        strenl                                0.996870                            1   3
  253          spher                                 0.454693                         19   4
  254          phase                                 0.000005                          9   4
  255          proj1                                 0.538090                        504   4
  256            crexp_mul_wave                        0.202118                      504   5
  257            m_sumb_d                              0.055856                      504   5
  258          m_sumb_d                              0.001859                          1   4
  259        m_sumb_d                              0.001736                            6   3
  260        fft3d_mpi                             0.266028                           22   3
  261          fftbrc_mpi                            0.259030                         22   4
  262            fftbas_plan_mpi                       0.259016                       22   5
  263              dfftw_execute                         0.077744                     66   6
  264              map_forward                           0.088135                     20   6
  265                map_gather                            0.009419                   10   7
  266                m_alltoallv_z                         0.068672                   10   7
  267                map_scatter                           0.009938                   10   7
  268              map_backward                          0.092793                     24   6
  269                map_gather                            0.013694                   12   7
  270                m_alltoallv_z                         0.070655                   12   7
  271                map_scatter                           0.008286                   12   7
  272        forhar                                0.011672                            2   3
  273          m_sumb_d                              0.000313                          2   4
  274        strehar                               0.009781                            1   3
  275          m_sumb_d                              0.000105                          1   4
  276        chggra                                0.052338                            1   3
  277          fft3d_mpi                             0.037384                          3   4
  278            fftbrc_mpi                            0.037029                        3   5
  279              fftbas_plan_mpi                       0.037026                      3   6
  280                dfftw_execute                         0.010552                    9   7
  281                map_backward                          0.007651                    2   7
  282                  map_gather                            0.001019                  1   8
  283                  m_alltoallv_z                         0.005983                  1   8
  284                  map_scatter                           0.000638                  1   8
  285                map_forward                           0.018777                    4   7
  286                  map_gather                            0.001596                  2   8
  287                  m_alltoallv_z                         0.014829                  2   8
  288                  map_scatter                           0.002329                  2   8
  289          m_sumb_d                              0.000028                          2   4
  290          pothar                                0.003958                          1   4
  291            m_sumb_d                              0.001196                        1   5
  292        brmix                                 0.055656                            1   3
  293          m_sumb_d                              0.022153                          6   4
  294          brpre                                 0.000068                          2   4
  295          setg0                                 0.002049                          1   4
  296          broyd                                 0.024212                          1   4
  297            m_sumb_d                              0.011996                       44   5
  298            brget                                 0.002896                      194   5
  299            brsav                                 0.000463                       42   5
  300          m_bcast_z                             0.002186                          1   4
  301        m_bcast_d                             0.001644                            2   3
  302      potlok                                0.714325                              1   2
  303        fft3d_mpi                             0.325922                           26   3
  304          fftbrc_mpi                            0.316972                         26   4
  305            fftbas_plan_mpi                       0.316954                       26   5
  306              dfftw_execute                         0.097557                     78   6
  307              map_forward                           0.124447                     28   6
  308                map_gather                            0.011922                   16   7
  309                m_alltoallv_z                         0.092590                   16   7
  310                map_scatter                           0.019749                   16   7
  311              map_backward                          0.094523                     24   6
  312                map_gather                            0.014379                   12   7
  313                m_alltoallv_z                         0.071079                   12   7
  314                map_scatter                           0.008902                   12   7
  315        m_sumb_d                              0.001173                            5   3
  316        pothar                                0.003782                            1   3
  317          m_sumb_d                              0.001002                          1   4
  318        m_bcast_d                             0.023533                            2   3
  319      potlok_metagga                        0.000001                              1   2
  320      set_dd_magatom                        0.000000                              1   2
  321      set_dd_paw                            0.000206                              1   2
  322        set_rsgf_all                          0.000000                            1   3
  323        m_sumb_d                              0.000186                            8   3
  324      m_alltoall_d                         95.538382                          39712   2
  325      densta                                0.003603                              1   2
  326        m_sumb_d                              0.003500                           48   3
 
 Flat profile
 ============
 
             routine name                   CPU           calls
 ---------------------------------------------------------------
 dfftw_execute                         382.328258       48414
 m_alltoall_d                          248.808974      156991
 orth1                                 174.624277       22355
 total_time                            157.536900           1
 ggemm                                 145.383145        9785
 vhamil                                 91.711276        7433
 lincom                                 52.927454          86
 m_alltoallv_z                          42.375324       16292
 fftwav_mpi                             41.812954        7509
 map_gather                             40.736980       16292
 map_scatter                            32.374427       16292
 fftext_mpi                             27.645018        7433
 set_charge                             25.990069          38
 wfinit                                 22.133668           1
 m_bcast_z                              21.237782       11212
 map_forward                            18.477457       16144
 gemm                                   17.818946        7433
 potlok                                 14.679468          39
 pdssyex_zheevx                         14.060725          84
 lapack                                 12.834379        7433
 eccp                                   12.515217        2352
 proj1                                  10.154594        5641
 m_sumb_d                                8.343022       39312
 eddav                                   7.928978          42
 redis_pw                                6.708177       20119
 crexp_mul_wave                          4.783066        5641
 w1_copy                                 4.604747       22299
 work_mul_crexp                          4.115592        7433
 hamiltmu                                2.290226        7433
 apply_precond                           2.249388        5081
 soft_charge                             1.859506          38
 kinhamil                                1.574906        7433
 m_bcast_d                               1.413180       14949
 setup_precond                           1.360403        2352
 fftbas_plan_mpi                         0.555128       16138
 pw_charge                               0.544339          76
 fft3d_mpi                               0.498804       16138
 spher                                   0.481987          20
 elmin                                   0.470653           1
 force_and_stress                        0.313057           1
 fornl                                   0.236424           1
 brmix                                   0.194047          38
 augmentation_charge                     0.176933          38
 broyd                                   0.149150          38
 pothar                                  0.124012          40
 choleski                                0.121851           2
 setdij_                                 0.103875          66
 fft_gq                                  0.089414          38
 map_backward                            0.084117       16132
 setg0                                   0.078147          40
 redis_proj                              0.069818       25202
 vnlac0                                  0.062957        7433
 brget                                   0.055059        3851
 newband                                 0.039671        7517
 overl1                                  0.039635        7433
 strkin                                  0.035461           1
 overl                                   0.024334       12516
 w1_projall                              0.021027        5081
 orthch                                  0.018874           1
 sphpro_fast                             0.018361           2
 fftbas_mpi                              0.013701       14942
 strelo                                  0.011415           1
 forhar                                  0.011359           2
 chggra                                  0.010968           1
 densta                                  0.010074          43
 brsav                                   0.010003         900
 strehar                                 0.009676           1
 forloc                                  0.005264           1
 inisym                                  0.004767           1
 brpre                                   0.002844          76
 truncate_high_frequency_w1              0.002665        9785
 phase                                   0.002519          96
 strenl                                  0.002223           1
 stufak                                  0.002124           1
 depsum                                  0.000931          38
 fftbrc_mpi                              0.000818        1196
 set_dd_paw                              0.000792          40
 brgrid                                  0.000379           1
 fewald                                  0.000275           1
 proj                                    0.000205           1
 rsp                                     0.000088           1
 fordep                                  0.000037           1
 crpa_reader                             0.000030           1
 set_rsgf_all                            0.000020          40
 potlok_metagga                          0.000014          39
 vectorpot                               0.000014          39
 FERMAT_RAZOR                            0.000012           1
 posmap                                  0.000006           2
 rcp                                     0.000005           1
 proall                                  0.000005           1
 redis_pw_over_bands                     0.000001           1
 rotate_active_occupied_orbital          0.000000           1
 set_dd_magatom                          0.000000          40
 ---------------------------------------------------------------
  summed up times     1660.108855962753     
 
 Accumulative profile
 ====================
 
             routine name                   CPU           calls
 ---------------------------------------------------------------
 total_time                           1660.108856           1
 elmin                                1356.790670           1
 eddav                                1258.909197          42
 fft3d_mpi                             517.445014       16138
 fftbas_plan_mpi                       516.931691       16138
 fftbas_mpi                            500.523855       14942
 dfftw_execute                         382.328258       48414
 hamiltmu                              374.078460        7433
 fftwav_mpi                            314.512179        7509
 kinhamil                              257.068160        7433
 fftext_mpi                            255.493254        7433
 m_alltoall_d                          248.808974      156991
 orth1                                 174.624277       22355
 ggemm                                 145.383145        9785
 newband                               119.448495        7517
 vhamil                                 91.711276        7433
 redis_pw                               83.018610       20119
 map_forward                            77.954684       16144
 set_charge                             69.333114          38
 map_backward                           56.093622       16132
 lincom                                 52.927454          86
 m_alltoallv_z                          42.375324       16292
 wfinit                                 41.770605           1
 map_gather                             40.736980       16292
 map_scatter                            32.374427       16292
 potlok                                 28.595746          39
 vnlac0                                 22.969163        7433
 m_bcast_z                              21.237782       11212
 gemm                                   17.818946        7433
 fftbrc_mpi                             16.422355        1196
 proj1                                  15.123068        5641
 soft_charge                            14.551692          38
 w1_projall                             14.543808        5081
 pdssyex_zheevx                         14.060737          84
 redis_proj                             13.701224       25202
 lapack                                 12.834379        7433
 eccp                                   12.687570        2352
 m_sumb_d                                8.343022       39312
 crexp_mul_wave                          4.783066        5641
 force_and_stress                        4.627308           1
 w1_copy                                 4.604747       22299
 work_mul_crexp                          4.115592        7433
 fft_gq                                  2.704134          38
 apply_precond                           2.249388        5081
 orthch                                  2.035719           1
 brmix                                   1.782235          38
 augmentation_charge                     1.415284          38
 m_bcast_d                               1.413180       14949
 setup_precond                           1.404577        2352
 strenl                                  0.996870           1
 set_dd_paw                              0.789470          40
 pw_charge                               0.544339          76
 broyd                                   0.539838          38
 spher                                   0.481987          20
 depsum                                  0.339022          38
 fornl                                   0.238743           1
 pothar                                  0.161224          40
 densta                                  0.153663          43
 choleski                                0.121851           2
 setdij_                                 0.120349          66
 setg0                                   0.078147          40
 fewald                                  0.078074           1
 proall                                  0.064885           1
 proj                                    0.062402           1
 brget                                   0.055059        3851
 chggra                                  0.052338           1
 overl1                                  0.039635        7433
 strkin                                  0.036934           1
 overl                                   0.024334       12516
 sphpro_fast                             0.019703           2
 fordep                                  0.012139           1
 forhar                                  0.011672           2
 strelo                                  0.011555           1
 brsav                                   0.010003         900
 strehar                                 0.009781           1
 forloc                                  0.005631           1
 inisym                                  0.004773           1
 brpre                                   0.002844          76
 truncate_high_frequency_w1              0.002665        9785
 phase                                   0.002519          96
 stufak                                  0.002124           1
 brgrid                                  0.000379           1
 rsp                                     0.000088           1
 crpa_reader                             0.000030           1
 set_rsgf_all                            0.000020          40
 potlok_metagga                          0.000014          39
 vectorpot                               0.000014          39
 FERMAT_RAZOR                            0.000012           1
 posmap                                  0.000006           2
 rcp                                     0.000005           1
 redis_pw_over_bands                     0.000001           1
 rotate_active_occupied_orbital          0.000000           1
 set_dd_magatom                          0.000000          40
 ---------------------------------------------------------------
 
Profiling took   0.371020  0.099313  0.004230  0.004172 seconds
Profiling took   0.277896 seconds
