 running  160 mpi-ranks, with    1 threads/rank, on   10 nodes
 distrk:  each k-point on   80 cores,    2 groups
 distr:  one band on    5 cores,   16 groups
 vasp.6.4.2 20Jul23 (build Oct 12 2023 10:31:02) complex                         
 POSCAR found type information on POSCAR GeSe
 POSCAR found :  2 types and       8 ions
 Reading from existing POTCAR
 scaLAPACK will be used
 Reading from existing POTCAR
 LDA part: xc-table for Pade appr. of Perdew
 POSCAR, INCAR and KPOINTS ok, starting setup
 FFT: planning ... GRIDC
 FFT: planning ... GRID_SOFT
 FFT: planning ... GRID
 WAVECAR not read
 entering main loop
       N       E                     dE             d eps       ncg     rms          rms(c)
DAV:   1     0.132966072712E+03    0.13297E+03   -0.12872E+04  2560   0.772E+02
DAV:   2    -0.249984631227E+02   -0.15796E+03   -0.15345E+03  3712   0.139E+02
DAV:   3    -0.339976028762E+02   -0.89991E+01   -0.89794E+01  3088   0.385E+01
DAV:   4    -0.340637448111E+02   -0.66142E-01   -0.66126E-01  3392   0.378E+00
DAV:   5    -0.340642194323E+02   -0.47462E-03   -0.47459E-03  3072   0.311E-01    0.652E+00
DAV:   6    -0.336914494267E+02    0.37277E+00   -0.80571E-01  3184   0.297E+00    0.411E+00
DAV:   7    -0.336826096215E+02    0.88398E-02   -0.22116E-01  3040   0.167E+00    0.128E+00
DAV:   8    -0.336823387143E+02    0.27091E-03   -0.22312E-02  3232   0.553E-01    0.187E-01
DAV:   9    -0.336828178067E+02   -0.47909E-03   -0.39142E-03  3360   0.270E-01    0.719E-02
DAV:  10    -0.336829904490E+02   -0.17264E-03   -0.38270E-04  3296   0.836E-02    0.258E-02
DAV:  11    -0.336830408987E+02   -0.50450E-04   -0.58174E-05  3200   0.348E-02    0.127E-02
DAV:  12    -0.336830425433E+02   -0.16447E-05   -0.85545E-06  3376   0.113E-02    0.285E-03
DAV:  13    -0.336830436027E+02   -0.10593E-05   -0.16756E-06  2256   0.554E-03    0.113E-03
DAV:  14    -0.336830438278E+02   -0.22512E-06   -0.21861E-07  1616   0.201E-03
   1 F= -.33683044E+02 E0= -.33682671E+02  d E =-.745510E-03
