 running  160 mpi-ranks, with    1 threads/rank, on   10 nodes
 distrk:  each k-point on   80 cores,    2 groups
 distr:  one band on    5 cores,   16 groups
 vasp.6.4.2 20Jul23 (build Oct 12 2023 10:31:02) complex                         
 POSCAR found type information on POSCAR GeSe
 POSCAR found :  2 types and       8 ions
 Reading from existing POTCAR
 scaLAPACK will be used
 Reading from existing POTCAR
 LDA part: xc-table for Pade appr. of Perdew
 POSCAR, INCAR and KPOINTS ok, starting setup
 FFT: planning ... GRIDC
 FFT: planning ... GRID_SOFT
 FFT: planning ... GRID
 WAVECAR not read
 entering main loop
       N       E                     dE             d eps       ncg     rms          rms(c)
DAV:   1     0.131446073253E+03    0.13145E+03   -0.12855E+04  2560   0.772E+02
DAV:   2    -0.252435682497E+02   -0.15669E+03   -0.15218E+03  3760   0.139E+02
DAV:   3    -0.340705201683E+02   -0.88270E+01   -0.88089E+01  3152   0.381E+01
DAV:   4    -0.341333965195E+02   -0.62876E-01   -0.62869E-01  3280   0.368E+00
DAV:   5    -0.341338250937E+02   -0.42857E-03   -0.42857E-03  3152   0.297E-01    0.645E+00
DAV:   6    -0.337361035287E+02    0.39772E+00   -0.83951E-01  3088   0.305E+00    0.406E+00
DAV:   7    -0.337266971264E+02    0.94064E-02   -0.22928E-01  2848   0.170E+00    0.132E+00
DAV:   8    -0.337251524828E+02    0.15446E-02   -0.22853E-02  3024   0.569E-01    0.182E-01
DAV:   9    -0.337254718975E+02   -0.31941E-03   -0.35552E-03  3248   0.261E-01    0.692E-02
DAV:  10    -0.337255793356E+02   -0.10744E-03   -0.29143E-04  3120   0.746E-02    0.251E-02
DAV:  11    -0.337256078349E+02   -0.28499E-04   -0.37490E-05  2960   0.283E-02    0.122E-02
DAV:  12    -0.337256085146E+02   -0.67979E-06   -0.55701E-06  3328   0.993E-03
   1 F= -.33725609E+02 E0= -.33725609E+02  d E =-.945393E-16
