 vasp.6.4.2 20Jul23 (build Oct 12 2023 10:31:02) complex                         
 executed on              LinuxNV date 2025.05.18  12:07:42
 running  160 mpi-ranks, with    1 threads/rank, on   10 nodes
 distrk:  each k-point on   80 cores,    2 groups
 distr:  one band on NCORE=   5 cores,   16 groups


--------------------------------------------------------------------------------------------------------


 INCAR:
   ENCUT = 520.000000
   SIGMA = 0.050000
   EDIFF = 1.00e-06
   ALGO = Normal
   GGA = PE
   PREC = Normal
   SYSTEM = ./
   ICHARG = 2
   ISMEAR = 0
   ISPIN = 1
   ISTART = 0
   ISYM = 0
   KPAR = 2
   LMAXMIX = 4
   NELM = 100
   NPAR = 16
   LASPH = .TRUE.
   LCHARG = .FALSE.
   LWAVE = .FALSE.

 POTCAR:    PAW_PBE Ge 05Jan2001                  
 POTCAR:    PAW_PBE Se 06Sep2000                  
 POTCAR:    PAW_PBE Ge 05Jan2001                  
   VRHFIN =Ge: s2p2                                                                                 
   LEXCH  = PE                                                                                      
   EATOM  =   104.9960 eV,    7.7170 Ry                                                             
                                                                                                    
   TITEL  = PAW_PBE Ge 05Jan2001                                                                    
   LULTRA =        F    use ultrasoft PP ?                                                          
   IUNSCR =        1    unscreen: 0-lin 1-nonlin 2-no                                               
   RPACOR =    2.170    partial core radius                                                         
   POMASS =   72.610; ZVAL   =    4.000    mass and valenz                                          
   RCORE  =    2.300    outmost cutoff radius                                                       
   RWIGS  =    2.300; RWIGS  =    1.217    wigner-seitz radius (au A)                               
   ENMAX  =  173.807; ENMIN  =  130.355 eV                                                          
   ICORE  =        3    local potential                                                             
   LCOR   =        T    correct aug charges                                                         
   LPAW   =        T    paw PP                                                                      
   EAUG   =  385.843                                                                                
   DEXC   =    0.000                                                                                
   RMAX   =    2.342    core radius for proj-oper                                                   
   RAUG   =    1.300    factor for augmentation sphere                                              
   RDEP   =    2.318    radius for radial grids                                                     
   RDEPT  =    2.103    core radius for aug-charge                                                  
                                                                                                    
   Atomic configuration                                                                             
   10 entries                                                                                       
     n  l   j            E        occ.                                                              
     1  0  0.50    -10959.8463   2.0000                                                             
     2  0  0.50     -1371.6056   2.0000                                                             
     2  1  1.50     -1198.4791   6.0000                                                             
     3  0  0.50      -168.4733   2.0000                                                             
     3  1  1.50      -115.6019   6.0000                                                             
     3  2  2.50       -29.3106  10.0000                                                             
     4  0  0.50       -11.7309   2.0000                                                             
     4  1  0.50        -3.8952   2.0000                                                             
     4  2  1.50        -4.0817   0.0000                                                             
     4  3  2.50        -4.0817   0.0000                                                             
   Description                                                                                      
     l       E           TYP  RCUT    TYP  RCUT                                                     
     0    -11.7309493     23  2.300                                                                 
     0     -7.4578696     23  2.300                                                                 
     1     -3.8952261     23  2.300                                                                 
     1      6.1178114     23  2.300                                                                 
     2     -4.0817478     23  2.300                                                                 
     3     -1.3605826      7  2.300                                                                 
  local pseudopotential read in
  partial core-charges read in
  partial kinetic energy density read in
  atomic valenz-charges read in
  non local Contribution for L=            0  read in
    real space projection operators read in
  non local Contribution for L=            0  read in
    real space projection operators read in
  non local Contribution for L=            1  read in
    real space projection operators read in
  non local Contribution for L=            1  read in
    real space projection operators read in
  non local Contribution for L=            2  read in
    real space projection operators read in
    PAW grid and wavefunctions read in
 
   number of l-projection  operators is LMAX  =            5
   number of lm-projection operators is LMMAX =           13
 
 POTCAR:    PAW_PBE Se 06Sep2000                  
   VRHFIN =Se: s2p4                                                                                 
   LEXCH  = PE                                                                                      
   EATOM  =   257.1286 eV,   18.8984 Ry                                                             
                                                                                                    
   TITEL  = PAW_PBE Se 06Sep2000                                                                    
   LULTRA =        F    use ultrasoft PP ?                                                          
   IUNSCR =        1    unscreen: 0-lin 1-nonlin 2-no                                               
   RPACOR =    1.900    partial core radius                                                         
   POMASS =   78.960; ZVAL   =    6.000    mass and valenz                                          
   RCORE  =    2.100    outmost cutoff radius                                                       
   RWIGS  =    2.200; RWIGS  =    1.164    wigner-seitz radius (au A)                               
   ENMAX  =  211.555; ENMIN  =  158.666 eV                                                          
   ICORE  =        3    local potential                                                             
   LCOR   =        T    correct aug charges                                                         
   LPAW   =        T    paw PP                                                                      
   EAUG   =  446.842                                                                                
   DEXC   =    0.000                                                                                
   RMAX   =    2.147    core radius for proj-oper                                                   
   RAUG   =    1.300    factor for augmentation sphere                                              
   RDEP   =    2.177    radius for radial grids                                                     
   RDEPT  =    1.928    core radius for aug-charge                                                  
                                                                                                    
   Atomic configuration                                                                             
   10 entries                                                                                       
     n  l   j            E        occ.                                                              
     1  0  0.50    -12503.4787   2.0000                                                             
     2  0  0.50     -1606.9547   2.0000                                                             
     2  1  1.50     -1413.3140   6.0000                                                             
     3  0  0.50      -213.4885   2.0000                                                             
     3  1  1.50      -152.9538   6.0000                                                             
     3  2  2.50       -53.1221  10.0000                                                             
     4  0  0.50       -17.2865   2.0000                                                             
     4  1  0.50        -6.5110   4.0000                                                             
     4  2  2.50        -6.8029   0.0000                                                             
     4  3  2.50        -6.8029   0.0000                                                             
   Description                                                                                      
     l       E           TYP  RCUT    TYP  RCUT                                                     
     0    -17.2865377     23  2.100                                                                 
     0    -15.3094411     23  2.100                                                                 
     1     -6.5110275     23  2.100                                                                 
     1     -0.0695192     23  2.100                                                                 
     2     -6.8029130     23  2.100                                                                 
     3     -1.3605826      7  2.100                                                                 
  local pseudopotential read in
  partial core-charges read in
  partial kinetic energy density read in
  atomic valenz-charges read in
  non local Contribution for L=            0  read in
    real space projection operators read in
  non local Contribution for L=            0  read in
    real space projection operators read in
  non local Contribution for L=            1  read in
    real space projection operators read in
  non local Contribution for L=            1  read in
    real space projection operators read in
  non local Contribution for L=            2  read in
    real space projection operators read in
    PAW grid and wavefunctions read in
 
   number of l-projection  operators is LMAX  =            5
   number of lm-projection operators is LMMAX =           13
 
  PAW_PBE Ge 05Jan2001                  :
 energy of atom  1       EATOM= -104.9960
 kinetic energy error for atom=    0.0002 (will be added to EATOM!!)
  PAW_PBE Se 06Sep2000                  :
 energy of atom  2       EATOM= -257.1286
 kinetic energy error for atom=    0.0007 (will be added to EATOM!!)
 
 
 POSCAR: Ge Se
  positions in cartesian coordinates
  No initial velocities read in
 exchange correlation table for  LEXCH =        8
   RHO(1)=    0.500       N(1)  =     2000
   RHO(2)=  100.500       N(2)  =     4000
 


--------------------------------------------------------------------------------------------------------


 ion  position               nearest neighbor table
   1  0.786  0.462  0.123-   6 2.60   6 2.60   5 2.60
   2  0.286  0.962  0.377-   5 2.60   5 2.60   6 2.60
   3  0.750  0.886  0.877-   8 2.60   8 2.60   7 2.60
   4  0.250  0.386  0.623-   7 2.60   7 2.60   8 2.60
   5  0.786  0.341  0.352-   2 2.60   2 2.60   1 2.60
   6  0.286  0.841  0.148-   1 2.60   1 2.60   2 2.60
   7  0.750  0.007  0.648-   4 2.60   4 2.60   3 2.60
   8  0.250  0.507  0.852-   3 2.60   3 2.60   4 2.60
 

IMPORTANT INFORMATION: All symmetrisations will be switched off!
NOSYMM: (Re-)initialisation of all symmetry stuff for point group C_1.


----------------------------------------------------------------------------------------

                                     Primitive cell                                     

  volume of cell :     193.5913

  direct lattice vectors                    reciprocal lattice vectors
     3.858100176  0.000000000  0.000000000     0.259194929  0.000000000  0.000000000
     0.000000000  4.526575088  0.000000000     0.000000000  0.220917577  0.000000000
     0.000000000  0.000000000 11.085176468     0.000000000  0.000000000  0.090210562

  length of vectors
     3.858100176  4.526575088 11.085176468     0.259194929  0.220917577  0.090210562

  position of ions in fractional coordinates (direct lattice)
     0.786231884  0.461946521  0.122982664
     0.286231884  0.961946521  0.377017336
     0.750000000  0.885879566  0.877017336
     0.250000000  0.385879566  0.622982664
     0.786231884  0.341135976  0.352381810
     0.286231884  0.841135976  0.147618190
     0.750000000  0.006690111  0.647618190
     0.250000000  0.506690111  0.852381810

  ion indices of the primitive-cell ions
   primitive index   ion index
                 1           1
                 2           2
                 3           3
                 4           4
                 5           5
                 6           6
                 7           7
                 8           8

----------------------------------------------------------------------------------------

 
 
 KPOINTS: KPOINTS created by Atomic Simulation Env

Automatic generation of k-mesh.
 Grid dimensions read from file:
 generate k-points for:    6    6    2

 Generating k-lattice:

  Cartesian coordinates                     Fractional coordinates (reciprocal lattice)
     0.043199155  0.000000000  0.000000000     0.166666667  0.000000000  0.000000000
     0.000000000  0.036819596  0.000000000     0.000000000  0.166666667  0.000000000
     0.000000000  0.000000000  0.045105281     0.000000000  0.000000000  0.500000000

  Length of vectors
     0.043199155  0.036819596  0.045105281

  Shift w.r.t. Gamma in fractional coordinates (k-lattice)
     0.000000000  0.000000000  0.000000000

 
 Subroutine IBZKPT returns following result:
 ===========================================
 
 Found     40 irreducible k-points:
 
 Following reciprocal coordinates:
            Coordinates               Weight
  0.000000  0.000000  0.000000      1.000000
  0.166667  0.000000  0.000000      2.000000
  0.333333  0.000000  0.000000      2.000000
  0.500000  0.000000  0.000000      1.000000
  0.000000  0.166667  0.000000      2.000000
  0.166667  0.166667  0.000000      2.000000
  0.166667 -0.166667  0.000000      2.000000
  0.333333  0.166667  0.000000      2.000000
  0.333333 -0.166667  0.000000      2.000000
  0.500000  0.166667  0.000000      2.000000
  0.000000  0.333333  0.000000      2.000000
  0.166667  0.333333  0.000000      2.000000
  0.166667 -0.333333  0.000000      2.000000
  0.333333  0.333333  0.000000      2.000000
  0.333333 -0.333333  0.000000      2.000000
  0.500000  0.333333  0.000000      2.000000
  0.000000  0.500000  0.000000      1.000000
  0.166667  0.500000  0.000000      2.000000
  0.333333  0.500000  0.000000      2.000000
  0.500000  0.500000  0.000000      1.000000
  0.000000  0.000000  0.500000      1.000000
  0.166667  0.000000  0.500000      2.000000
  0.333333  0.000000  0.500000      2.000000
  0.500000  0.000000  0.500000      1.000000
  0.000000  0.166667  0.500000      2.000000
  0.166667  0.166667  0.500000      2.000000
  0.166667 -0.166667  0.500000      2.000000
  0.333333  0.166667  0.500000      2.000000
  0.333333 -0.166667  0.500000      2.000000
  0.500000  0.166667  0.500000      2.000000
  0.000000  0.333333  0.500000      2.000000
  0.166667  0.333333  0.500000      2.000000
  0.166667 -0.333333  0.500000      2.000000
  0.333333  0.333333  0.500000      2.000000
  0.333333 -0.333333  0.500000      2.000000
  0.500000  0.333333  0.500000      2.000000
  0.000000  0.500000  0.500000      1.000000
  0.166667  0.500000  0.500000      2.000000
  0.333333  0.500000  0.500000      2.000000
  0.500000  0.500000  0.500000      1.000000
 
 Following cartesian coordinates:
            Coordinates               Weight
  0.000000  0.000000  0.000000      1.000000
  0.043199  0.000000  0.000000      2.000000
  0.086398  0.000000  0.000000      2.000000
  0.129597  0.000000  0.000000      1.000000
  0.000000  0.036820  0.000000      2.000000
  0.043199  0.036820  0.000000      2.000000
  0.043199 -0.036820  0.000000      2.000000
  0.086398  0.036820  0.000000      2.000000
  0.086398 -0.036820  0.000000      2.000000
  0.129597  0.036820  0.000000      2.000000
  0.000000  0.073639  0.000000      2.000000
  0.043199  0.073639  0.000000      2.000000
  0.043199 -0.073639  0.000000      2.000000
  0.086398  0.073639  0.000000      2.000000
  0.086398 -0.073639  0.000000      2.000000
  0.129597  0.073639  0.000000      2.000000
  0.000000  0.110459  0.000000      1.000000
  0.043199  0.110459  0.000000      2.000000
  0.086398  0.110459  0.000000      2.000000
  0.129597  0.110459  0.000000      1.000000
  0.000000  0.000000  0.045105      1.000000
  0.043199  0.000000  0.045105      2.000000
  0.086398  0.000000  0.045105      2.000000
  0.129597  0.000000  0.045105      1.000000
  0.000000  0.036820  0.045105      2.000000
  0.043199  0.036820  0.045105      2.000000
  0.043199 -0.036820  0.045105      2.000000
  0.086398  0.036820  0.045105      2.000000
  0.086398 -0.036820  0.045105      2.000000
  0.129597  0.036820  0.045105      2.000000
  0.000000  0.073639  0.045105      2.000000
  0.043199  0.073639  0.045105      2.000000
  0.043199 -0.073639  0.045105      2.000000
  0.086398  0.073639  0.045105      2.000000
  0.086398 -0.073639  0.045105      2.000000
  0.129597  0.073639  0.045105      2.000000
  0.000000  0.110459  0.045105      1.000000
  0.043199  0.110459  0.045105      2.000000
  0.086398  0.110459  0.045105      2.000000
  0.129597  0.110459  0.045105      1.000000
 


--------------------------------------------------------------------------------------------------------




 Dimension of arrays:
   k-points           NKPTS =     40   k-points in BZ     NKDIM =     40   number of bands    NBANDS=     32
   number of dos      NEDOS =    301   number of ions     NIONS =      8
   non local maximal  LDIM  =      5   non local SUM 2l+1 LMDIM =     13
   total plane-waves  NPLWV =  43008
   max r-space proj   IRMAX =      1   max aug-charges    IRDMAX=  12272
   dimension x,y,z NGX =    24 NGY =   28 NGZ =   64
   dimension x,y,z NGXF=    48 NGYF=   56 NGZF=  128
   support grid    NGXF=    48 NGYF=   56 NGZF=  128
   ions per type =               4   4
   NGX,Y,Z   is equivalent  to a cutoff of  10.34, 10.28,  9.60 a.u.
   NGXF,Y,Z  is equivalent  to a cutoff of  20.68, 20.57, 19.20 a.u.

 SYSTEM =  ./                                      
 POSCAR =  Ge Se                                   

 Startparameter for this run:
   NWRITE =      2    write-flag & timer
   PREC   = normal    normal or accurate (medium, high low for compatibility)
   ISTART =      0    job   : 0-new  1-cont  2-samecut
   ICHARG =      2    charge: 1-file 2-atom 10-const
   ISPIN  =      1    spin polarized calculation?
   LNONCOLLINEAR =      F non collinear calculations
   LSORBIT =      F    spin-orbit coupling
   INIWAV =      1    electr: 0-lowe 1-rand  2-diag
   LASPH  =      T    aspherical Exc in radial PAW
 Electronic Relaxation 1
   ENCUT  =  520.0 eV  38.22 Ry    6.18 a.u.   7.17  8.42 20.61*2*pi/ulx,y,z
   ENINI  =  520.0     initial cutoff
   ENAUG  =  446.8 eV  augmentation charge cutoff
   NELM   =    100;   NELMIN=  2; NELMDL= -5     # of ELM steps 
   EDIFF  = 0.1E-05   stopping-criterion for ELM
   LREAL  =      F    real-space projection
   NLSPLINE    = F    spline interpolate recip. space projectors
   LCOMPAT=      F    compatible to vasp.4.4
   GGA_COMPAT  = T    GGA compatible to vasp.4.4-vasp.4.6
   LMAXPAW     = -100 max onsite density
   LMAXMIX     =    4 max onsite mixed and CHGCAR
   VOSKOWN=      0    Vosko Wilk Nusair interpolation
   ROPT   =    0.00000   0.00000
 Ionic relaxation
   EDIFFG = 0.1E-04   stopping-criterion for IOM
   NSW    =      0    number of steps for IOM
   NBLOCK =      1;   KBLOCK =      1    inner block; outer block 
   IBRION =     -1    ionic relax: 0-MD 1-quasi-New 2-CG
   NFREE  =      0    steps in history (QN), initial steepest desc. (CG)
   ISIF   =      2    stress and relaxation
   IWAVPR =     10    prediction:  0-non 1-charg 2-wave 3-comb
   ISYM   =      0    0-nonsym 1-usesym 2-fastsym
   LCORR  =      T    Harris-Foulkes like correction to forces

   POTIM  = 0.5000    time-step for ionic-motion
   TEIN   =    0.0    initial temperature
   TEBEG  =    0.0;   TEEND  =   0.0 temperature during run
   SMASS  =  -3.00    Nose mass-parameter (am)
   estimated Nose-frequenzy (Omega)   =  0.10E-29 period in steps = 0.13E+47 mass=  -0.340E-27a.u.
   SCALEE = 1.0000    scale energy and forces
   NPACO  =    256;   APACO  = 10.0  distance and # of slots for P.C.
   PSTRESS=    0.0 pullay stress

  Mass of Ions in am
   POMASS =  72.61 78.96
  Ionic Valenz
   ZVAL   =   4.00  6.00
  Atomic Wigner-Seitz radii
   RWIGS  =  -1.00 -1.00
  virtual crystal weights 
   VCA    =   1.00  1.00
   NELECT =      40.0000    total number of electrons
   NUPDOWN=      -1.0000    fix difference up-down

 DOS related values:
   EMIN   =  10.00;   EMAX   =-10.00  energy-range for DOS
   EFERMI =   0.00;   METHOD = LEGACY      
   ISMEAR =     0;   SIGMA  =   0.05  broadening in eV -4-tet -1-fermi 0-gaus

 Electronic relaxation 2 (details)
   IALGO  =     38    algorithm
   LDIAG  =      T    sub-space diagonalisation (order eigenvalues)
   LSUBROT=      F    optimize rotation matrix (better conditioning)
   TURBO    =      0    0=normal 1=particle mesh
   IRESTART =      0    0=no restart 2=restart with 2 vectors
   NREBOOT  =      0    no. of reboots
   NMIN     =      0    reboot dimension
   EREF     =   0.00    reference energy to select bands
   IMIX   =      4    mixing-type and parameters
     AMIX     =   0.40;   BMIX     =  1.00
     AMIX_MAG =   1.60;   BMIX_MAG =  1.00
     AMIN     =   0.10
     WC   =   100.;   INIMIX=   1;  MIXPRE=   1;  MAXMIX= -45

 Intra band minimization:
   WEIMIN = 0.0000     energy-eigenvalue tresh-hold
   EBREAK =  0.78E-08  absolut break condition
   DEPER  =   0.30     relativ break condition  

   TIME   =   0.40     timestep for ELM

  volume/ion in A,a.u.               =      24.20       163.30
  Fermi-wavevector in a.u.,A,eV,Ry     =   0.967831  1.828935 12.744535  0.936697
  Thomas-Fermi vector in A             =   2.097750
 
 Write flags
   LWAVE        =      F    write WAVECAR
   LDOWNSAMPLE  =      F    k-point downsampling of WAVECAR
   LCHARG       =      F    write CHGCAR
   LVTOT        =      F    write LOCPOT, total local potential
   LVHAR        =      F    write LOCPOT, Hartree potential only
   LELF         =      F    write electronic localiz. function (ELF)
   LORBIT       =      0    0 simple, 1 ext, 2 COOP (PROOUT), +10 PAW based schemes


 Dipole corrections
   LMONO  =      F    monopole corrections only (constant potential shift)
   LDIPOL =      F    correct potential (dipole corrections)
   IDIPOL =      0    1-x, 2-y, 3-z, 4-all directions 
   EPSILON=  1.0000000 bulk dielectric constant

 Exchange correlation treatment:
   GGA     =    PE    GGA type
   LEXCH   =     8    internal setting for exchange type
   LIBXC   =     F    Libxc                    
   VOSKOWN =     0    Vosko Wilk Nusair interpolation
   LHFCALC =     F    Hartree Fock is set to
   LHFONE  =     F    Hartree Fock one center treatment
   AEXX    =    0.0000 exact exchange contribution

 Linear response parameters
   LEPSILON=     F    determine dielectric tensor
   LRPA    =     F    only Hartree local field effects (RPA)
   LNABLA  =     F    use nabla operator in PAW spheres
   LVEL    =     F    velocity operator in full k-point grid
   CSHIFT  =0.1000    complex shift for real part using Kramers Kronig
   OMEGAMAX=  -1.0    maximum frequency
   DEG_THRESHOLD= 0.2000000E-02 threshold for treating states as degnerate
   RTIME   =   -0.100 relaxation time in fs
  (WPLASMAI=    0.000 imaginary part of plasma frequency in eV, 0.658/RTIME)
   DFIELD  = 0.0000000 0.0000000 0.0000000 field for delta impulse in time
 
  Optional k-point grid parameters
   LKPOINTS_OPT  =     F    use optional k-point grid
   KPOINTS_OPT_MODE=     1    mode for optional k-point grid
 
 Orbital magnetization related:
   ORBITALMAG=     F  switch on orbital magnetization
   LCHIMAG   =     F  perturbation theory with respect to B field
   DQ        =  0.001000  dq finite difference perturbation B field
   LLRAUG    =     F  two centre corrections for induced B field
   LBONE     =     F  B-component reconstruction in AE one-centre
   LVGVCALC  =     T  calculate vGv susceptibility
   LVGVAPPL  =     F  apply vGv susceptibility instead of pGv for G=0

 Random number generation:
   RANDOM_GENERATOR = DEFAULT
   PCG_SEED         = not used


--------------------------------------------------------------------------------------------------------


 Static calculation
 charge density and potential will be updated during run
 non-spin polarized calculation
 Variant of blocked Davidson
 Davidson routine will perform the subspace rotation
 perform sub-space diagonalisation
    after iterative eigenvector-optimisation
 modified Broyden-mixing scheme, WC =      100.0
 initial mixing is a Kerker type mixing with AMIX =  0.4000 and BMIX =      1.0000
 Hartree-type preconditioning will be used
 using additional bands            12
 reciprocal scheme for non local part
 use partial core corrections
 calculate Harris-corrections to forces 
   (improved forces if not selfconsistent)
 use gradient corrections 
 use of overlap-Matrix (Vanderbilt PP)
 Gauss-broadening in eV      SIGMA  =   0.05


--------------------------------------------------------------------------------------------------------


  energy-cutoff  :      520.00
  volume of cell :      193.59
      direct lattice vectors                 reciprocal lattice vectors
     3.858100176  0.000000000  0.000000000     0.259194929  0.000000000  0.000000000
     0.000000000  4.526575088  0.000000000     0.000000000  0.220917577  0.000000000
     0.000000000  0.000000000 11.085176468     0.000000000  0.000000000  0.090210562

  length of vectors
     3.858100176  4.526575088 11.085176468     0.259194929  0.220917577  0.090210562


 
 k-points in units of 2pi/SCALE and weight: KPOINTS created by Atomic Simulation Env
   0.00000000  0.00000000  0.00000000       0.014
   0.04319915  0.00000000  0.00000000       0.028
   0.08639831  0.00000000  0.00000000       0.028
   0.12959746  0.00000000  0.00000000       0.014
   0.00000000  0.03681960  0.00000000       0.028
   0.04319915  0.03681960  0.00000000       0.028
   0.04319915 -0.03681960  0.00000000       0.028
   0.08639831  0.03681960  0.00000000       0.028
   0.08639831 -0.03681960  0.00000000       0.028
   0.12959746  0.03681960  0.00000000       0.028
   0.00000000  0.07363919  0.00000000       0.028
   0.04319915  0.07363919  0.00000000       0.028
   0.04319915 -0.07363919  0.00000000       0.028
   0.08639831  0.07363919  0.00000000       0.028
   0.08639831 -0.07363919  0.00000000       0.028
   0.12959746  0.07363919  0.00000000       0.028
   0.00000000  0.11045879  0.00000000       0.014
   0.04319915  0.11045879  0.00000000       0.028
   0.08639831  0.11045879  0.00000000       0.028
   0.12959746  0.11045879  0.00000000       0.014
   0.00000000  0.00000000  0.04510528       0.014
   0.04319915  0.00000000  0.04510528       0.028
   0.08639831  0.00000000  0.04510528       0.028
   0.12959746  0.00000000  0.04510528       0.014
   0.00000000  0.03681960  0.04510528       0.028
   0.04319915  0.03681960  0.04510528       0.028
   0.04319915 -0.03681960  0.04510528       0.028
   0.08639831  0.03681960  0.04510528       0.028
   0.08639831 -0.03681960  0.04510528       0.028
   0.12959746  0.03681960  0.04510528       0.028
   0.00000000  0.07363919  0.04510528       0.028
   0.04319915  0.07363919  0.04510528       0.028
   0.04319915 -0.07363919  0.04510528       0.028
   0.08639831  0.07363919  0.04510528       0.028
   0.08639831 -0.07363919  0.04510528       0.028
   0.12959746  0.07363919  0.04510528       0.028
   0.00000000  0.11045879  0.04510528       0.014
   0.04319915  0.11045879  0.04510528       0.028
   0.08639831  0.11045879  0.04510528       0.028
   0.12959746  0.11045879  0.04510528       0.014
 
 k-points in reciprocal lattice and weights: KPOINTS created by Atomic Simulation Env
   0.00000000  0.00000000  0.00000000       0.014
   0.16666667  0.00000000  0.00000000       0.028
   0.33333333  0.00000000  0.00000000       0.028
   0.50000000  0.00000000  0.00000000       0.014
   0.00000000  0.16666667  0.00000000       0.028
   0.16666667  0.16666667  0.00000000       0.028
   0.16666667 -0.16666667  0.00000000       0.028
   0.33333333  0.16666667  0.00000000       0.028
   0.33333333 -0.16666667  0.00000000       0.028
   0.50000000  0.16666667  0.00000000       0.028
   0.00000000  0.33333333  0.00000000       0.028
   0.16666667  0.33333333  0.00000000       0.028
   0.16666667 -0.33333333  0.00000000       0.028
   0.33333333  0.33333333  0.00000000       0.028
   0.33333333 -0.33333333  0.00000000       0.028
   0.50000000  0.33333333  0.00000000       0.028
   0.00000000  0.50000000  0.00000000       0.014
   0.16666667  0.50000000  0.00000000       0.028
   0.33333333  0.50000000  0.00000000       0.028
   0.50000000  0.50000000  0.00000000       0.014
   0.00000000  0.00000000  0.50000000       0.014
   0.16666667  0.00000000  0.50000000       0.028
   0.33333333  0.00000000  0.50000000       0.028
   0.50000000  0.00000000  0.50000000       0.014
   0.00000000  0.16666667  0.50000000       0.028
   0.16666667  0.16666667  0.50000000       0.028
   0.16666667 -0.16666667  0.50000000       0.028
   0.33333333  0.16666667  0.50000000       0.028
   0.33333333 -0.16666667  0.50000000       0.028
   0.50000000  0.16666667  0.50000000       0.028
   0.00000000  0.33333333  0.50000000       0.028
   0.16666667  0.33333333  0.50000000       0.028
   0.16666667 -0.33333333  0.50000000       0.028
   0.33333333  0.33333333  0.50000000       0.028
   0.33333333 -0.33333333  0.50000000       0.028
   0.50000000  0.33333333  0.50000000       0.028
   0.00000000  0.50000000  0.50000000       0.014
   0.16666667  0.50000000  0.50000000       0.028
   0.33333333  0.50000000  0.50000000       0.028
   0.50000000  0.50000000  0.50000000       0.014
 
 position of ions in fractional coordinates (direct lattice) 
   0.78623188  0.46194652  0.12298266
   0.28623188  0.96194652  0.37701734
   0.75000000  0.88587957  0.87701734
   0.25000000  0.38587957  0.62298266
   0.78623188  0.34113598  0.35238181
   0.28623188  0.84113598  0.14761819
   0.75000000  0.00669011  0.64761819
   0.25000000  0.50669011  0.85238181
 
 position of ions in cartesian coordinates  (Angst):
   3.03336137  2.09103562  1.36328454
   1.10431128  4.35432316  4.17930370
   2.89357513  4.01000037  9.72189193
   0.96452504  1.74671283  6.90587277
   3.03336137  1.54417761  3.90621455
   1.10431128  3.80746515  1.63637368
   2.89357513  0.03028329  7.17896192
   0.96452504  2.29357083  9.44880278
 


--------------------------------------------------------------------------------------------------------


 k-point   1 :   0.0000 0.0000 0.0000  plane waves:    5211
 k-point   2 :   0.1667 0.0000 0.0000  plane waves:    5225
 k-point   3 :   0.3333 0.0000 0.0000  plane waves:    5224
 k-point   4 :   0.5000 0.0000 0.0000  plane waves:    5258
 k-point   5 :   0.0000 0.1667 0.0000  plane waves:    5209
 k-point   6 :   0.1667 0.1667 0.0000  plane waves:    5201
 k-point   7 :   0.1667-0.1667 0.0000  plane waves:    5201
 k-point   8 :   0.3333 0.1667 0.0000  plane waves:    5230
 k-point   9 :   0.3333-0.1667 0.0000  plane waves:    5230
 k-point  10 :   0.5000 0.1667 0.0000  plane waves:    5236
 k-point  11 :   0.0000 0.3333 0.0000  plane waves:    5213
 k-point  12 :   0.1667 0.3333 0.0000  plane waves:    5199
 k-point  13 :   0.1667-0.3333 0.0000  plane waves:    5199
 k-point  14 :   0.3333 0.3333 0.0000  plane waves:    5211
 k-point  15 :   0.3333-0.3333 0.0000  plane waves:    5211
 k-point  16 :   0.5000 0.3333 0.0000  plane waves:    5230
 k-point  17 :   0.0000 0.5000 0.0000  plane waves:    5220
 k-point  18 :   0.1667 0.5000 0.0000  plane waves:    5208
 k-point  19 :   0.3333 0.5000 0.0000  plane waves:    5230
 k-point  20 :   0.5000 0.5000 0.0000  plane waves:    5180
 k-point  21 :   0.0000 0.0000 0.5000  plane waves:    5210
 k-point  22 :   0.1667 0.0000 0.5000  plane waves:    5178
 k-point  23 :   0.3333 0.0000 0.5000  plane waves:    5214
 k-point  24 :   0.5000 0.0000 0.5000  plane waves:    5232
 k-point  25 :   0.0000 0.1667 0.5000  plane waves:    5224
 k-point  26 :   0.1667 0.1667 0.5000  plane waves:    5210
 k-point  27 :   0.1667-0.1667 0.5000  plane waves:    5210
 k-point  28 :   0.3333 0.1667 0.5000  plane waves:    5196
 k-point  29 :   0.3333-0.1667 0.5000  plane waves:    5196
 k-point  30 :   0.5000 0.1667 0.5000  plane waves:    5224
 k-point  31 :   0.0000 0.3333 0.5000  plane waves:    5202
 k-point  32 :   0.1667 0.3333 0.5000  plane waves:    5214
 k-point  33 :   0.1667-0.3333 0.5000  plane waves:    5214
 k-point  34 :   0.3333 0.3333 0.5000  plane waves:    5216
 k-point  35 :   0.3333-0.3333 0.5000  plane waves:    5216
 k-point  36 :   0.5000 0.3333 0.5000  plane waves:    5216
 k-point  37 :   0.0000 0.5000 0.5000  plane waves:    5212
 k-point  38 :   0.1667 0.5000 0.5000  plane waves:    5192
 k-point  39 :   0.3333 0.5000 0.5000  plane waves:    5208
 k-point  40 :   0.5000 0.5000 0.5000  plane waves:    5208

 maximum and minimum number of plane-waves per node :      1076     1017

 maximum number of plane-waves:      5258
 maximum index in each direction: 
   IXMAX=    7   IYMAX=    8   IZMAX=   20
   IXMIN=   -7   IYMIN=   -8   IZMIN=  -21


 parallel 3D FFT for wavefunctions:
    minimum data exchange during FFTs selected (reduces bandwidth)
 parallel 3D FFT for charge:
    minimum data exchange during FFTs selected (reduces bandwidth)


 total amount of memory used by VASP MPI-rank0    41770. kBytes
=======================================================================

   base      :      30000. kBytes
   nonl-proj :       9056. kBytes
   fftplans  :        519. kBytes
   grid      :        766. kBytes
   one-center:         16. kBytes
   wavefun   :       1413. kBytes
 
     INWAV:  cpu time      0.0000: real time      0.0001
 Broyden mixing: mesh for mixing (old mesh)
   NGX = 15   NGY = 17   NGZ = 41
  (NGX  = 48   NGY  = 56   NGZ  =128)
  gives a total of  10455 points

 initial charge density was supplied:
 charge density of overlapping atoms calculated
 number of electron      40.0000000 magnetization 
 keeping initial charge density in first step


--------------------------------------------------------------------------------------------------------


 Maximum index for augmentation-charges           301 (set IRDMAX)


--------------------------------------------------------------------------------------------------------


 First call to EWALD:  gamma=   0.306
 Maximum number of real-space cells 4x 3x 2
 Maximum number of reciprocal cells 2x 2x 5

    FEWALD:  cpu time      0.0011: real time      0.0011


--------------------------------------- Ionic step        1  -------------------------------------------




--------------------------------------- Iteration      1(   1)  ---------------------------------------


    POTLOK:  cpu time      0.0156: real time      0.0157
    SETDIJ:  cpu time      0.2126: real time      0.2131
     EDDAV:  cpu time      0.3483: real time      0.3497
       DOS:  cpu time      0.0011: real time      0.0011
    --------------------------------------------
      LOOP:  cpu time      0.5776: real time      0.5797

 eigenvalue-minimisations  :  2560
 total energy-change (2. order) : 0.1636747E+03  (-0.1588055E+04)
 number of electron      40.0000000 magnetization 
 augmentation part       40.0000000 magnetization 

 Free energy of the ion-electron system (eV)
  ---------------------------------------------------
  alpha Z        PSCENC =        87.52689448
  Ewald energy   TEWEN  =     -1416.37348423
  -Hartree energ DENC   =      -130.62956123
  -exchange      EXHF   =         0.00000000
  -V(xc)+E(xc)   XCENC  =       -33.37190237
  PAW double counting   =      1193.78262552    -1080.73714043
  entropy T*S    EENTRO =        -0.00581470
  eigenvalues    EBANDS =        94.98851934
  atomic energy  EATOM  =      1448.49460871
  Solvation  Ediel_sol  =         0.00000000
  ---------------------------------------------------
  free energy    TOTEN  =       163.67474509 eV

  energy without entropy =      163.68055979  energy(sigma->0) =      163.67765244


--------------------------------------------------------------------------------------------------------




--------------------------------------- Iteration      1(   2)  ---------------------------------------


     EDDAV:  cpu time      0.4895: real time      0.4928
       DOS:  cpu time      0.0006: real time      0.0006
    --------------------------------------------
      LOOP:  cpu time      0.4900: real time      0.4934

 eigenvalue-minimisations  :  3664
 total energy-change (2. order) :-0.1862223E+03  (-0.1804868E+03)
 number of electron      40.0000000 magnetization 
 augmentation part       40.0000000 magnetization 

 Free energy of the ion-electron system (eV)
  ---------------------------------------------------
  alpha Z        PSCENC =        87.52689448
  Ewald energy   TEWEN  =     -1416.37348423
  -Hartree energ DENC   =      -130.62956123
  -exchange      EXHF   =         0.00000000
  -V(xc)+E(xc)   XCENC  =       -33.37190237
  PAW double counting   =      1193.78262552    -1080.73714043
  entropy T*S    EENTRO =        -0.00000000
  eigenvalues    EBANDS =       -91.23957532
  atomic energy  EATOM  =      1448.49460871
  Solvation  Ediel_sol  =         0.00000000
  ---------------------------------------------------
  free energy    TOTEN  =       -22.54753487 eV

  energy without entropy =      -22.54753487  energy(sigma->0) =      -22.54753487


--------------------------------------------------------------------------------------------------------




--------------------------------------- Iteration      1(   3)  ---------------------------------------


     EDDAV:  cpu time      0.4415: real time      0.4440
       DOS:  cpu time      0.0005: real time      0.0005
    --------------------------------------------
      LOOP:  cpu time      0.4420: real time      0.4445

 eigenvalue-minimisations  :  3248
 total energy-change (2. order) :-0.1134694E+02  (-0.1131639E+02)
 number of electron      40.0000000 magnetization 
 augmentation part       40.0000000 magnetization 

 Free energy of the ion-electron system (eV)
  ---------------------------------------------------
  alpha Z        PSCENC =        87.52689448
  Ewald energy   TEWEN  =     -1416.37348423
  -Hartree energ DENC   =      -130.62956123
  -exchange      EXHF   =         0.00000000
  -V(xc)+E(xc)   XCENC  =       -33.37190237
  PAW double counting   =      1193.78262552    -1080.73714043
  entropy T*S    EENTRO =        -0.00000000
  eigenvalues    EBANDS =      -102.58651491
  atomic energy  EATOM  =      1448.49460871
  Solvation  Ediel_sol  =         0.00000000
  ---------------------------------------------------
  free energy    TOTEN  =       -33.89447446 eV

  energy without entropy =      -33.89447446  energy(sigma->0) =      -33.89447446


--------------------------------------------------------------------------------------------------------




--------------------------------------- Iteration      1(   4)  ---------------------------------------


     EDDAV:  cpu time      0.4713: real time      0.4738
       DOS:  cpu time      0.0006: real time      0.0006
    --------------------------------------------
      LOOP:  cpu time      0.4719: real time      0.4744

 eigenvalue-minimisations  :  3136
 total energy-change (2. order) :-0.8791167E-01  (-0.8789609E-01)
 number of electron      40.0000000 magnetization 
 augmentation part       40.0000000 magnetization 

 Free energy of the ion-electron system (eV)
  ---------------------------------------------------
  alpha Z        PSCENC =        87.52689448
  Ewald energy   TEWEN  =     -1416.37348423
  -Hartree energ DENC   =      -130.62956123
  -exchange      EXHF   =         0.00000000
  -V(xc)+E(xc)   XCENC  =       -33.37190237
  PAW double counting   =      1193.78262552    -1080.73714043
  entropy T*S    EENTRO =        -0.00000000
  eigenvalues    EBANDS =      -102.67442658
  atomic energy  EATOM  =      1448.49460871
  Solvation  Ediel_sol  =         0.00000000
  ---------------------------------------------------
  free energy    TOTEN  =       -33.98238614 eV

  energy without entropy =      -33.98238614  energy(sigma->0) =      -33.98238614


--------------------------------------------------------------------------------------------------------




--------------------------------------- Iteration      1(   5)  ---------------------------------------


     EDDAV:  cpu time      0.4358: real time      0.4380
       DOS:  cpu time      0.0005: real time      0.0005
    CHARGE:  cpu time      0.0087: real time      0.0088
    MIXING:  cpu time      0.0008: real time      0.0008
    --------------------------------------------
      LOOP:  cpu time      0.4458: real time      0.4482

 eigenvalue-minimisations  :  3296
 total energy-change (2. order) :-0.5449718E-03  (-0.5449669E-03)
 number of electron      39.9999995 magnetization 
 augmentation part       -7.4198835 magnetization 

 Broyden mixing:
  rms(total) = 0.64355E+00    rms(broyden)= 0.64354E+00
  rms(prec ) = 0.72804E+00
  weight for this iteration     100.00

 Free energy of the ion-electron system (eV)
  ---------------------------------------------------
  alpha Z        PSCENC =        87.52689448
  Ewald energy   TEWEN  =     -1416.37348423
  -Hartree energ DENC   =      -130.62956123
  -exchange      EXHF   =         0.00000000
  -V(xc)+E(xc)   XCENC  =       -33.37190237
  PAW double counting   =      1193.78262552    -1080.73714043
  entropy T*S    EENTRO =        -0.00000000
  eigenvalues    EBANDS =      -102.67497156
  atomic energy  EATOM  =      1448.49460871
  Solvation  Ediel_sol  =         0.00000000
  ---------------------------------------------------
  free energy    TOTEN  =       -33.98293111 eV

  energy without entropy =      -33.98293111  energy(sigma->0) =      -33.98293111


--------------------------------------------------------------------------------------------------------




--------------------------------------- Iteration      1(   6)  ---------------------------------------


    POTLOK:  cpu time      0.0102: real time      0.0104
    SETDIJ:  cpu time      0.2198: real time      0.2203
     EDDAV:  cpu time      0.4039: real time      0.4064
       DOS:  cpu time      0.0009: real time      0.0009
    CHARGE:  cpu time      0.0087: real time      0.0088
    MIXING:  cpu time      0.0006: real time      0.0006
    --------------------------------------------
      LOOP:  cpu time      0.6441: real time      0.6473

 eigenvalue-minimisations  :  3088
 total energy-change (2. order) : 0.3900036E+00  (-0.7772867E-01)
 number of electron      39.9999995 magnetization 
 augmentation part       -7.3646492 magnetization 

 Broyden mixing:
  rms(total) = 0.40311E+00    rms(broyden)= 0.40311E+00
  rms(prec ) = 0.42448E+00
  weight for this iteration     100.00

 eigenvalues of (default mixing * dielectric matrix)
  average eigenvalue GAMMA=   2.1794
  2.1794

 Free energy of the ion-electron system (eV)
  ---------------------------------------------------
  alpha Z        PSCENC =        87.52689448
  Ewald energy   TEWEN  =     -1416.37348423
  -Hartree energ DENC   =      -136.36389235
  -exchange      EXHF   =         0.00000000
  -V(xc)+E(xc)   XCENC  =       -32.77966189
  PAW double counting   =      1454.42711525    -1341.70013419
  entropy T*S    EENTRO =        -0.00000610
  eigenvalues    EBANDS =       -96.82436717
  atomic energy  EATOM  =      1448.49460871
  Solvation  Ediel_sol  =         0.00000000
  ---------------------------------------------------
  free energy    TOTEN  =       -33.59292750 eV

  energy without entropy =      -33.59292140  energy(sigma->0) =      -33.59292445


--------------------------------------------------------------------------------------------------------




--------------------------------------- Iteration      1(   7)  ---------------------------------------


    POTLOK:  cpu time      0.0101: real time      0.0102
    SETDIJ:  cpu time      0.2194: real time      0.2199
     EDDAV:  cpu time      0.4584: real time      0.4612
       DOS:  cpu time      0.0010: real time      0.0010
    CHARGE:  cpu time      0.0088: real time      0.0088
    MIXING:  cpu time      0.0008: real time      0.0008
    --------------------------------------------
      LOOP:  cpu time      0.6984: real time      0.7019

 eigenvalue-minimisations  :  3104
 total energy-change (2. order) : 0.1215179E-01  (-0.2297585E-01)
 number of electron      39.9999995 magnetization 
 augmentation part       -7.3510621 magnetization 

 Broyden mixing:
  rms(total) = 0.13008E+00    rms(broyden)= 0.13008E+00
  rms(prec ) = 0.13890E+00
  weight for this iteration     100.00

 eigenvalues of (default mixing * dielectric matrix)
  average eigenvalue GAMMA=   1.8043
  1.2139  2.3947

 Free energy of the ion-electron system (eV)
  ---------------------------------------------------
  alpha Z        PSCENC =        87.52689448
  Ewald energy   TEWEN  =     -1416.37348423
  -Hartree energ DENC   =      -138.86152352
  -exchange      EXHF   =         0.00000000
  -V(xc)+E(xc)   XCENC  =       -32.32453962
  PAW double counting   =      1775.97893399    -1663.48960628
  entropy T*S    EENTRO =        -0.00008897
  eigenvalues    EBANDS =       -94.53197026
  atomic energy  EATOM  =      1448.49460871
  Solvation  Ediel_sol  =         0.00000000
  ---------------------------------------------------
  free energy    TOTEN  =       -33.58077571 eV

  energy without entropy =      -33.58068674  energy(sigma->0) =      -33.58073123


--------------------------------------------------------------------------------------------------------




--------------------------------------- Iteration      1(   8)  ---------------------------------------


    POTLOK:  cpu time      0.0104: real time      0.0106
    SETDIJ:  cpu time      0.2173: real time      0.2177
     EDDAV:  cpu time      0.4055: real time      0.4073
       DOS:  cpu time      0.0010: real time      0.0010
    CHARGE:  cpu time      0.0088: real time      0.0089
    MIXING:  cpu time      0.0006: real time      0.0006
    --------------------------------------------
      LOOP:  cpu time      0.6436: real time      0.6460

 eigenvalue-minimisations  :  2928
 total energy-change (2. order) : 0.2291885E-02  (-0.2557856E-02)
 number of electron      39.9999995 magnetization 
 augmentation part       -7.3609188 magnetization 

 Broyden mixing:
  rms(total) = 0.16974E-01    rms(broyden)= 0.16974E-01
  rms(prec ) = 0.20929E-01
  weight for this iteration     100.00

 eigenvalues of (default mixing * dielectric matrix)
  average eigenvalue GAMMA=   1.6941
  2.4901  1.2961  1.2961

 Free energy of the ion-electron system (eV)
  ---------------------------------------------------
  alpha Z        PSCENC =        87.52689448
  Ewald energy   TEWEN  =     -1416.37348423
  -Hartree energ DENC   =      -138.82262796
  -exchange      EXHF   =         0.00000000
  -V(xc)+E(xc)   XCENC  =       -32.19679064
  PAW double counting   =      1914.36495553    -1801.93533733
  entropy T*S    EENTRO =        -0.00002521
  eigenvalues    EBANDS =       -94.63667716
  atomic energy  EATOM  =      1448.49460871
  Solvation  Ediel_sol  =         0.00000000
  ---------------------------------------------------
  free energy    TOTEN  =       -33.57848383 eV

  energy without entropy =      -33.57845861  energy(sigma->0) =      -33.57847122


--------------------------------------------------------------------------------------------------------




--------------------------------------- Iteration      1(   9)  ---------------------------------------


    POTLOK:  cpu time      0.0100: real time      0.0101
    SETDIJ:  cpu time      0.2233: real time      0.2238
     EDDAV:  cpu time      0.4019: real time      0.4046
       DOS:  cpu time      0.0010: real time      0.0010
    CHARGE:  cpu time      0.0087: real time      0.0087
    MIXING:  cpu time      0.0006: real time      0.0006
    --------------------------------------------
      LOOP:  cpu time      0.6454: real time      0.6488

 eigenvalue-minimisations  :  3088
 total energy-change (2. order) :-0.1791885E-03  (-0.3397867E-03)
 number of electron      39.9999995 magnetization 
 augmentation part       -7.3587584 magnetization 

 Broyden mixing:
  rms(total) = 0.62274E-02    rms(broyden)= 0.62274E-02
  rms(prec ) = 0.70823E-02
  weight for this iteration     100.00

 eigenvalues of (default mixing * dielectric matrix)
  average eigenvalue GAMMA=   1.7136
  2.2605  2.2605  1.1667  1.1667

 Free energy of the ion-electron system (eV)
  ---------------------------------------------------
  alpha Z        PSCENC =        87.52689448
  Ewald energy   TEWEN  =     -1416.37348423
  -Hartree energ DENC   =      -139.19709446
  -exchange      EXHF   =         0.00000000
  -V(xc)+E(xc)   XCENC  =       -32.15888429
  PAW double counting   =      1925.73662695    -1813.31689896
  entropy T*S    EENTRO =        -0.00003488
  eigenvalues    EBANDS =       -94.29039632
  atomic energy  EATOM  =      1448.49460871
  Solvation  Ediel_sol  =         0.00000000
  ---------------------------------------------------
  free energy    TOTEN  =       -33.57866301 eV

  energy without entropy =      -33.57862813  energy(sigma->0) =      -33.57864557


--------------------------------------------------------------------------------------------------------




--------------------------------------- Iteration      1(  10)  ---------------------------------------


    POTLOK:  cpu time      0.0098: real time      0.0100
    SETDIJ:  cpu time      0.2167: real time      0.2174
     EDDAV:  cpu time      0.4325: real time      0.4343
       DOS:  cpu time      0.0009: real time      0.0009
    CHARGE:  cpu time      0.0082: real time      0.0082
    MIXING:  cpu time      0.0006: real time      0.0006
    --------------------------------------------
      LOOP:  cpu time      0.6687: real time      0.6714

 eigenvalue-minimisations  :  3216
 total energy-change (2. order) :-0.7351316E-04  (-0.2600586E-04)
 number of electron      39.9999995 magnetization 
 augmentation part       -7.3587198 magnetization 

 Broyden mixing:
  rms(total) = 0.22122E-02    rms(broyden)= 0.22122E-02
  rms(prec ) = 0.26761E-02
  weight for this iteration     100.00

 eigenvalues of (default mixing * dielectric matrix)
  average eigenvalue GAMMA=   1.7509
  2.6910  2.4675  1.1879  1.2040  1.2040

 Free energy of the ion-electron system (eV)
  ---------------------------------------------------
  alpha Z        PSCENC =        87.52689448
  Ewald energy   TEWEN  =     -1416.37348423
  -Hartree energ DENC   =      -139.22610247
  -exchange      EXHF   =         0.00000000
  -V(xc)+E(xc)   XCENC  =       -32.15596790
  PAW double counting   =      1920.41912990    -1807.99495735
  entropy T*S    EENTRO =        -0.00003147
  eigenvalues    EBANDS =       -94.26882619
  atomic energy  EATOM  =      1448.49460871
  Solvation  Ediel_sol  =         0.00000000
  ---------------------------------------------------
  free energy    TOTEN  =       -33.57873653 eV

  energy without entropy =      -33.57870505  energy(sigma->0) =      -33.57872079


--------------------------------------------------------------------------------------------------------




--------------------------------------- Iteration      1(  11)  ---------------------------------------


    POTLOK:  cpu time      0.0098: real time      0.0100
    SETDIJ:  cpu time      0.2169: real time      0.2175
     EDDAV:  cpu time      0.3947: real time      0.3963
       DOS:  cpu time      0.0009: real time      0.0009
    CHARGE:  cpu time      0.0089: real time      0.0089
    MIXING:  cpu time      0.0006: real time      0.0006
    --------------------------------------------
      LOOP:  cpu time      0.6319: real time      0.6343

 eigenvalue-minimisations  :  2768
 total energy-change (2. order) :-0.2267749E-04  (-0.3615124E-05)
 number of electron      39.9999995 magnetization 
 augmentation part       -7.3589545 magnetization 

 Broyden mixing:
  rms(total) = 0.11279E-02    rms(broyden)= 0.11279E-02
  rms(prec ) = 0.12737E-02
  weight for this iteration     100.00

 eigenvalues of (default mixing * dielectric matrix)
  average eigenvalue GAMMA=   1.7400
  2.5081  2.5081  2.1522  1.1652  1.1652  0.9410

 Free energy of the ion-electron system (eV)
  ---------------------------------------------------
  alpha Z        PSCENC =        87.52689448
  Ewald energy   TEWEN  =     -1416.37348423
  -Hartree energ DENC   =      -139.24552044
  -exchange      EXHF   =         0.00000000
  -V(xc)+E(xc)   XCENC  =       -32.15093241
  PAW double counting   =      1921.47162010    -1809.04743629
  entropy T*S    EENTRO =        -0.00003052
  eigenvalues    EBANDS =       -94.25447859
  atomic energy  EATOM  =      1448.49460871
  Solvation  Ediel_sol  =         0.00000000
  ---------------------------------------------------
  free energy    TOTEN  =       -33.57875920 eV

  energy without entropy =      -33.57872868  energy(sigma->0) =      -33.57874394


--------------------------------------------------------------------------------------------------------




--------------------------------------- Iteration      1(  12)  ---------------------------------------


    POTLOK:  cpu time      0.0102: real time      0.0104
    SETDIJ:  cpu time      0.2171: real time      0.2177
     EDDAV:  cpu time      0.4315: real time      0.4338
       DOS:  cpu time      0.0009: real time      0.0009
    --------------------------------------------
      LOOP:  cpu time      0.6597: real time      0.6628

 eigenvalue-minimisations  :  3360
 total energy-change (2. order) :-0.4717954E-06  (-0.5637155E-06)
 number of electron      39.9999995 magnetization 
 augmentation part       -7.3589545 magnetization 

 Free energy of the ion-electron system (eV)
  ---------------------------------------------------
  alpha Z        PSCENC =        87.52689448
  Ewald energy   TEWEN  =     -1416.37348423
  -Hartree energ DENC   =      -139.25611914
  -exchange      EXHF   =         0.00000000
  -V(xc)+E(xc)   XCENC  =       -32.14995338
  PAW double counting   =      1920.94364864    -1808.51929075
  entropy T*S    EENTRO =        -0.00003114
  eigenvalues    EBANDS =       -94.24503287
  atomic energy  EATOM  =      1448.49460871
  Solvation  Ediel_sol  =         0.00000000
  ---------------------------------------------------
  free energy    TOTEN  =       -33.57875968 eV

  energy without entropy =      -33.57872854  energy(sigma->0) =      -33.57874411


--------------------------------------------------------------------------------------------------------




 average (electrostatic) potential at core
  the test charge radii are     1.1631  1.0808
  (the norm of the test charge is              1.0000)
       1 -33.4783       2 -33.4783       3 -33.4783       4 -33.4783       5 -54.9742
       6 -54.9742       7 -54.9742       8 -54.9742
 
 
 
 E-fermi :   3.4142     XC(G=0):  -9.2968     alpha+bet : -8.7197

 Fermi energy:         3.4141988490

 k-point     1 :       0.0000    0.0000    0.0000
  band No.  band energies     occupation 
      1     -11.0002      2.00000
      2     -10.6370      2.00000
      3      -9.7526      2.00000
      4      -9.2121      2.00000
      5      -4.7201      2.00000
      6      -4.1599      2.00000
      7      -2.5444      2.00000
      8      -2.4873      2.00000
      9      -1.8819      2.00000
     10      -0.5075      2.00000
     11       0.1006      2.00000
     12       0.1948      2.00000
     13       0.3129      2.00000
     14       0.5362      2.00000
     15       1.0378      2.00000
     16       1.2899      2.00000
     17       1.9267      2.00000
     18       2.4182      2.00000
     19       2.6001      2.00000
     20       2.8970      2.00000
     21       3.5063      0.00920
     22       5.6899      0.00000
     23       5.7513      0.00000
     24       6.0392      0.00000
     25       6.3285      0.00000
     26       7.0679      0.00000
     27       7.1310      0.00000
     28       7.5537      0.00000
     29       8.2067      0.00000
     30       8.3034      0.00000
     31       8.4004      0.00000
     32       8.7339      0.00000

 k-point     2 :       0.1667    0.0000    0.0000
  band No.  band energies     occupation 
      1     -10.8100      2.00000
      2     -10.4592      2.00000
      3      -9.6374      2.00000
      4      -9.1477      2.00000
      5      -5.0176      2.00000
      6      -4.3171      2.00000
      7      -3.0837      2.00000
      8      -2.7686      2.00000
      9      -1.8616      2.00000
     10      -0.3649      2.00000
     11      -0.1046      2.00000
     12      -0.0222      2.00000
     13       0.4775      2.00000
     14       0.5968      2.00000
     15       1.1184      2.00000
     16       1.3651      2.00000
     17       1.5305      2.00000
     18       2.5479      2.00000
     19       2.5892      2.00000
     20       2.8502      2.00000
     21       3.5356      0.00060
     22       5.5186      0.00000
     23       5.9030      0.00000
     24       6.2116      0.00000
     25       6.4400      0.00000
     26       6.8079      0.00000
     27       6.9822      0.00000
     28       7.3787      0.00000
     29       7.7658      0.00000
     30       7.9102      0.00000
     31       7.9425      0.00000
     32       8.2392      0.00000

 k-point     3 :       0.3333    0.0000    0.0000
  band No.  band energies     occupation 
      1     -10.2946      2.00000
      2      -9.9808      2.00000
      3      -9.4625      2.00000
      4      -9.1084      2.00000
      5      -5.5731      2.00000
      6      -4.6195      2.00000
      7      -4.4140      2.00000
      8      -3.6127      2.00000
      9      -1.3070      2.00000
     10      -0.3621      2.00000
     11      -0.0416      2.00000
     12       0.4154      2.00000
     13       0.8224      2.00000
     14       1.0011      2.00000
     15       1.0952      2.00000
     16       1.2792      2.00000
     17       2.0001      2.00000
     18       2.0059      2.00000
     19       2.3073      2.00000
     20       2.5287      2.00000
     21       4.0161      0.00000
     22       4.2204      0.00000
     23       4.9961      0.00000
     24       5.1122      0.00000
     25       5.4834      0.00000
     26       6.0116      0.00000
     27       6.1403      0.00000
     28       6.2847      0.00000
     29       6.9880      0.00000
     30       7.2329      0.00000
     31       8.2022      0.00000
     32       8.6868      0.00000

 k-point     4 :       0.5000    0.0000    0.0000
  band No.  band energies     occupation 
      1      -9.6886      2.00000
      2      -9.6886      2.00000
      3      -9.4101      2.00000
      4      -9.4101      2.00000
      5      -5.4596      2.00000
      6      -5.4596      2.00000
      7      -4.4378      2.00000
      8      -4.4378      2.00000
      9      -0.5640      2.00000
     10      -0.5640      2.00000
     11       0.5553      2.00000
     12       0.5553      2.00000
     13       1.0543      2.00000
     14       1.0543      2.00000
     15       1.2359      2.00000
     16       1.2359      2.00000
     17       1.8137      2.00000
     18       1.8137      2.00000
     19       2.1918      2.00000
     20       2.1918      2.00000
     21       4.1523      0.00000
     22       4.1523      0.00000
     23       4.8339      0.00000
     24       4.8339      0.00000
     25       4.9436      0.00000
     26       4.9436      0.00000
     27       5.8565      0.00000
     28       5.8565      0.00000
     29       6.0649      0.00000
     30       6.0649      0.00000
     31       8.6742      0.00000
     32       8.6742      0.00000

 k-point     5 :       0.0000    0.1667    0.0000
  band No.  band energies     occupation 
      1     -10.8874      2.00000
      2     -10.5288      2.00000
      3      -9.7665      2.00000
      4      -9.2719      2.00000
      5      -4.9303      2.00000
      6      -4.3769      2.00000
      7      -3.2631      2.00000
      8      -2.8318      2.00000
      9      -1.7144      2.00000
     10      -0.0093      2.00000
     11       0.2340      2.00000
     12       0.4790      2.00000
     13       0.6687      2.00000
     14       0.6693      2.00000
     15       1.3169      2.00000
     16       1.7142      2.00000
     17       1.9235      2.00000
     18       1.9567      2.00000
     19       2.6921      2.00000
     20       3.0194      2.00000
     21       3.8835      0.00000
     22       5.0852      0.00000
     23       5.6956      0.00000
     24       5.9559      0.00000
     25       6.1544      0.00000
     26       6.5112      0.00000
     27       6.8623      0.00000
     28       7.7014      0.00000
     29       7.7395      0.00000
     30       7.9119      0.00000
     31       8.2647      0.00000
     32       8.3038      0.00000

 k-point     6 :       0.1667    0.1667    0.0000
  band No.  band energies     occupation 
      1     -10.7020      2.00000
      2     -10.3573      2.00000
      3      -9.6518      2.00000
      4      -9.2018      2.00000
      5      -5.0934      2.00000
      6      -4.4258      2.00000
      7      -3.3168      2.00000
      8      -3.2718      2.00000
      9      -1.5852      2.00000
     10      -0.6474      2.00000
     11      -0.6249      2.00000
     12       0.3017      2.00000
     13       0.8572      2.00000
     14       0.8931      2.00000
     15       1.1981      2.00000
     16       1.3316      2.00000
     17       2.1070      2.00000
     18       2.1215      2.00000
     19       2.6166      2.00000
     20       2.9096      2.00000
     21       3.9515      0.00000
     22       5.2464      0.00000
     23       5.4977      0.00000
     24       5.6998      0.00000
     25       6.4316      0.00000
     26       6.7460      0.00000
     27       6.8974      0.00000
     28       7.4356      0.00000
     29       7.7443      0.00000
     30       7.9228      0.00000
     31       7.9326      0.00000
     32       8.2088      0.00000

 k-point     7 :       0.1667   -0.1667    0.0000
  band No.  band energies     occupation 
      1     -10.7024      2.00000
      2     -10.3568      2.00000
      3      -9.6512      2.00000
      4      -9.2030      2.00000
      5      -5.0756      2.00000
      6      -4.4447      2.00000
      7      -3.3857      2.00000
      8      -3.1959      2.00000
      9      -1.5956      2.00000
     10      -0.6991      2.00000
     11      -0.5822      2.00000
     12       0.3214      2.00000
     13       0.8407      2.00000
     14       0.8932      2.00000
     15       1.2425      2.00000
     16       1.3087      2.00000
     17       2.0934      2.00000
     18       2.1317      2.00000
     19       2.6435      2.00000
     20       2.8441      2.00000
     21       4.0032      0.00000
     22       5.2146      0.00000
     23       5.4903      0.00000
     24       5.7234      0.00000
     25       6.4243      0.00000
     26       6.7381      0.00000
     27       7.0539      0.00000
     28       7.5606      0.00000
     29       7.6691      0.00000
     30       7.6960      0.00000
     31       7.8139      0.00000
     32       8.2827      0.00000

 k-point     8 :       0.3333    0.1667    0.0000
  band No.  band energies     occupation 
      1     -10.2057      2.00000
      2      -9.9020      2.00000
      3      -9.4669      2.00000
      4      -9.1340      2.00000
      5      -5.4809      2.00000
      6      -4.5640      2.00000
      7      -4.3930      2.00000
      8      -3.7598      2.00000
      9      -1.1577      2.00000
     10      -0.9845      2.00000
     11      -0.8469      2.00000
     12       0.2576      2.00000
     13       0.5179      2.00000
     14       0.9390      2.00000
     15       0.9437      2.00000
     16       1.4652      2.00000
     17       1.5842      2.00000
     18       2.1027      2.00000
     19       2.2299      2.00000
     20       2.4294      2.00000
     21       4.1749      0.00000
     22       4.8870      0.00000
     23       4.9864      0.00000
     24       5.5784      0.00000
     25       5.6509      0.00000
     26       6.0907      0.00000
     27       6.7442      0.00000
     28       7.3736      0.00000
     29       7.5876      0.00000
     30       7.8591      0.00000
     31       8.1268      0.00000
     32       8.4006      0.00000

 k-point     9 :       0.3333   -0.1667    0.0000
  band No.  band energies     occupation 
      1     -10.2070      2.00000
      2      -9.9003      2.00000
      3      -9.4644      2.00000
      4      -9.1380      2.00000
      5      -5.4601      2.00000
      6      -4.5869      2.00000
      7      -4.4089      2.00000
      8      -3.7405      2.00000
      9      -1.1658      2.00000
     10      -0.9549      2.00000
     11      -0.8827      2.00000
     12       0.2851      2.00000
     13       0.5111      2.00000
     14       0.9577      2.00000
     15       0.9784      2.00000
     16       1.4483      2.00000
     17       1.4772      2.00000
     18       2.1706      2.00000
     19       2.3044      2.00000
     20       2.3315      2.00000
     21       4.2029      0.00000
     22       4.9612      0.00000
     23       4.9730      0.00000
     24       5.5500      0.00000
     25       5.7354      0.00000
     26       5.9838      0.00000
     27       6.7155      0.00000
     28       7.3338      0.00000
     29       7.5774      0.00000
     30       7.8086      0.00000
     31       8.2346      0.00000
     32       8.3634      0.00000

 k-point    10 :       0.5000    0.1667    0.0000
  band No.  band energies     occupation 
      1      -9.6462      2.00000
      2      -9.6428      2.00000
      3      -9.3817      2.00000
      4      -9.3771      2.00000
      5      -5.3630      2.00000
      6      -5.3464      2.00000
      7      -4.4083      2.00000
      8      -4.3894      2.00000
      9      -0.6801      2.00000
     10      -0.6597      2.00000
     11      -0.2751      2.00000
     12      -0.2527      2.00000
     13       0.3834      2.00000
     14       0.4015      2.00000
     15       1.0855      2.00000
     16       1.1158      2.00000
     17       1.4097      2.00000
     18       1.5269      2.00000
     19       2.3653      2.00000
     20       2.4592      2.00000
     21       4.3995      0.00000
     22       4.4234      0.00000
     23       5.2105      0.00000
     24       5.2629      0.00000
     25       6.0792      0.00000
     26       6.0900      0.00000
     27       6.2561      0.00000
     28       6.2851      0.00000
     29       7.2128      0.00000
     30       7.2369      0.00000
     31       8.2135      0.00000
     32       8.3223      0.00000

 k-point    11 :       0.0000    0.3333    0.0000
  band No.  band energies     occupation 
      1     -10.5797      2.00000
      2     -10.2327      2.00000
      3      -9.8793      2.00000
      4      -9.4821      2.00000
      5      -5.1980      2.00000
      6      -4.5675      2.00000
      7      -4.2941      2.00000
      8      -3.6488      2.00000
      9      -1.2293      2.00000
     10       0.3759      2.00000
     11       0.6002      2.00000
     12       1.0036      2.00000
     13       1.0423      2.00000
     14       1.2757      2.00000
     15       1.3028      2.00000
     16       1.8111      2.00000
     17       1.9241      2.00000
     18       2.6451      2.00000
     19       2.7326      2.00000
     20       3.3154      1.99480
     21       4.1008      0.00000
     22       4.6982      0.00000
     23       5.0519      0.00000
     24       5.3169      0.00000
     25       5.8597      0.00000
     26       6.1125      0.00000
     27       6.4358      0.00000
     28       6.6255      0.00000
     29       7.0068      0.00000
     30       7.3173      0.00000
     31       8.1399      0.00000
     32       8.4375      0.00000

 k-point    12 :       0.1667    0.3333    0.0000
  band No.  band energies     occupation 
      1     -10.4098      2.00000
      2     -10.0803      2.00000
      3      -9.7580      2.00000
      4      -9.3915      2.00000
      5      -5.1561      2.00000
      6      -4.5256      2.00000
      7      -4.2054      2.00000
      8      -3.7898      2.00000
      9      -1.0610      2.00000
     10      -0.6975      2.00000
     11      -0.5329      2.00000
     12       0.0894      2.00000
     13       0.5494      2.00000
     14       0.6882      2.00000
     15       1.4152      2.00000
     16       1.8741      2.00000
     17       2.2476      2.00000
     18       2.2762      2.00000
     19       2.6260      2.00000
     20       2.8545      2.00000
     21       4.5642      0.00000
     22       5.1474      0.00000
     23       5.4909      0.00000
     24       5.8815      0.00000
     25       5.8918      0.00000
     26       6.4122      0.00000
     27       6.7227      0.00000
     28       7.2312      0.00000
     29       7.6193      0.00000
     30       7.9622      0.00000
     31       8.0041      0.00000
     32       8.0753      0.00000

 k-point    13 :       0.1667   -0.3333    0.0000
  band No.  band energies     occupation 
      1     -10.4107      2.00000
      2     -10.0791      2.00000
      3      -9.7568      2.00000
      4      -9.3937      2.00000
      5      -5.1357      2.00000
      6      -4.5453      2.00000
      7      -4.2189      2.00000
      8      -3.7768      2.00000
      9      -1.0540      2.00000
     10      -0.7384      2.00000
     11      -0.5182      2.00000
     12       0.0993      2.00000
     13       0.5329      2.00000
     14       0.7634      2.00000
     15       1.4291      2.00000
     16       1.7559      2.00000
     17       2.1617      2.00000
     18       2.3286      2.00000
     19       2.7411      2.00000
     20       2.8382      2.00000
     21       4.5508      0.00000
     22       5.1673      0.00000
     23       5.4282      0.00000
     24       5.9166      0.00000
     25       5.9778      0.00000
     26       6.3667      0.00000
     27       6.7945      0.00000
     28       7.3271      0.00000
     29       7.4332      0.00000
     30       7.8282      0.00000
     31       8.0392      0.00000
     32       8.1122      0.00000

 k-point    14 :       0.3333    0.3333    0.0000
  band No.  band energies     occupation 
      1      -9.9735      2.00000
      2      -9.6956      2.00000
      3      -9.5232      2.00000
      4      -9.2381      2.00000
      5      -5.2044      2.00000
      6      -4.4626      2.00000
      7      -4.4089      2.00000
      8      -4.1480      2.00000
      9      -1.4760      2.00000
     10      -1.3365      2.00000
     11      -0.8377      2.00000
     12      -0.5366      2.00000
     13      -0.3184      2.00000
     14       0.2614      2.00000
     15       0.5889      2.00000
     16       1.1287      2.00000
     17       1.2837      2.00000
     18       1.7800      2.00000
     19       2.1820      2.00000
     20       2.5655      2.00000
     21       4.5373      0.00000
     22       5.8188      0.00000
     23       6.1714      0.00000
     24       6.2617      0.00000
     25       6.6690      0.00000
     26       7.1689      0.00000
     27       7.3737      0.00000
     28       7.4566      0.00000
     29       8.0454      0.00000
     30       8.1963      0.00000
     31       8.9451      0.00000
     32       9.3025      0.00000

 k-point    15 :       0.3333   -0.3333    0.0000
  band No.  band energies     occupation 
      1      -9.9765      2.00000
      2      -9.6916      2.00000
      3      -9.5184      2.00000
      4      -9.2451      2.00000
      5      -5.1620      2.00000
      6      -4.5082      2.00000
      7      -4.4690      2.00000
      8      -4.0857      2.00000
      9      -1.4917      2.00000
     10      -1.3288      2.00000
     11      -0.7938      2.00000
     12      -0.5588      2.00000
     13      -0.3547      2.00000
     14       0.3129      2.00000
     15       0.6769      2.00000
     16       1.0040      2.00000
     17       1.1617      2.00000
     18       1.9560      2.00000
     19       2.2925      2.00000
     20       2.3835      2.00000
     21       4.6099      0.00000
     22       5.8442      0.00000
     23       6.1251      0.00000
     24       6.2726      0.00000
     25       6.6802      0.00000
     26       7.2081      0.00000
     27       7.3144      0.00000
     28       7.3391      0.00000
     29       8.0737      0.00000
     30       8.2958      0.00000
     31       8.8661      0.00000
     32       9.2767      0.00000

 k-point    16 :       0.5000    0.3333    0.0000
  band No.  band energies     occupation 
      1      -9.5539      2.00000
      2      -9.5466      2.00000
      3      -9.3229      2.00000
      4      -9.3133      2.00000
      5      -5.1209      2.00000
      6      -5.0776      2.00000
      7      -4.3773      2.00000
      8      -4.3289      2.00000
      9      -1.1439      2.00000
     10      -1.1335      2.00000
     11      -0.9331      2.00000
     12      -0.9156      2.00000
     13      -0.4173      2.00000
     14      -0.4131      2.00000
     15       0.3104      2.00000
     16       0.3355      2.00000
     17       1.1500      2.00000
     18       1.2948      2.00000
     19       2.1155      2.00000
     20       2.2805      2.00000
     21       5.1467      0.00000
     22       5.2768      0.00000
     23       6.7046      0.00000
     24       6.7856      0.00000
     25       6.9750      0.00000
     26       7.0274      0.00000
     27       7.5547      0.00000
     28       7.8093      0.00000
     29       8.2288      0.00000
     30       8.2423      0.00000
     31       8.8289      0.00000
     32       8.8799      0.00000

 k-point    17 :       0.0000    0.5000    0.0000
  band No.  band energies     occupation 
      1     -10.1832      2.00000
      2     -10.1832      2.00000
      3      -9.8386      2.00000
      4      -9.8386      2.00000
      5      -5.0160      2.00000
      6      -5.0160      2.00000
      7      -4.3183      2.00000
      8      -4.3183      2.00000
      9      -0.4730      2.00000
     10      -0.4730      2.00000
     11       1.0344      2.00000
     12       1.0344      2.00000
     13       1.4717      2.00000
     14       1.4717      2.00000
     15       1.8236      2.00000
     16       1.8236      2.00000
     17       2.3280      2.00000
     18       2.3280      2.00000
     19       2.8899      2.00000
     20       2.8899      2.00000
     21       4.6229      0.00000
     22       4.6229      0.00000
     23       5.0817      0.00000
     24       5.0817      0.00000
     25       5.8318      0.00000
     26       5.8318      0.00000
     27       5.9794      0.00000
     28       5.9794      0.00000
     29       6.5819      0.00000
     30       6.5819      0.00000
     31       8.4217      0.00000
     32       8.4217      0.00000

 k-point    18 :       0.1667    0.5000    0.0000
  band No.  band energies     occupation 
      1     -10.0395      2.00000
      2     -10.0382      2.00000
      3      -9.7173      2.00000
      4      -9.7153      2.00000
      5      -4.8980      2.00000
      6      -4.8834      2.00000
      7      -4.3128      2.00000
      8      -4.2998      2.00000
      9      -0.5114      2.00000
     10      -0.4462      2.00000
     11      -0.2056      2.00000
     12      -0.2022      2.00000
     13       0.0731      2.00000
     14       0.1559      2.00000
     15       1.6101      2.00000
     16       1.6983      2.00000
     17       2.2546      2.00000
     18       2.3815      2.00000
     19       2.8512      2.00000
     20       2.9115      2.00000
     21       4.8430      0.00000
     22       4.8521      0.00000
     23       5.6893      0.00000
     24       5.7591      0.00000
     25       6.5036      0.00000
     26       6.5950      0.00000
     27       6.8958      0.00000
     28       6.9779      0.00000
     29       7.3170      0.00000
     30       7.3429      0.00000
     31       7.9710      0.00000
     32       8.0704      0.00000

 k-point    19 :       0.3333    0.5000    0.0000
  band No.  band energies     occupation 
      1      -9.7050      2.00000
      2      -9.7001      2.00000
      3      -9.4460      2.00000
      4      -9.4394      2.00000
      5      -4.7997      2.00000
      6      -4.7298      2.00000
      7      -4.4101      2.00000
      8      -4.3386      2.00000
      9      -1.3680      2.00000
     10      -1.3068      2.00000
     11      -1.1313      2.00000
     12      -1.0885      2.00000
     13      -0.0638      2.00000
     14       0.0325      2.00000
     15       0.2816      2.00000
     16       0.3902      2.00000
     17       1.3831      2.00000
     18       1.5226      2.00000
     19       2.2402      2.00000
     20       2.3931      2.00000
     21       5.4389      0.00000
     22       5.5662      0.00000
     23       6.5898      0.00000
     24       6.6581      0.00000
     25       7.3096      0.00000
     26       7.3367      0.00000
     27       7.8810      0.00000
     28       8.0095      0.00000
     29       8.6501      0.00000
     30       8.7967      0.00000
     31       8.8766      0.00000
     32       8.9669      0.00000

 k-point    20 :       0.5000    0.5000    0.0000
  band No.  band energies     occupation 
      1      -9.5041      2.00000
      2      -9.4944      2.00000
      3      -9.2944      2.00000
      4      -9.2819      2.00000
      5      -4.9626      2.00000
      6      -4.8891      2.00000
      7      -4.4110      2.00000
      8      -4.3310      2.00000
      9      -1.3796      2.00000
     10      -1.2967      2.00000
     11      -1.2966      2.00000
     12      -1.2269      2.00000
     13      -0.5271      2.00000
     14      -0.4068      2.00000
     15      -0.3602      2.00000
     16      -0.2340      2.00000
     17       1.2150      2.00000
     18       1.4698      2.00000
[...]
     32       7.9054      0.00000

 k-point    32 :       0.1667    0.3333    0.5000
  band No.  band energies     occupation 
      1     -10.2874      2.00000
      2     -10.2874      2.00000
      3      -9.5326      2.00000
      4      -9.5326      2.00000
      5      -4.8893      2.00000
      6      -4.8893      2.00000
      7      -3.9885      2.00000
      8      -3.9885      2.00000
      9      -0.8153      2.00000
     10      -0.8153      2.00000
     11      -0.0404      2.00000
     12      -0.0404      2.00000
     13       0.4509      2.00000
     14       0.4509      2.00000
     15       1.5707      2.00000
     16       1.5707      2.00000
     17       2.3017      2.00000
     18       2.3017      2.00000
     19       2.4887      2.00000
     20       2.4887      2.00000
     21       5.2727      0.00000
     22       5.2727      0.00000
     23       5.6945      0.00000
     24       5.6945      0.00000
     25       6.3136      0.00000
     26       6.3136      0.00000
     27       6.8197      0.00000
     28       6.8197      0.00000
     29       7.4260      0.00000
     30       7.4260      0.00000
     31       8.1660      0.00000
     32       8.1660      0.00000

 k-point    33 :       0.1667   -0.3333    0.5000
  band No.  band energies     occupation 
      1     -10.2875      2.00000
      2     -10.2875      2.00000
      3      -9.5327      2.00000
      4      -9.5327      2.00000
      5      -4.8857      2.00000
      6      -4.8857      2.00000
      7      -3.9924      2.00000
      8      -3.9924      2.00000
      9      -0.8022      2.00000
     10      -0.8022      2.00000
     11      -0.0587      2.00000
     12      -0.0587      2.00000
     13       0.4252      2.00000
     14       0.4252      2.00000
     15       1.6111      2.00000
     16       1.6111      2.00000
     17       2.2660      2.00000
     18       2.2660      2.00000
     19       2.5382      2.00000
     20       2.5382      2.00000
     21       5.1998      0.00000
     22       5.1998      0.00000
     23       5.7139      0.00000
     24       5.7139      0.00000
     25       6.3592      0.00000
     26       6.3592      0.00000
     27       6.8247      0.00000
     28       6.8247      0.00000
     29       7.4523      0.00000
     30       7.4523      0.00000
     31       8.0752      0.00000
     32       8.0752      0.00000

 k-point    34 :       0.3333    0.3333    0.5000
  band No.  band energies     occupation 
      1      -9.8745      2.00000
      2      -9.8745      2.00000
      3      -9.3410      2.00000
      4      -9.3410      2.00000
      5      -4.9577      2.00000
      6      -4.9577      2.00000
      7      -4.1471      2.00000
      8      -4.1471      2.00000
      9      -1.4555      2.00000
     10      -1.4555      2.00000
     11      -0.7798      2.00000
     12      -0.7798      2.00000
     13       0.1344      2.00000
     14       0.1344      2.00000
     15       1.0256      2.00000
     16       1.0256      2.00000
     17       1.3019      2.00000
     18       1.3019      2.00000
     19       2.3281      2.00000
     20       2.3281      2.00000
     21       5.3662      0.00000
     22       5.3662      0.00000
     23       5.8639      0.00000
     24       5.8639      0.00000
     25       7.0952      0.00000
     26       7.0952      0.00000
     27       7.5087      0.00000
     28       7.5087      0.00000
     29       8.0252      0.00000
     30       8.0252      0.00000
     31       9.1912      0.00000
     32       9.1912      0.00000

 k-point    35 :       0.3333   -0.3333    0.5000
  band No.  band energies     occupation 
      1      -9.8747      2.00000
      2      -9.8747      2.00000
      3      -9.3410      2.00000
      4      -9.3410      2.00000
      5      -4.9528      2.00000
      6      -4.9528      2.00000
      7      -4.1526      2.00000
      8      -4.1526      2.00000
      9      -1.4494      2.00000
     10      -1.4494      2.00000
     11      -0.7911      2.00000
     12      -0.7911      2.00000
     13       0.1306      2.00000
     14       0.1306      2.00000
     15       0.9978      2.00000
     16       0.9978      2.00000
     17       1.3494      2.00000
     18       1.3494      2.00000
     19       2.3259      2.00000
     20       2.3259      2.00000
     21       5.3570      0.00000
     22       5.3570      0.00000
     23       5.8634      0.00000
     24       5.8634      0.00000
     25       7.1131      0.00000
     26       7.1131      0.00000
     27       7.4527      0.00000
     28       7.4527      0.00000
     29       8.0573      0.00000
     30       8.0573      0.00000
     31       9.1878      0.00000
     32       9.1878      0.00000

 k-point    36 :       0.5000    0.3333    0.5000
  band No.  band energies     occupation 
      1      -9.5488      2.00000
      2      -9.5488      2.00000
      3      -9.3199      2.00000
      4      -9.3199      2.00000
      5      -5.1065      2.00000
      6      -5.1065      2.00000
      7      -4.3335      2.00000
      8      -4.3335      2.00000
      9      -1.2807      2.00000
     10      -1.2807      2.00000
     11      -0.6834      2.00000
     12      -0.6834      2.00000
     13      -0.5847      2.00000
     14      -0.5847      2.00000
     15       0.2678      2.00000
     16       0.2678      2.00000
     17       1.4757      2.00000
     18       1.4757      2.00000
     19       2.1538      2.00000
     20       2.1538      2.00000
     21       4.9586      0.00000
     22       4.9586      0.00000
     23       6.8322      0.00000
     24       6.8322      0.00000
     25       6.9340      0.00000
     26       6.9340      0.00000
     27       7.5376      0.00000
     28       7.5376      0.00000
     29       8.5845      0.00000
     30       8.5845      0.00000
     31       8.7615      0.00000
     32       8.7615      0.00000

 k-point    37 :       0.0000    0.5000    0.5000
  band No.  band energies     occupation 
      1     -10.1791      2.00000
      2     -10.1791      2.00000
      3      -9.8445      2.00000
      4      -9.8445      2.00000
      5      -4.7153      2.00000
      6      -4.7153      2.00000
      7      -4.6906      2.00000
      8      -4.6906      2.00000
      9       0.1159      2.00000
     10       0.1159      2.00000
     11       0.8810      2.00000
     12       0.8810      2.00000
     13       1.0460      2.00000
     14       1.0460      2.00000
     15       1.4696      2.00000
     16       1.4696      2.00000
     17       2.6368      2.00000
     18       2.6368      2.00000
     19       2.8155      2.00000
     20       2.8155      2.00000
     21       4.7520      0.00000
     22       4.7520      0.00000
     23       4.8533      0.00000
     24       4.8533      0.00000
     25       5.9864      0.00000
     26       5.9864      0.00000
     27       6.4320      0.00000
     28       6.4320      0.00000
     29       7.0687      0.00000
     30       7.0687      0.00000
     31       7.5118      0.00000
     32       7.5118      0.00000

 k-point    38 :       0.1667    0.5000    0.5000
  band No.  band energies     occupation 
      1     -10.0352      2.00000
      2     -10.0352      2.00000
      3      -9.7214      2.00000
      4      -9.7214      2.00000
      5      -4.6664      2.00000
      6      -4.6664      2.00000
      7      -4.5757      2.00000
      8      -4.5757      2.00000
      9      -0.5595      2.00000
     10      -0.5595      2.00000
     11      -0.0759      2.00000
     12      -0.0759      2.00000
     13       0.5844      2.00000
     14       0.5844      2.00000
     15       1.1644      2.00000
     16       1.1644      2.00000
     17       2.3238      2.00000
     18       2.3238      2.00000
     19       2.5500      2.00000
     20       2.5500      2.00000
     21       5.5353      0.00000
     22       5.5353      0.00000
     23       5.6180      0.00000
     24       5.6180      0.00000
     25       6.4108      0.00000
     26       6.4108      0.00000
     27       7.0292      0.00000
     28       7.0292      0.00000
     29       7.3812      0.00000
     30       7.3812      0.00000
     31       7.8672      0.00000
     32       7.8672      0.00000

 k-point    39 :       0.3333    0.5000    0.5000
  band No.  band energies     occupation 
      1      -9.7010      2.00000
      2      -9.7010      2.00000
      3      -9.4447      2.00000
      4      -9.4447      2.00000
      5      -4.7965      2.00000
      6      -4.7965      2.00000
      7      -4.3164      2.00000
      8      -4.3164      2.00000
      9      -1.3545      2.00000
     10      -1.3545      2.00000
     11      -1.3244      2.00000
     12      -1.3244      2.00000
     13       0.1259      2.00000
     14       0.1259      2.00000
     15       0.6192      2.00000
     16       0.6192      2.00000
     17       1.5097      2.00000
     18       1.5097      2.00000
     19       2.0050      2.00000
     20       2.0050      2.00000
     21       5.2952      0.00000
     22       5.2952      0.00000
     23       6.9292      0.00000
     24       6.9292      0.00000
     25       7.3762      0.00000
     26       7.3762      0.00000
     27       7.7734      0.00000
     28       7.7734      0.00000
     29       8.8549      0.00000
     30       8.8549      0.00000
     31       8.9226      0.00000
     32       8.9226      0.00000

 k-point    40 :       0.5000    0.5000    0.5000
  band No.  band energies     occupation 
      1      -9.5005      2.00000
      2      -9.5005      2.00000
      3      -9.2864      2.00000
      4      -9.2864      2.00000
      5      -5.0016      2.00000
      6      -5.0016      2.00000
      7      -4.2447      2.00000
      8      -4.2447      2.00000
      9      -1.5717      2.00000
     10      -1.5717      2.00000
     11      -0.9871      2.00000
     12      -0.9871      2.00000
     13      -0.8177      2.00000
     14      -0.8177      2.00000
     15      -0.2138      2.00000
     16      -0.2138      2.00000
     17       1.6332      2.00000
     18       1.6332      2.00000
     19       2.1364      2.00000
     20       2.1364      2.00000
     21       4.6926      0.00000
     22       4.6926      0.00000
     23       7.4587      0.00000
     24       7.4587      0.00000
     25       7.8009      0.00000
     26       7.8009      0.00000
     27       8.0371      0.00000
     28       8.0371      0.00000
     29       8.8792      0.00000
     30       8.8792      0.00000
     31       9.7150      0.00000
     32       9.7150      0.00000


--------------------------------------------------------------------------------------------------------


 soft charge-density along one line, spin component            1
         0         1         2         3         4         5         6         7         8         9
 total charge-density along one line
 
 pseudopotential strength for first ion, spin component:            1
 14.515  18.109   0.042   0.045   0.000   0.075   0.082   0.001
 18.109  22.607   0.053   0.057   0.001   0.095   0.103   0.001
  0.042   0.053   3.224  -0.003  -0.000   5.488  -0.004  -0.000
  0.045   0.057  -0.003   3.222  -0.000  -0.004   5.485  -0.000
  0.000   0.001  -0.000  -0.000   3.225  -0.000  -0.000   5.490
  0.075   0.095   5.488  -0.004  -0.000   9.400  -0.008  -0.000
  0.082   0.103  -0.004   5.485  -0.000  -0.008   9.394  -0.000
  0.001   0.001  -0.000  -0.000   5.490  -0.000  -0.000   9.404
 -0.000  -0.000   0.000   0.000   0.007   0.000   0.000   0.013
 -0.006  -0.007   0.011   0.013   0.000   0.021   0.024   0.000
 -0.003  -0.004  -0.004   0.012  -0.000  -0.007   0.022  -0.000
 -0.000  -0.000   0.000   0.000   0.012   0.000   0.000   0.021
  0.002   0.002  -0.013   0.000   0.000  -0.022   0.000   0.000
 total augmentation occupancy for first ion, spin component:            1
  2.728  -0.702   0.365   0.363   0.001  -0.071  -0.064   0.000  -0.001  -0.012  -0.005  -0.001   0.008
 -0.702   0.674  -0.449  -0.482  -0.003   0.073   0.073   0.000   0.001   0.002   0.007   0.002  -0.006
  0.365  -0.449   1.230   0.047   0.001  -0.202   0.005  -0.000  -0.000   0.046  -0.098  -0.000   0.001
  0.363  -0.482   0.047   1.298   0.001   0.004  -0.209   0.000   0.001  -0.009   0.097   0.000  -0.001
  0.001  -0.003   0.001   0.001   1.237  -0.000   0.000  -0.213   0.147   0.000   0.000   0.041   0.000
 -0.071   0.073  -0.202   0.004  -0.000   0.037  -0.003  -0.000   0.000  -0.007   0.016   0.000   0.000
 -0.064   0.073   0.005  -0.209   0.000  -0.003   0.038  -0.000  -0.000   0.001  -0.017  -0.000   0.000
  0.000   0.000  -0.000   0.000  -0.213  -0.000  -0.000   0.041  -0.026  -0.000  -0.000  -0.007  -0.000
 -0.001   0.001  -0.000   0.001   0.147   0.000  -0.000  -0.026   0.031   0.000  -0.000   0.003  -0.000
 -0.012   0.002   0.046  -0.009   0.000  -0.007   0.001  -0.000   0.000   0.012  -0.007   0.000   0.001
 -0.005   0.007  -0.098   0.097   0.000   0.016  -0.017  -0.000  -0.000  -0.007   0.030  -0.000  -0.002
 -0.001   0.002  -0.000   0.000   0.041   0.000  -0.000  -0.007   0.003   0.000  -0.000   0.010  -0.000
  0.008  -0.006   0.001  -0.001   0.000   0.000   0.000  -0.000  -0.000   0.001  -0.002  -0.000   0.009


------------------------ aborting loop because EDIFF is reached ----------------------------------------


    CHARGE:  cpu time      0.0087: real time      0.0087
    FORLOC:  cpu time      0.0004: real time      0.0004
    FORNL :  cpu time      0.0523: real time      0.0524
    STRESS:  cpu time      0.4584: real time      0.4606
    FORCOR:  cpu time      0.0091: real time      0.0092
    FORHAR:  cpu time      0.0022: real time      0.0022
    MIXING:  cpu time      0.0027: real time      0.0027
    OFIELD:  cpu time      0.0000: real time      0.0000

  FORCE on cell =-STRESS in cart. coord.  units (eV):
  Direction    XX          YY          ZZ          XY          YZ          ZX
  --------------------------------------------------------------------------------------
  Alpha Z    87.52689    87.52689    87.52689
  Ewald    -427.99804  -502.31794  -486.05930     0.55809    -0.00000     0.00000
  Hartree    67.64162    34.58920    37.03131     0.33591    -0.00000     0.00000
  E(xc)    -141.15218  -141.26488  -141.37616     0.00093    -0.00000     0.00000
  Local    -204.24718  -103.64975  -124.17516    -0.98501     0.00000    -0.00000
  n-local   240.39492   240.14491   241.47186     0.02663     0.00000    -0.00000
  augment   -11.34715   -11.83371   -12.03629    -0.00269    -0.00000     0.00000
  Kinetic   390.80002   397.62844   399.34693    -0.04652    -0.00000    -0.00000
  Fock        0.00000     0.00000     0.00000     0.00000     0.00000     0.00000
  -------------------------------------------------------------------------------------
  Total       1.61890     0.82316     1.73009    -0.11266     0.00000    -0.00000
  in kB      13.39813     6.81252    14.31833    -0.93237     0.00000    -0.00000
  external pressure =       11.51 kB  Pullay stress =        0.00 kB


 VOLUME and BASIS-vectors are now :
 -----------------------------------------------------------------------------
  energy-cutoff  :      520.00
  volume of cell :      193.59
      direct lattice vectors                 reciprocal lattice vectors
     3.858100176  0.000000000  0.000000000     0.259194929  0.000000000  0.000000000
     0.000000000  4.526575088  0.000000000     0.000000000  0.220917577  0.000000000
     0.000000000  0.000000000 11.085176468     0.000000000  0.000000000  0.090210562

  length of vectors
     3.858100176  4.526575088 11.085176468     0.259194929  0.220917577  0.090210562


 FORCES acting on ions
    electron-ion (+dipol)            ewald-force                    non-local-force                 convergence-correction
 -----------------------------------------------------------------------------------------------
   0.203E+00 0.188E+02 0.240E+02   -.247E+00 -.213E+02 -.268E+02   0.488E-01 0.237E+01 0.306E+01   -.119E-04 -.274E-03 -.127E-02
   0.203E+00 0.188E+02 -.240E+02   -.247E+00 -.213E+02 0.268E+02   0.488E-01 0.237E+01 -.306E+01   -.117E-04 -.277E-03 0.127E-02
   -.203E+00 -.188E+02 -.240E+02   0.247E+00 0.213E+02 0.268E+02   -.488E-01 -.237E+01 -.306E+01   0.120E-04 0.276E-03 0.127E-02
   -.203E+00 -.188E+02 0.240E+02   0.247E+00 0.213E+02 -.268E+02   -.488E-01 -.237E+01 0.306E+01   0.124E-04 0.275E-03 -.127E-02
   0.215E+00 -.197E+02 -.235E+02   -.207E+00 0.212E+02 0.250E+02   -.468E-01 -.134E+01 -.163E+01   0.526E-04 0.676E-03 0.273E-02
   0.215E+00 -.197E+02 0.235E+02   -.207E+00 0.212E+02 -.250E+02   -.468E-01 -.134E+01 0.163E+01   0.529E-04 0.676E-03 -.272E-02
   -.215E+00 0.197E+02 0.235E+02   0.207E+00 -.212E+02 -.250E+02   0.468E-01 0.134E+01 0.163E+01   -.544E-04 -.677E-03 -.273E-02
   -.215E+00 0.197E+02 -.235E+02   0.207E+00 -.212E+02 0.250E+02   0.468E-01 0.134E+01 -.163E+01   -.537E-04 -.677E-03 0.272E-02
 -----------------------------------------------------------------------------------------------
   -.109E-04 0.103E-04 0.179E-05   -.366E-14 0.355E-14 0.711E-14   -.192E-03 0.409E-03 0.930E-06   -.178E-05 -.169E-05 -.839E-07
 
 
 POSITION                                       TOTAL-FORCE (eV/Angst)
 -----------------------------------------------------------------------------------
      3.03336      2.09104      1.36328         0.005710     -0.177795      0.223134
      1.10431      4.35432      4.17930         0.005710     -0.177796     -0.223133
      2.89358      4.01000      9.72189        -0.005691      0.177626     -0.223132
      0.96453      1.74671      6.90587        -0.005691      0.177626      0.223132
      3.03336      1.54418      3.90621        -0.039172      0.168370     -0.075667
      1.10431      3.80747      1.63637        -0.039172      0.168370      0.075667
      2.89358      0.03028      7.17896         0.039154     -0.168201      0.075693
      0.96453      2.29357      9.44880         0.039154     -0.168201     -0.075694
 -----------------------------------------------------------------------------------
    total drift:                               -0.000205      0.000418      0.000003


--------------------------------------------------------------------------------------------------------



  FREE ENERGIE OF THE ION-ELECTRON SYSTEM (eV)
  ---------------------------------------------------
  free  energy   TOTEN  =       -33.57875968 eV

  energy  without entropy=      -33.57872854  energy(sigma->0) =      -33.57874411
 


--------------------------------------------------------------------------------------------------------


    POTLOK:  cpu time      0.2275: real time      0.2284


--------------------------------------------------------------------------------------------------------


     LOOP+:  cpu time      7.9931: real time      8.0325
    4ORBIT:  cpu time      0.0000: real time      0.0000

 total amount of memory used by VASP MPI-rank0    41770. kBytes
=======================================================================

   base      :      30000. kBytes
   nonl-proj :       9056. kBytes
   fftplans  :        519. kBytes
   grid      :        766. kBytes
   one-center:         16. kBytes
   wavefun   :       1413. kBytes
 
  
  
 General timing and accounting informations for this job:
 ========================================================
  
                  Total CPU time used (sec):        9.796
                            User time (sec):        9.460
                          System time (sec):        0.336
                         Elapsed time (sec):       10.105
  
                   Maximum memory used (kb):      181336.
                   Average memory used (kb):          N/A
  
                          Minor page faults:        21284
                          Major page faults:           68
                 Voluntary context switches:         2013
