 running  128 mpi-ranks, with    1 threads/rank, on    2 nodes
 distrk:  each k-point on   64 cores,    2 groups
 distr:  one band on    8 cores,    8 groups
 vasp.6.4.2 20Jul23 (build Oct 12 2023 10:31:02) complex                         
 POSCAR found type information on POSCAR GeSe
 POSCAR found :  2 types and      72 ions
 Reading from existing POTCAR
 -----------------------------------------------------------------------------
|                                                                             |
|           W    W    AA    RRRRR   N    N  II  N    N   GGGG   !!!           |
|           W    W   A  A   R    R  NN   N  II  NN   N  G    G  !!!           |
|           W    W  A    A  R    R  N N  N  II  N N  N  G       !!!           |
|           W WW W  AAAAAA  RRRRR   N  N N  II  N  N N  G  GGG   !            |
|           WW  WW  A    A  R   R   N   NN  II  N   NN  G    G                |
|           W    W  A    A  R    R  N    N  II  N    N   GGGG   !!!           |
|                                                                             |
|     You use a magnetic or noncollinear calculation, but did not specify     |
|     the initial magnetic moment with the MAGMOM tag. Note that a            |
|     default of 1 will be used for all atoms. This ferromagnetic setup       |
|     may break the symmetry of the crystal, in particular it may rule        |
|     out finding an antiferromagnetic solution. Thence, we recommend         |
|     setting the initial magnetic moment manually or verifying carefully     |
|     that this magnetic setup is desired.                                    |
|                                                                             |
 -----------------------------------------------------------------------------

 scaLAPACK will be used
 Reading from existing POTCAR
 -----------------------------------------------------------------------------
|                                                                             |
|               ----> ADVICE to this user running VASP <----                  |
|                                                                             |
|     You have a (more or less) 'large supercell' and for larger cells it     |
|     might be more efficient to use real-space projection operators.         |
|     Therefore, try LREAL= Auto in the INCAR file.                           |
|     Mind: For very accurate calculation, you might also keep the            |
|     reciprocal projection scheme (i.e. LREAL=.FALSE.).                      |
|                                                                             |
 -----------------------------------------------------------------------------

 LDA part: xc-table for Pade appr. of Perdew
 -----------------------------------------------------------------------------
|                                                                             |
|           W    W    AA    RRRRR   N    N  II  N    N   GGGG   !!!           |
|           W    W   A  A   R    R  NN   N  II  NN   N  G    G  !!!           |
|           W    W  A    A  R    R  N N  N  II  N N  N  G       !!!           |
|           W WW W  AAAAAA  RRRRR   N  N N  II  N  N N  G  GGG   !            |
|           WW  WW  A    A  R   R   N   NN  II  N   NN  G    G                |
|           W    W  A    A  R    R  N    N  II  N    N   GGGG   !!!           |
|                                                                             |
|     The number of bands has been changed from the values supplied in        |
|     the INCAR file. This is a result of running the parallel version.       |
|     The orbitals not found in the WAVECAR file will be initialized with     |
|     random numbers, which is usually adequate. For correlated               |
|     calculations, however, you should redo the groundstate calculation.     |
|     I found NBANDS = 220. Now, NBANDS = 224.                                |
|                                                                             |
 -----------------------------------------------------------------------------

 POSCAR, INCAR and KPOINTS ok, starting setup
 FFT: planning ... GRIDC
 FFT: planning ... GRID_SOFT
 FFT: planning ... GRID
 WAVECAR not read
 WARNING: random wavefunctions but no delay for mixing, default for NELMDL
 entering main loop
       N       E                     dE             d eps       ncg     rms          rms(c)
DAV:   1     0.180949500491E+04    0.18095E+04   -0.14163E+05  7168   0.135E+03
DAV:   2    -0.649361765735E+02   -0.18744E+04   -0.18004E+04  8488   0.204E+02
DAV:   3    -0.281965908845E+03   -0.21703E+03   -0.21115E+03  8584   0.690E+01
DAV:   4    -0.289996139134E+03   -0.80302E+01   -0.79460E+01  8848   0.131E+01
DAV:   5    -0.290267901073E+03   -0.27176E+00   -0.27095E+00  9024   0.208E+00    0.289E+01
DAV:   6    -0.289547920051E+03    0.71998E+00   -0.27230E+01  8000   0.775E+00    0.171E+01
DAV:   7    -0.296995843163E+03   -0.74479E+01   -0.87938E+00  8024   0.451E+00    0.911E+00
DAV:   8    -0.300265088833E+03   -0.32692E+01   -0.17097E+00  8112   0.225E+00    0.334E+00
DAV:   9    -0.300673872788E+03   -0.40878E+00   -0.44844E-01  9088   0.104E+00    0.149E+00
DAV:  10    -0.300775855123E+03   -0.10198E+00   -0.89947E-02  8144   0.456E-01    0.740E-01
DAV:  11    -0.300808698739E+03   -0.32844E-01   -0.39540E-02  9024   0.294E-01    0.287E-01
DAV:  12    -0.300811925786E+03   -0.32270E-02   -0.45766E-03  8472   0.124E-01    0.111E-01
DAV:  13    -0.300812051354E+03   -0.12557E-03   -0.77070E-04  9808   0.421E-02    0.463E-02
DAV:  14    -0.300812071065E+03   -0.19711E-04   -0.10100E-04  8312   0.195E-02    0.181E-02
DAV:  15    -0.300812074271E+03   -0.32057E-05   -0.19392E-05  8760   0.890E-03    0.828E-03
DAV:  16    -0.300812075046E+03   -0.77518E-06   -0.18201E-06  5032   0.292E-03
   1 F= -.30081208E+03 E0= -.30081208E+03  d E =-.143001E-13  mag=     0.0003
