 vasp.6.4.2 20Jul23 (build Oct 12 2023 10:31:02) complex                         
 executed on              LinuxNV date 2025.05.18  00:20:39
 running  160 mpi-ranks, with    1 threads/rank, on   10 nodes
 distrk:  each k-point on   80 cores,    2 groups
 distr:  one band on NCORE=   5 cores,   16 groups


--------------------------------------------------------------------------------------------------------


 INCAR:
   ENCUT = 520.000000
   SIGMA = 0.050000
   EDIFF = 1.00e-06
   ALGO = Normal
   GGA = PE
   PREC = Normal
   SYSTEM = ./
   ICHARG = 2
   ISMEAR = 0
   ISPIN = 1
   ISTART = 0
   ISYM = 0
   KPAR = 2
   LMAXMIX = 4
   NELM = 100
   NPAR = 16
   LASPH = .TRUE.
   LCHARG = .FALSE.
   LWAVE = .FALSE.

 POTCAR:    PAW_PBE Ge 05Jan2001                  
 POTCAR:    PAW_PBE Se 06Sep2000                  
 POTCAR:    PAW_PBE Ge 05Jan2001                  
   VRHFIN =Ge: s2p2                                                                                 
   LEXCH  = PE                                                                                      
   EATOM  =   104.9960 eV,    7.7170 Ry                                                             
                                                                                                    
   TITEL  = PAW_PBE Ge 05Jan2001                                                                    
   LULTRA =        F    use ultrasoft PP ?                                                          
   IUNSCR =        1    unscreen: 0-lin 1-nonlin 2-no                                               
   RPACOR =    2.170    partial core radius                                                         
   POMASS =   72.610; ZVAL   =    4.000    mass and valenz                                          
   RCORE  =    2.300    outmost cutoff radius                                                       
   RWIGS  =    2.300; RWIGS  =    1.217    wigner-seitz radius (au A)                               
   ENMAX  =  173.807; ENMIN  =  130.355 eV                                                          
   ICORE  =        3    local potential                                                             
   LCOR   =        T    correct aug charges                                                         
   LPAW   =        T    paw PP                                                                      
   EAUG   =  385.843                                                                                
   DEXC   =    0.000                                                                                
   RMAX   =    2.342    core radius for proj-oper                                                   
   RAUG   =    1.300    factor for augmentation sphere                                              
   RDEP   =    2.318    radius for radial grids                                                     
   RDEPT  =    2.103    core radius for aug-charge                                                  
                                                                                                    
   Atomic configuration                                                                             
   10 entries                                                                                       
     n  l   j            E        occ.                                                              
     1  0  0.50    -10959.8463   2.0000                                                             
     2  0  0.50     -1371.6056   2.0000                                                             
     2  1  1.50     -1198.4791   6.0000                                                             
     3  0  0.50      -168.4733   2.0000                                                             
     3  1  1.50      -115.6019   6.0000                                                             
     3  2  2.50       -29.3106  10.0000                                                             
     4  0  0.50       -11.7309   2.0000                                                             
     4  1  0.50        -3.8952   2.0000                                                             
     4  2  1.50        -4.0817   0.0000                                                             
     4  3  2.50        -4.0817   0.0000                                                             
   Description                                                                                      
     l       E           TYP  RCUT    TYP  RCUT                                                     
     0    -11.7309493     23  2.300                                                                 
     0     -7.4578696     23  2.300                                                                 
     1     -3.8952261     23  2.300                                                                 
     1      6.1178114     23  2.300                                                                 
     2     -4.0817478     23  2.300                                                                 
     3     -1.3605826      7  2.300                                                                 
  local pseudopotential read in
  partial core-charges read in
  partial kinetic energy density read in
  atomic valenz-charges read in
  non local Contribution for L=            0  read in
    real space projection operators read in
  non local Contribution for L=            0  read in
    real space projection operators read in
  non local Contribution for L=            1  read in
    real space projection operators read in
  non local Contribution for L=            1  read in
    real space projection operators read in
  non local Contribution for L=            2  read in
    real space projection operators read in
    PAW grid and wavefunctions read in
 
   number of l-projection  operators is LMAX  =            5
   number of lm-projection operators is LMMAX =           13
 
 POTCAR:    PAW_PBE Se 06Sep2000                  
   VRHFIN =Se: s2p4                                                                                 
   LEXCH  = PE                                                                                      
   EATOM  =   257.1286 eV,   18.8984 Ry                                                             
                                                                                                    
   TITEL  = PAW_PBE Se 06Sep2000                                                                    
   LULTRA =        F    use ultrasoft PP ?                                                          
   IUNSCR =        1    unscreen: 0-lin 1-nonlin 2-no                                               
   RPACOR =    1.900    partial core radius                                                         
   POMASS =   78.960; ZVAL   =    6.000    mass and valenz                                          
   RCORE  =    2.100    outmost cutoff radius                                                       
   RWIGS  =    2.200; RWIGS  =    1.164    wigner-seitz radius (au A)                               
   ENMAX  =  211.555; ENMIN  =  158.666 eV                                                          
   ICORE  =        3    local potential                                                             
   LCOR   =        T    correct aug charges                                                         
   LPAW   =        T    paw PP                                                                      
   EAUG   =  446.842                                                                                
   DEXC   =    0.000                                                                                
   RMAX   =    2.147    core radius for proj-oper                                                   
   RAUG   =    1.300    factor for augmentation sphere                                              
   RDEP   =    2.177    radius for radial grids                                                     
   RDEPT  =    1.928    core radius for aug-charge                                                  
                                                                                                    
   Atomic configuration                                                                             
   10 entries                                                                                       
     n  l   j            E        occ.                                                              
     1  0  0.50    -12503.4787   2.0000                                                             
     2  0  0.50     -1606.9547   2.0000                                                             
     2  1  1.50     -1413.3140   6.0000                                                             
     3  0  0.50      -213.4885   2.0000                                                             
     3  1  1.50      -152.9538   6.0000                                                             
     3  2  2.50       -53.1221  10.0000                                                             
     4  0  0.50       -17.2865   2.0000                                                             
     4  1  0.50        -6.5110   4.0000                                                             
     4  2  2.50        -6.8029   0.0000                                                             
     4  3  2.50        -6.8029   0.0000                                                             
   Description                                                                                      
     l       E           TYP  RCUT    TYP  RCUT                                                     
     0    -17.2865377     23  2.100                                                                 
     0    -15.3094411     23  2.100                                                                 
     1     -6.5110275     23  2.100                                                                 
     1     -0.0695192     23  2.100                                                                 
     2     -6.8029130     23  2.100                                                                 
     3     -1.3605826      7  2.100                                                                 
  local pseudopotential read in
  partial core-charges read in
  partial kinetic energy density read in
  atomic valenz-charges read in
  non local Contribution for L=            0  read in
    real space projection operators read in
  non local Contribution for L=            0  read in
    real space projection operators read in
  non local Contribution for L=            1  read in
    real space projection operators read in
  non local Contribution for L=            1  read in
    real space projection operators read in
  non local Contribution for L=            2  read in
    real space projection operators read in
    PAW grid and wavefunctions read in
 
   number of l-projection  operators is LMAX  =            5
   number of lm-projection operators is LMMAX =           13
 
  PAW_PBE Ge 05Jan2001                  :
 energy of atom  1       EATOM= -104.9960
 kinetic energy error for atom=    0.0002 (will be added to EATOM!!)
  PAW_PBE Se 06Sep2000                  :
 energy of atom  2       EATOM= -257.1286
 kinetic energy error for atom=    0.0007 (will be added to EATOM!!)
 
 
 POSCAR: Ge Se
  positions in cartesian coordinates
  No initial velocities read in
 exchange correlation table for  LEXCH =        8
   RHO(1)=    0.500       N(1)  =     2000
   RHO(2)=  100.500       N(2)  =     4000
 


--------------------------------------------------------------------------------------------------------


 ion  position               nearest neighbor table
   1  0.279  0.100  0.123-   6 2.60   6 2.60   5 2.60
   2  0.779  0.600  0.377-   5 2.60   5 2.60   6 2.60
   3  0.750  0.886  0.877-   8 2.60   8 2.60   7 2.60
   4  0.250  0.386  0.623-   7 2.60   7 2.60   8 2.60
   5  0.279  0.979  0.352-   2 2.60   2 2.60   1 2.60
   6  0.779  0.479  0.148-   1 2.60   1 2.60   2 2.60
   7  0.750  0.007  0.648-   4 2.60   4 2.60   3 2.60
   8  0.250  0.507  0.852-   3 2.60   3 2.60   4 2.60
 

IMPORTANT INFORMATION: All symmetrisations will be switched off!
NOSYMM: (Re-)initialisation of all symmetry stuff for point group C_1.


----------------------------------------------------------------------------------------

                                     Primitive cell                                     

  volume of cell :     193.5913

  direct lattice vectors                    reciprocal lattice vectors
     3.858100176  0.000000000  0.000000000     0.259194929  0.000000000  0.000000000
     0.000000000  4.526575088  0.000000000     0.000000000  0.220917577  0.000000000
     0.000000000  0.000000000 11.085176468     0.000000000  0.000000000  0.090210562

  length of vectors
     3.858100176  4.526575088 11.085176468     0.259194929  0.220917577  0.090210562

  position of ions in fractional coordinates (direct lattice)
     0.278985507  0.099627681  0.122982664
     0.778985507  0.599627681  0.377017336
     0.750000000  0.885879566  0.877017336
     0.250000000  0.385879566  0.622982664
     0.278985507  0.978817135  0.352381810
     0.778985507  0.478817135  0.147618190
     0.750000000  0.006690111  0.647618190
     0.250000000  0.506690111  0.852381810

  ion indices of the primitive-cell ions
   primitive index   ion index
                 1           1
                 2           2
                 3           3
                 4           4
                 5           5
                 6           6
                 7           7
                 8           8

----------------------------------------------------------------------------------------

 
 
 KPOINTS: KPOINTS created by Atomic Simulation Env

Automatic generation of k-mesh.
 Grid dimensions read from file:
 generate k-points for:    6    6    2

 Generating k-lattice:

  Cartesian coordinates                     Fractional coordinates (reciprocal lattice)
     0.043199155  0.000000000  0.000000000     0.166666667  0.000000000  0.000000000
     0.000000000  0.036819596  0.000000000     0.000000000  0.166666667  0.000000000
     0.000000000  0.000000000  0.045105281     0.000000000  0.000000000  0.500000000

  Length of vectors
     0.043199155  0.036819596  0.045105281

  Shift w.r.t. Gamma in fractional coordinates (k-lattice)
     0.000000000  0.000000000  0.000000000

 
 Subroutine IBZKPT returns following result:
 ===========================================
 
 Found     40 irreducible k-points:
 
 Following reciprocal coordinates:
            Coordinates               Weight
  0.000000  0.000000  0.000000      1.000000
  0.166667  0.000000  0.000000      2.000000
  0.333333  0.000000  0.000000      2.000000
  0.500000  0.000000  0.000000      1.000000
  0.000000  0.166667  0.000000      2.000000
  0.166667  0.166667  0.000000      2.000000
  0.166667 -0.166667  0.000000      2.000000
  0.333333  0.166667  0.000000      2.000000
  0.333333 -0.166667  0.000000      2.000000
  0.500000  0.166667  0.000000      2.000000
  0.000000  0.333333  0.000000      2.000000
  0.166667  0.333333  0.000000      2.000000
  0.166667 -0.333333  0.000000      2.000000
  0.333333  0.333333  0.000000      2.000000
  0.333333 -0.333333  0.000000      2.000000
  0.500000  0.333333  0.000000      2.000000
  0.000000  0.500000  0.000000      1.000000
  0.166667  0.500000  0.000000      2.000000
  0.333333  0.500000  0.000000      2.000000
  0.500000  0.500000  0.000000      1.000000
  0.000000  0.000000  0.500000      1.000000
  0.166667  0.000000  0.500000      2.000000
  0.333333  0.000000  0.500000      2.000000
  0.500000  0.000000  0.500000      1.000000
  0.000000  0.166667  0.500000      2.000000
  0.166667  0.166667  0.500000      2.000000
  0.166667 -0.166667  0.500000      2.000000
  0.333333  0.166667  0.500000      2.000000
  0.333333 -0.166667  0.500000      2.000000
  0.500000  0.166667  0.500000      2.000000
  0.000000  0.333333  0.500000      2.000000
  0.166667  0.333333  0.500000      2.000000
  0.166667 -0.333333  0.500000      2.000000
  0.333333  0.333333  0.500000      2.000000
  0.333333 -0.333333  0.500000      2.000000
  0.500000  0.333333  0.500000      2.000000
  0.000000  0.500000  0.500000      1.000000
  0.166667  0.500000  0.500000      2.000000
  0.333333  0.500000  0.500000      2.000000
  0.500000  0.500000  0.500000      1.000000
 
 Following cartesian coordinates:
            Coordinates               Weight
  0.000000  0.000000  0.000000      1.000000
  0.043199  0.000000  0.000000      2.000000
  0.086398  0.000000  0.000000      2.000000
  0.129597  0.000000  0.000000      1.000000
  0.000000  0.036820  0.000000      2.000000
  0.043199  0.036820  0.000000      2.000000
  0.043199 -0.036820  0.000000      2.000000
  0.086398  0.036820  0.000000      2.000000
  0.086398 -0.036820  0.000000      2.000000
  0.129597  0.036820  0.000000      2.000000
  0.000000  0.073639  0.000000      2.000000
  0.043199  0.073639  0.000000      2.000000
  0.043199 -0.073639  0.000000      2.000000
  0.086398  0.073639  0.000000      2.000000
  0.086398 -0.073639  0.000000      2.000000
  0.129597  0.073639  0.000000      2.000000
  0.000000  0.110459  0.000000      1.000000
  0.043199  0.110459  0.000000      2.000000
  0.086398  0.110459  0.000000      2.000000
  0.129597  0.110459  0.000000      1.000000
  0.000000  0.000000  0.045105      1.000000
  0.043199  0.000000  0.045105      2.000000
  0.086398  0.000000  0.045105      2.000000
  0.129597  0.000000  0.045105      1.000000
  0.000000  0.036820  0.045105      2.000000
  0.043199  0.036820  0.045105      2.000000
  0.043199 -0.036820  0.045105      2.000000
  0.086398  0.036820  0.045105      2.000000
  0.086398 -0.036820  0.045105      2.000000
  0.129597  0.036820  0.045105      2.000000
  0.000000  0.073639  0.045105      2.000000
  0.043199  0.073639  0.045105      2.000000
  0.043199 -0.073639  0.045105      2.000000
  0.086398  0.073639  0.045105      2.000000
  0.086398 -0.073639  0.045105      2.000000
  0.129597  0.073639  0.045105      2.000000
  0.000000  0.110459  0.045105      1.000000
  0.043199  0.110459  0.045105      2.000000
  0.086398  0.110459  0.045105      2.000000
  0.129597  0.110459  0.045105      1.000000
 


--------------------------------------------------------------------------------------------------------




 Dimension of arrays:
   k-points           NKPTS =     40   k-points in BZ     NKDIM =     40   number of bands    NBANDS=     32
   number of dos      NEDOS =    301   number of ions     NIONS =      8
   non local maximal  LDIM  =      5   non local SUM 2l+1 LMDIM =     13
   total plane-waves  NPLWV =  43008
   max r-space proj   IRMAX =      1   max aug-charges    IRDMAX=  12272
   dimension x,y,z NGX =    24 NGY =   28 NGZ =   64
   dimension x,y,z NGXF=    48 NGYF=   56 NGZF=  128
   support grid    NGXF=    48 NGYF=   56 NGZF=  128
   ions per type =               4   4
   NGX,Y,Z   is equivalent  to a cutoff of  10.34, 10.28,  9.60 a.u.
   NGXF,Y,Z  is equivalent  to a cutoff of  20.68, 20.57, 19.20 a.u.

 SYSTEM =  ./                                      
 POSCAR =  Ge Se                                   

 Startparameter for this run:
   NWRITE =      2    write-flag & timer
   PREC   = normal    normal or accurate (medium, high low for compatibility)
   ISTART =      0    job   : 0-new  1-cont  2-samecut
   ICHARG =      2    charge: 1-file 2-atom 10-const
   ISPIN  =      1    spin polarized calculation?
   LNONCOLLINEAR =      F non collinear calculations
   LSORBIT =      F    spin-orbit coupling
   INIWAV =      1    electr: 0-lowe 1-rand  2-diag
   LASPH  =      T    aspherical Exc in radial PAW
 Electronic Relaxation 1
   ENCUT  =  520.0 eV  38.22 Ry    6.18 a.u.   7.17  8.42 20.61*2*pi/ulx,y,z
   ENINI  =  520.0     initial cutoff
   ENAUG  =  446.8 eV  augmentation charge cutoff
   NELM   =    100;   NELMIN=  2; NELMDL= -5     # of ELM steps 
   EDIFF  = 0.1E-05   stopping-criterion for ELM
   LREAL  =      F    real-space projection
   NLSPLINE    = F    spline interpolate recip. space projectors
   LCOMPAT=      F    compatible to vasp.4.4
   GGA_COMPAT  = T    GGA compatible to vasp.4.4-vasp.4.6
   LMAXPAW     = -100 max onsite density
   LMAXMIX     =    4 max onsite mixed and CHGCAR
   VOSKOWN=      0    Vosko Wilk Nusair interpolation
   ROPT   =    0.00000   0.00000
 Ionic relaxation
   EDIFFG = 0.1E-04   stopping-criterion for IOM
   NSW    =      0    number of steps for IOM
   NBLOCK =      1;   KBLOCK =      1    inner block; outer block 
   IBRION =     -1    ionic relax: 0-MD 1-quasi-New 2-CG
   NFREE  =      0    steps in history (QN), initial steepest desc. (CG)
   ISIF   =      2    stress and relaxation
   IWAVPR =     10    prediction:  0-non 1-charg 2-wave 3-comb
   ISYM   =      0    0-nonsym 1-usesym 2-fastsym
   LCORR  =      T    Harris-Foulkes like correction to forces

   POTIM  = 0.5000    time-step for ionic-motion
   TEIN   =    0.0    initial temperature
   TEBEG  =    0.0;   TEEND  =   0.0 temperature during run
   SMASS  =  -3.00    Nose mass-parameter (am)
   estimated Nose-frequenzy (Omega)   =  0.10E-29 period in steps = 0.13E+47 mass=  -0.340E-27a.u.
   SCALEE = 1.0000    scale energy and forces
   NPACO  =    256;   APACO  = 10.0  distance and # of slots for P.C.
   PSTRESS=    0.0 pullay stress

  Mass of Ions in am
   POMASS =  72.61 78.96
  Ionic Valenz
   ZVAL   =   4.00  6.00
  Atomic Wigner-Seitz radii
   RWIGS  =  -1.00 -1.00
  virtual crystal weights 
   VCA    =   1.00  1.00
   NELECT =      40.0000    total number of electrons
   NUPDOWN=      -1.0000    fix difference up-down

 DOS related values:
   EMIN   =  10.00;   EMAX   =-10.00  energy-range for DOS
   EFERMI =   0.00;   METHOD = LEGACY      
   ISMEAR =     0;   SIGMA  =   0.05  broadening in eV -4-tet -1-fermi 0-gaus

 Electronic relaxation 2 (details)
   IALGO  =     38    algorithm
   LDIAG  =      T    sub-space diagonalisation (order eigenvalues)
   LSUBROT=      F    optimize rotation matrix (better conditioning)
   TURBO    =      0    0=normal 1=particle mesh
   IRESTART =      0    0=no restart 2=restart with 2 vectors
   NREBOOT  =      0    no. of reboots
   NMIN     =      0    reboot dimension
   EREF     =   0.00    reference energy to select bands
   IMIX   =      4    mixing-type and parameters
     AMIX     =   0.40;   BMIX     =  1.00
     AMIX_MAG =   1.60;   BMIX_MAG =  1.00
     AMIN     =   0.10
     WC   =   100.;   INIMIX=   1;  MIXPRE=   1;  MAXMIX= -45

 Intra band minimization:
   WEIMIN = 0.0000     energy-eigenvalue tresh-hold
   EBREAK =  0.78E-08  absolut break condition
   DEPER  =   0.30     relativ break condition  

   TIME   =   0.40     timestep for ELM

  volume/ion in A,a.u.               =      24.20       163.30
  Fermi-wavevector in a.u.,A,eV,Ry     =   0.967831  1.828935 12.744535  0.936697
  Thomas-Fermi vector in A             =   2.097750
 
 Write flags
   LWAVE        =      F    write WAVECAR
   LDOWNSAMPLE  =      F    k-point downsampling of WAVECAR
   LCHARG       =      F    write CHGCAR
   LVTOT        =      F    write LOCPOT, total local potential
   LVHAR        =      F    write LOCPOT, Hartree potential only
   LELF         =      F    write electronic localiz. function (ELF)
   LORBIT       =      0    0 simple, 1 ext, 2 COOP (PROOUT), +10 PAW based schemes


 Dipole corrections
   LMONO  =      F    monopole corrections only (constant potential shift)
   LDIPOL =      F    correct potential (dipole corrections)
   IDIPOL =      0    1-x, 2-y, 3-z, 4-all directions 
   EPSILON=  1.0000000 bulk dielectric constant

 Exchange correlation treatment:
   GGA     =    PE    GGA type
   LEXCH   =     8    internal setting for exchange type
   LIBXC   =     F    Libxc                    
   VOSKOWN =     0    Vosko Wilk Nusair interpolation
   LHFCALC =     F    Hartree Fock is set to
   LHFONE  =     F    Hartree Fock one center treatment
   AEXX    =    0.0000 exact exchange contribution

 Linear response parameters
   LEPSILON=     F    determine dielectric tensor
   LRPA    =     F    only Hartree local field effects (RPA)
   LNABLA  =     F    use nabla operator in PAW spheres
   LVEL    =     F    velocity operator in full k-point grid
   CSHIFT  =0.1000    complex shift for real part using Kramers Kronig
   OMEGAMAX=  -1.0    maximum frequency
   DEG_THRESHOLD= 0.2000000E-02 threshold for treating states as degnerate
   RTIME   =   -0.100 relaxation time in fs
  (WPLASMAI=    0.000 imaginary part of plasma frequency in eV, 0.658/RTIME)
   DFIELD  = 0.0000000 0.0000000 0.0000000 field for delta impulse in time
 
  Optional k-point grid parameters
   LKPOINTS_OPT  =     F    use optional k-point grid
   KPOINTS_OPT_MODE=     1    mode for optional k-point grid
 
 Orbital magnetization related:
   ORBITALMAG=     F  switch on orbital magnetization
   LCHIMAG   =     F  perturbation theory with respect to B field
   DQ        =  0.001000  dq finite difference perturbation B field
   LLRAUG    =     F  two centre corrections for induced B field
   LBONE     =     F  B-component reconstruction in AE one-centre
   LVGVCALC  =     T  calculate vGv susceptibility
   LVGVAPPL  =     F  apply vGv susceptibility instead of pGv for G=0

 Random number generation:
   RANDOM_GENERATOR = DEFAULT
   PCG_SEED         = not used


--------------------------------------------------------------------------------------------------------


 Static calculation
 charge density and potential will be updated during run
 non-spin polarized calculation
 Variant of blocked Davidson
 Davidson routine will perform the subspace rotation
 perform sub-space diagonalisation
    after iterative eigenvector-optimisation
 modified Broyden-mixing scheme, WC =      100.0
 initial mixing is a Kerker type mixing with AMIX =  0.4000 and BMIX =      1.0000
 Hartree-type preconditioning will be used
 using additional bands            12
 reciprocal scheme for non local part
 use partial core corrections
 calculate Harris-corrections to forces 
   (improved forces if not selfconsistent)
 use gradient corrections 
 use of overlap-Matrix (Vanderbilt PP)
 Gauss-broadening in eV      SIGMA  =   0.05


--------------------------------------------------------------------------------------------------------


  energy-cutoff  :      520.00
  volume of cell :      193.59
      direct lattice vectors                 reciprocal lattice vectors
     3.858100176  0.000000000  0.000000000     0.259194929  0.000000000  0.000000000
     0.000000000  4.526575088  0.000000000     0.000000000  0.220917577  0.000000000
     0.000000000  0.000000000 11.085176468     0.000000000  0.000000000  0.090210562

  length of vectors
     3.858100176  4.526575088 11.085176468     0.259194929  0.220917577  0.090210562


 
 k-points in units of 2pi/SCALE and weight: KPOINTS created by Atomic Simulation Env
   0.00000000  0.00000000  0.00000000       0.014
   0.04319915  0.00000000  0.00000000       0.028
   0.08639831  0.00000000  0.00000000       0.028
   0.12959746  0.00000000  0.00000000       0.014
   0.00000000  0.03681960  0.00000000       0.028
   0.04319915  0.03681960  0.00000000       0.028
   0.04319915 -0.03681960  0.00000000       0.028
   0.08639831  0.03681960  0.00000000       0.028
   0.08639831 -0.03681960  0.00000000       0.028
   0.12959746  0.03681960  0.00000000       0.028
   0.00000000  0.07363919  0.00000000       0.028
   0.04319915  0.07363919  0.00000000       0.028
   0.04319915 -0.07363919  0.00000000       0.028
   0.08639831  0.07363919  0.00000000       0.028
   0.08639831 -0.07363919  0.00000000       0.028
   0.12959746  0.07363919  0.00000000       0.028
   0.00000000  0.11045879  0.00000000       0.014
   0.04319915  0.11045879  0.00000000       0.028
   0.08639831  0.11045879  0.00000000       0.028
   0.12959746  0.11045879  0.00000000       0.014
   0.00000000  0.00000000  0.04510528       0.014
   0.04319915  0.00000000  0.04510528       0.028
   0.08639831  0.00000000  0.04510528       0.028
   0.12959746  0.00000000  0.04510528       0.014
   0.00000000  0.03681960  0.04510528       0.028
   0.04319915  0.03681960  0.04510528       0.028
   0.04319915 -0.03681960  0.04510528       0.028
   0.08639831  0.03681960  0.04510528       0.028
   0.08639831 -0.03681960  0.04510528       0.028
   0.12959746  0.03681960  0.04510528       0.028
   0.00000000  0.07363919  0.04510528       0.028
   0.04319915  0.07363919  0.04510528       0.028
   0.04319915 -0.07363919  0.04510528       0.028
   0.08639831  0.07363919  0.04510528       0.028
   0.08639831 -0.07363919  0.04510528       0.028
   0.12959746  0.07363919  0.04510528       0.028
   0.00000000  0.11045879  0.04510528       0.014
   0.04319915  0.11045879  0.04510528       0.028
   0.08639831  0.11045879  0.04510528       0.028
   0.12959746  0.11045879  0.04510528       0.014
 
 k-points in reciprocal lattice and weights: KPOINTS created by Atomic Simulation Env
   0.00000000  0.00000000  0.00000000       0.014
   0.16666667  0.00000000  0.00000000       0.028
   0.33333333  0.00000000  0.00000000       0.028
   0.50000000  0.00000000  0.00000000       0.014
   0.00000000  0.16666667  0.00000000       0.028
   0.16666667  0.16666667  0.00000000       0.028
   0.16666667 -0.16666667  0.00000000       0.028
   0.33333333  0.16666667  0.00000000       0.028
   0.33333333 -0.16666667  0.00000000       0.028
   0.50000000  0.16666667  0.00000000       0.028
   0.00000000  0.33333333  0.00000000       0.028
   0.16666667  0.33333333  0.00000000       0.028
   0.16666667 -0.33333333  0.00000000       0.028
   0.33333333  0.33333333  0.00000000       0.028
   0.33333333 -0.33333333  0.00000000       0.028
   0.50000000  0.33333333  0.00000000       0.028
   0.00000000  0.50000000  0.00000000       0.014
   0.16666667  0.50000000  0.00000000       0.028
   0.33333333  0.50000000  0.00000000       0.028
   0.50000000  0.50000000  0.00000000       0.014
   0.00000000  0.00000000  0.50000000       0.014
   0.16666667  0.00000000  0.50000000       0.028
   0.33333333  0.00000000  0.50000000       0.028
   0.50000000  0.00000000  0.50000000       0.014
   0.00000000  0.16666667  0.50000000       0.028
   0.16666667  0.16666667  0.50000000       0.028
   0.16666667 -0.16666667  0.50000000       0.028
   0.33333333  0.16666667  0.50000000       0.028
   0.33333333 -0.16666667  0.50000000       0.028
   0.50000000  0.16666667  0.50000000       0.028
   0.00000000  0.33333333  0.50000000       0.028
   0.16666667  0.33333333  0.50000000       0.028
   0.16666667 -0.33333333  0.50000000       0.028
   0.33333333  0.33333333  0.50000000       0.028
   0.33333333 -0.33333333  0.50000000       0.028
   0.50000000  0.33333333  0.50000000       0.028
   0.00000000  0.50000000  0.50000000       0.014
   0.16666667  0.50000000  0.50000000       0.028
   0.33333333  0.50000000  0.50000000       0.028
   0.50000000  0.50000000  0.50000000       0.014
 
 position of ions in fractional coordinates (direct lattice) 
   0.27898551  0.09962768  0.12298266
   0.77898551  0.59962768  0.37701734
   0.75000000  0.88587957  0.87701734
   0.25000000  0.38587957  0.62298266
   0.27898551  0.97881714  0.35238181
   0.77898551  0.47881714  0.14761819
   0.75000000  0.00669011  0.64761819
   0.25000000  0.50669011  0.85238181
 
 position of ions in cartesian coordinates  (Angst):
   1.07635403  0.45097218  1.36328454
   3.00540412  2.71425972  4.17930370
   2.89357513  4.01000037  9.72189193
   0.96452504  1.74671283  6.90587277
   1.07635403  4.43068926  3.90621455
   3.00540412  2.16740172  1.63637368
   2.89357513  0.03028329  7.17896192
   0.96452504  2.29357083  9.44880278
 


--------------------------------------------------------------------------------------------------------


 k-point   1 :   0.0000 0.0000 0.0000  plane waves:    5211
 k-point   2 :   0.1667 0.0000 0.0000  plane waves:    5225
 k-point   3 :   0.3333 0.0000 0.0000  plane waves:    5224
 k-point   4 :   0.5000 0.0000 0.0000  plane waves:    5258
 k-point   5 :   0.0000 0.1667 0.0000  plane waves:    5209
 k-point   6 :   0.1667 0.1667 0.0000  plane waves:    5201
 k-point   7 :   0.1667-0.1667 0.0000  plane waves:    5201
 k-point   8 :   0.3333 0.1667 0.0000  plane waves:    5230
 k-point   9 :   0.3333-0.1667 0.0000  plane waves:    5230
 k-point  10 :   0.5000 0.1667 0.0000  plane waves:    5236
 k-point  11 :   0.0000 0.3333 0.0000  plane waves:    5213
 k-point  12 :   0.1667 0.3333 0.0000  plane waves:    5199
 k-point  13 :   0.1667-0.3333 0.0000  plane waves:    5199
 k-point  14 :   0.3333 0.3333 0.0000  plane waves:    5211
 k-point  15 :   0.3333-0.3333 0.0000  plane waves:    5211
 k-point  16 :   0.5000 0.3333 0.0000  plane waves:    5230
 k-point  17 :   0.0000 0.5000 0.0000  plane waves:    5220
 k-point  18 :   0.1667 0.5000 0.0000  plane waves:    5208
 k-point  19 :   0.3333 0.5000 0.0000  plane waves:    5230
 k-point  20 :   0.5000 0.5000 0.0000  plane waves:    5180
 k-point  21 :   0.0000 0.0000 0.5000  plane waves:    5210
 k-point  22 :   0.1667 0.0000 0.5000  plane waves:    5178
 k-point  23 :   0.3333 0.0000 0.5000  plane waves:    5214
 k-point  24 :   0.5000 0.0000 0.5000  plane waves:    5232
 k-point  25 :   0.0000 0.1667 0.5000  plane waves:    5224
 k-point  26 :   0.1667 0.1667 0.5000  plane waves:    5210
 k-point  27 :   0.1667-0.1667 0.5000  plane waves:    5210
 k-point  28 :   0.3333 0.1667 0.5000  plane waves:    5196
 k-point  29 :   0.3333-0.1667 0.5000  plane waves:    5196
 k-point  30 :   0.5000 0.1667 0.5000  plane waves:    5224
 k-point  31 :   0.0000 0.3333 0.5000  plane waves:    5202
 k-point  32 :   0.1667 0.3333 0.5000  plane waves:    5214
 k-point  33 :   0.1667-0.3333 0.5000  plane waves:    5214
 k-point  34 :   0.3333 0.3333 0.5000  plane waves:    5216
 k-point  35 :   0.3333-0.3333 0.5000  plane waves:    5216
 k-point  36 :   0.5000 0.3333 0.5000  plane waves:    5216
 k-point  37 :   0.0000 0.5000 0.5000  plane waves:    5212
 k-point  38 :   0.1667 0.5000 0.5000  plane waves:    5192
 k-point  39 :   0.3333 0.5000 0.5000  plane waves:    5208
 k-point  40 :   0.5000 0.5000 0.5000  plane waves:    5208

 maximum and minimum number of plane-waves per node :      1076     1017

 maximum number of plane-waves:      5258
 maximum index in each direction: 
   IXMAX=    7   IYMAX=    8   IZMAX=   20
   IXMIN=   -7   IYMIN=   -8   IZMIN=  -21


 parallel 3D FFT for wavefunctions:
    minimum data exchange during FFTs selected (reduces bandwidth)
 parallel 3D FFT for charge:
    minimum data exchange during FFTs selected (reduces bandwidth)


 total amount of memory used by VASP MPI-rank0    41770. kBytes
=======================================================================

   base      :      30000. kBytes
   nonl-proj :       9056. kBytes
   fftplans  :        519. kBytes
   grid      :        766. kBytes
   one-center:         16. kBytes
   wavefun   :       1413. kBytes
 
     INWAV:  cpu time      0.0000: real time      0.0001
 Broyden mixing: mesh for mixing (old mesh)
   NGX = 15   NGY = 17   NGZ = 41
  (NGX  = 48   NGY  = 56   NGZ  =128)
  gives a total of  10455 points

 initial charge density was supplied:
 charge density of overlapping atoms calculated
 number of electron      40.0000000 magnetization 
 keeping initial charge density in first step


--------------------------------------------------------------------------------------------------------


 Maximum index for augmentation-charges           283 (set IRDMAX)


--------------------------------------------------------------------------------------------------------


 First call to EWALD:  gamma=   0.306
 Maximum number of real-space cells 4x 3x 2
 Maximum number of reciprocal cells 2x 2x 5

    FEWALD:  cpu time      0.0010: real time      0.0011


--------------------------------------- Ionic step        1  -------------------------------------------




--------------------------------------- Iteration      1(   1)  ---------------------------------------


    POTLOK:  cpu time      0.0109: real time      0.0110
    SETDIJ:  cpu time      0.2180: real time      0.2185
     EDDAV:  cpu time      0.3474: real time      0.3489
       DOS:  cpu time      0.0011: real time      0.0011
    --------------------------------------------
      LOOP:  cpu time      0.5773: real time      0.5795

 eigenvalue-minimisations  :  2560
 total energy-change (2. order) : 0.1628540E+03  (-0.1587180E+04)
 number of electron      40.0000000 magnetization 
 augmentation part       40.0000000 magnetization 

 Free energy of the ion-electron system (eV)
  ---------------------------------------------------
  alpha Z        PSCENC =        87.52689448
  Ewald energy   TEWEN  =     -1421.11448566
  -Hartree energ DENC   =      -126.31905970
  -exchange      EXHF   =         0.00000000
  -V(xc)+E(xc)   XCENC  =       -33.44416876
  PAW double counting   =      1193.78262552    -1080.73714043
  entropy T*S    EENTRO =        -0.00316892
  eigenvalues    EBANDS =        94.66789245
  atomic energy  EATOM  =      1448.49460871
  Solvation  Ediel_sol  =         0.00000000
  ---------------------------------------------------
  free energy    TOTEN  =       162.85399768 eV

  energy without entropy =      162.85716661  energy(sigma->0) =      162.85558215


--------------------------------------------------------------------------------------------------------




--------------------------------------- Iteration      1(   2)  ---------------------------------------


     EDDAV:  cpu time      0.4805: real time      0.4843
       DOS:  cpu time      0.0006: real time      0.0005
    --------------------------------------------
      LOOP:  cpu time      0.4811: real time      0.4848

 eigenvalue-minimisations  :  3696
 total energy-change (2. order) :-0.1857307E+03  (-0.1803138E+03)
 number of electron      40.0000000 magnetization 
 augmentation part       40.0000000 magnetization 

 Free energy of the ion-electron system (eV)
  ---------------------------------------------------
  alpha Z        PSCENC =        87.52689448
  Ewald energy   TEWEN  =     -1421.11448566
  -Hartree energ DENC   =      -126.31905970
  -exchange      EXHF   =         0.00000000
  -V(xc)+E(xc)   XCENC  =       -33.44416876
  PAW double counting   =      1193.78262552    -1080.73714043
  entropy T*S    EENTRO =        -0.00000000
  eigenvalues    EBANDS =       -91.06600291
  atomic energy  EATOM  =      1448.49460871
  Solvation  Ediel_sol  =         0.00000000
  ---------------------------------------------------
  free energy    TOTEN  =       -22.87672874 eV

  energy without entropy =      -22.87672874  energy(sigma->0) =      -22.87672874


--------------------------------------------------------------------------------------------------------




--------------------------------------- Iteration      1(   3)  ---------------------------------------


     EDDAV:  cpu time      0.4870: real time      0.4895
       DOS:  cpu time      0.0005: real time      0.0005
    --------------------------------------------
      LOOP:  cpu time      0.4875: real time      0.4900

 eigenvalue-minimisations  :  3392
 total energy-change (2. order) :-0.1124475E+02  (-0.1121589E+02)
 number of electron      40.0000000 magnetization 
 augmentation part       40.0000000 magnetization 

 Free energy of the ion-electron system (eV)
  ---------------------------------------------------
  alpha Z        PSCENC =        87.52689448
  Ewald energy   TEWEN  =     -1421.11448566
  -Hartree energ DENC   =      -126.31905970
  -exchange      EXHF   =         0.00000000
  -V(xc)+E(xc)   XCENC  =       -33.44416876
  PAW double counting   =      1193.78262552    -1080.73714043
  entropy T*S    EENTRO =        -0.00000000
  eigenvalues    EBANDS =      -102.31075009
  atomic energy  EATOM  =      1448.49460871
  Solvation  Ediel_sol  =         0.00000000
  ---------------------------------------------------
  free energy    TOTEN  =       -34.12147593 eV

  energy without entropy =      -34.12147593  energy(sigma->0) =      -34.12147593


--------------------------------------------------------------------------------------------------------




--------------------------------------- Iteration      1(   4)  ---------------------------------------


     EDDAV:  cpu time      0.4688: real time      0.4712
       DOS:  cpu time      0.0006: real time      0.0006
    --------------------------------------------
      LOOP:  cpu time      0.4693: real time      0.4718

 eigenvalue-minimisations  :  3040
 total energy-change (2. order) :-0.8423020E-01  (-0.8421863E-01)
 number of electron      40.0000000 magnetization 
 augmentation part       40.0000000 magnetization 

 Free energy of the ion-electron system (eV)
  ---------------------------------------------------
  alpha Z        PSCENC =        87.52689448
  Ewald energy   TEWEN  =     -1421.11448566
  -Hartree energ DENC   =      -126.31905970
  -exchange      EXHF   =         0.00000000
  -V(xc)+E(xc)   XCENC  =       -33.44416876
  PAW double counting   =      1193.78262552    -1080.73714043
  entropy T*S    EENTRO =        -0.00000000
  eigenvalues    EBANDS =      -102.39498029
  atomic energy  EATOM  =      1448.49460871
  Solvation  Ediel_sol  =         0.00000000
  ---------------------------------------------------
  free energy    TOTEN  =       -34.20570613 eV

  energy without entropy =      -34.20570613  energy(sigma->0) =      -34.20570613


--------------------------------------------------------------------------------------------------------




--------------------------------------- Iteration      1(   5)  ---------------------------------------


     EDDAV:  cpu time      0.4442: real time      0.4465
       DOS:  cpu time      0.0005: real time      0.0005
    CHARGE:  cpu time      0.0087: real time      0.0087
    MIXING:  cpu time      0.0007: real time      0.0007
    --------------------------------------------
      LOOP:  cpu time      0.4541: real time      0.4564

 eigenvalue-minimisations  :  3376
 total energy-change (2. order) :-0.5016362E-03  (-0.5016313E-03)
 number of electron      40.0000000 magnetization 
 augmentation part       -7.4002044 magnetization 

 Broyden mixing:
  rms(total) = 0.64044E+00    rms(broyden)= 0.64044E+00
  rms(prec ) = 0.72525E+00
  weight for this iteration     100.00

 Free energy of the ion-electron system (eV)
  ---------------------------------------------------
  alpha Z        PSCENC =        87.52689448
  Ewald energy   TEWEN  =     -1421.11448566
  -Hartree energ DENC   =      -126.31905970
  -exchange      EXHF   =         0.00000000
  -V(xc)+E(xc)   XCENC  =       -33.44416876
  PAW double counting   =      1193.78262552    -1080.73714043
  entropy T*S    EENTRO =        -0.00000000
  eigenvalues    EBANDS =      -102.39548192
  atomic energy  EATOM  =      1448.49460871
  Solvation  Ediel_sol  =         0.00000000
  ---------------------------------------------------
  free energy    TOTEN  =       -34.20620776 eV

  energy without entropy =      -34.20620776  energy(sigma->0) =      -34.20620776


--------------------------------------------------------------------------------------------------------




--------------------------------------- Iteration      1(   6)  ---------------------------------------


    POTLOK:  cpu time      0.0102: real time      0.0104
    SETDIJ:  cpu time      0.2181: real time      0.2187
     EDDAV:  cpu time      0.4152: real time      0.4176
       DOS:  cpu time      0.0005: real time      0.0005
    CHARGE:  cpu time      0.0086: real time      0.0086
    MIXING:  cpu time      0.0006: real time      0.0006
    --------------------------------------------
      LOOP:  cpu time      0.6531: real time      0.6565

 eigenvalue-minimisations  :  3120
 total energy-change (2. order) : 0.3804712E+00  (-0.7667691E-01)
 number of electron      40.0000000 magnetization 
 augmentation part       -7.3450460 magnetization 

 Broyden mixing:
  rms(total) = 0.40230E+00    rms(broyden)= 0.40230E+00
  rms(prec ) = 0.42455E+00
  weight for this iteration     100.00

 eigenvalues of (default mixing * dielectric matrix)
  average eigenvalue GAMMA=   2.1865
  2.1865

 Free energy of the ion-electron system (eV)
  ---------------------------------------------------
  alpha Z        PSCENC =        87.52689448
  Ewald energy   TEWEN  =     -1421.11448566
  -Hartree energ DENC   =      -132.06318391
  -exchange      EXHF   =         0.00000000
  -V(xc)+E(xc)   XCENC  =       -32.84325329
  PAW double counting   =      1453.24791141    -1340.52138291
  entropy T*S    EENTRO =        -0.00000000
  eigenvalues    EBANDS =       -96.55284540
  atomic energy  EATOM  =      1448.49460871
  Solvation  Ediel_sol  =         0.00000000
  ---------------------------------------------------
  free energy    TOTEN  =       -33.82573657 eV

  energy without entropy =      -33.82573657  energy(sigma->0) =      -33.82573657


--------------------------------------------------------------------------------------------------------




--------------------------------------- Iteration      1(   7)  ---------------------------------------


    POTLOK:  cpu time      0.0101: real time      0.0102
    SETDIJ:  cpu time      0.2185: real time      0.2190
     EDDAV:  cpu time      0.4301: real time      0.4322
       DOS:  cpu time      0.0006: real time      0.0006
    CHARGE:  cpu time      0.0090: real time      0.0090
    MIXING:  cpu time      0.0007: real time      0.0007
    --------------------------------------------
      LOOP:  cpu time      0.6689: real time      0.6717

 eigenvalue-minimisations  :  2928
 total energy-change (2. order) : 0.1266666E-01  (-0.2315213E-01)
 number of electron      40.0000000 magnetization 
 augmentation part       -7.3336895 magnetization 

 Broyden mixing:
  rms(total) = 0.12912E+00    rms(broyden)= 0.12912E+00
  rms(prec ) = 0.13795E+00
  weight for this iteration     100.00

 eigenvalues of (default mixing * dielectric matrix)
  average eigenvalue GAMMA=   1.7881
  1.1939  2.3823

 Free energy of the ion-electron system (eV)
  ---------------------------------------------------
  alpha Z        PSCENC =        87.52689448
  Ewald energy   TEWEN  =     -1421.11448566
  -Hartree energ DENC   =      -134.56999167
  -exchange      EXHF   =         0.00000000
  -V(xc)+E(xc)   XCENC  =       -32.37449622
  PAW double counting   =      1772.30606749    -1659.81781510
  entropy T*S    EENTRO =        -0.00000000
  eigenvalues    EBANDS =       -94.26385195
  atomic energy  EATOM  =      1448.49460871
  Solvation  Ediel_sol  =         0.00000000
  ---------------------------------------------------
  free energy    TOTEN  =       -33.81306991 eV

  energy without entropy =      -33.81306991  energy(sigma->0) =      -33.81306991


--------------------------------------------------------------------------------------------------------




--------------------------------------- Iteration      1(   8)  ---------------------------------------


    POTLOK:  cpu time      0.0102: real time      0.0103
    SETDIJ:  cpu time      0.2190: real time      0.2197
     EDDAV:  cpu time      0.4204: real time      0.4227
       DOS:  cpu time      0.0006: real time      0.0006
    CHARGE:  cpu time      0.0086: real time      0.0087
    MIXING:  cpu time      0.0006: real time      0.0006
    --------------------------------------------
      LOOP:  cpu time      0.6594: real time      0.6626

 eigenvalue-minimisations  :  3024
 total energy-change (2. order) : 0.1500288E-02  (-0.2236655E-02)
 number of electron      40.0000000 magnetization 
 augmentation part       -7.3422180 magnetization 

 Broyden mixing:
  rms(total) = 0.18061E-01    rms(broyden)= 0.18061E-01
  rms(prec ) = 0.21972E-01
  weight for this iteration     100.00

 eigenvalues of (default mixing * dielectric matrix)
  average eigenvalue GAMMA=   1.6950
  2.5066  1.2892  1.2892

 Free energy of the ion-electron system (eV)
  ---------------------------------------------------
  alpha Z        PSCENC =        87.52689448
  Ewald energy   TEWEN  =     -1421.11448566
  -Hartree energ DENC   =      -134.63468715
  -exchange      EXHF   =         0.00000000
  -V(xc)+E(xc)   XCENC  =       -32.23563254
  PAW double counting   =      1909.01142852    -1796.58512892
  entropy T*S    EENTRO =        -0.00000000
  eigenvalues    EBANDS =       -94.27456706
  atomic energy  EATOM  =      1448.49460871
  Solvation  Ediel_sol  =         0.00000000
  ---------------------------------------------------
  free energy    TOTEN  =       -33.81156963 eV

  energy without entropy =      -33.81156963  energy(sigma->0) =      -33.81156963


--------------------------------------------------------------------------------------------------------




--------------------------------------- Iteration      1(   9)  ---------------------------------------


    POTLOK:  cpu time      0.0102: real time      0.0103
    SETDIJ:  cpu time      0.2181: real time      0.2186
     EDDAV:  cpu time      0.4231: real time      0.4251
       DOS:  cpu time      0.0006: real time      0.0006
    CHARGE:  cpu time      0.0086: real time      0.0086
    MIXING:  cpu time      0.0006: real time      0.0006
    --------------------------------------------
      LOOP:  cpu time      0.6612: real time      0.6637

 eigenvalue-minimisations  :  3264
 total energy-change (2. order) :-0.2446124E-03  (-0.3499231E-03)
 number of electron      40.0000000 magnetization 
 augmentation part       -7.3403346 magnetization 

 Broyden mixing:
  rms(total) = 0.65974E-02    rms(broyden)= 0.65974E-02
  rms(prec ) = 0.73404E-02
  weight for this iteration     100.00

 eigenvalues of (default mixing * dielectric matrix)
  average eigenvalue GAMMA=   1.7221
  2.2784  2.2784  1.1658  1.1658

 Free energy of the ion-electron system (eV)
  ---------------------------------------------------
  alpha Z        PSCENC =        87.52689448
  Ewald energy   TEWEN  =     -1421.11448566
  -Hartree energ DENC   =      -134.98199104
  -exchange      EXHF   =         0.00000000
  -V(xc)+E(xc)   XCENC  =       -32.19607504
  PAW double counting   =      1923.23764406    -1810.82147259
  entropy T*S    EENTRO =        -0.00000000
  eigenvalues    EBANDS =       -93.95693715
  atomic energy  EATOM  =      1448.49460871
  Solvation  Ediel_sol  =         0.00000000
  ---------------------------------------------------
  free energy    TOTEN  =       -33.81181424 eV

  energy without entropy =      -33.81181424  energy(sigma->0) =      -33.81181424


--------------------------------------------------------------------------------------------------------




--------------------------------------- Iteration      1(  10)  ---------------------------------------


    POTLOK:  cpu time      0.0100: real time      0.0102
    SETDIJ:  cpu time      0.2176: real time      0.2181
     EDDAV:  cpu time      0.4314: real time      0.4337
       DOS:  cpu time      0.0006: real time      0.0006
    CHARGE:  cpu time      0.0082: real time      0.0083
    MIXING:  cpu time      0.0006: real time      0.0006
    --------------------------------------------
      LOOP:  cpu time      0.6684: real time      0.6715

 eigenvalue-minimisations  :  3056
 total energy-change (2. order) :-0.7509097E-04  (-0.2535913E-04)
 number of electron      40.0000000 magnetization 
 augmentation part       -7.3402187 magnetization 

 Broyden mixing:
  rms(total) = 0.24142E-02    rms(broyden)= 0.24142E-02
  rms(prec ) = 0.29322E-02
  weight for this iteration     100.00

 eigenvalues of (default mixing * dielectric matrix)
  average eigenvalue GAMMA=   1.7448
  2.7156  2.3735  1.1918  1.2214  1.2214

 Free energy of the ion-electron system (eV)
  ---------------------------------------------------
  alpha Z        PSCENC =        87.52689448
  Ewald energy   TEWEN  =     -1421.11448566
  -Hartree energ DENC   =      -135.00649363
  -exchange      EXHF   =         0.00000000
  -V(xc)+E(xc)   XCENC  =       -32.19427574
  PAW double counting   =      1916.63550608    -1804.21436600
  entropy T*S    EENTRO =        -0.00000000
  eigenvalues    EBANDS =       -93.93927757
  atomic energy  EATOM  =      1448.49460871
  Solvation  Ediel_sol  =         0.00000000
  ---------------------------------------------------
  free energy    TOTEN  =       -33.81188933 eV

  energy without entropy =      -33.81188933  energy(sigma->0) =      -33.81188933


--------------------------------------------------------------------------------------------------------




--------------------------------------- Iteration      1(  11)  ---------------------------------------


    POTLOK:  cpu time      0.0102: real time      0.0103
    SETDIJ:  cpu time      0.2179: real time      0.2184
     EDDAV:  cpu time      0.4262: real time      0.4277
       DOS:  cpu time      0.0183: real time      0.0184
    CHARGE:  cpu time      0.0088: real time      0.0089
    MIXING:  cpu time      0.0006: real time      0.0006
    --------------------------------------------
      LOOP:  cpu time      0.6820: real time      0.6844

 eigenvalue-minimisations  :  2848
 total energy-change (2. order) :-0.2473261E-04  (-0.3770049E-05)
 number of electron      40.0000000 magnetization 
 augmentation part       -7.3404669 magnetization 

 Broyden mixing:
  rms(total) = 0.12543E-02    rms(broyden)= 0.12543E-02
  rms(prec ) = 0.13729E-02
  weight for this iteration     100.00

 eigenvalues of (default mixing * dielectric matrix)
  average eigenvalue GAMMA=   1.7054
  2.4748  2.4748  2.0399  1.1671  1.1671  0.9086

 Free energy of the ion-electron system (eV)
  ---------------------------------------------------
  alpha Z        PSCENC =        87.52689448
  Ewald energy   TEWEN  =     -1421.11448566
  -Hartree energ DENC   =      -135.02899181
  -exchange      EXHF   =         0.00000000
  -V(xc)+E(xc)   XCENC  =       -32.18802052
  PAW double counting   =      1918.36350249    -1805.94286537
  entropy T*S    EENTRO =        -0.00000000
  eigenvalues    EBANDS =       -93.92255638
  atomic energy  EATOM  =      1448.49460871
  Solvation  Ediel_sol  =         0.00000000
  ---------------------------------------------------
  free energy    TOTEN  =       -33.81191406 eV

  energy without entropy =      -33.81191406  energy(sigma->0) =      -33.81191406


--------------------------------------------------------------------------------------------------------




--------------------------------------- Iteration      1(  12)  ---------------------------------------


    POTLOK:  cpu time      0.0101: real time      0.0102
    SETDIJ:  cpu time      0.2232: real time      0.2238
     EDDAV:  cpu time      0.4295: real time      0.4318
       DOS:  cpu time      0.0008: real time      0.0008
    --------------------------------------------
      LOOP:  cpu time      0.6637: real time      0.6666

 eigenvalue-minimisations  :  3344
 total energy-change (2. order) : 0.3552174E-08  (-0.4805063E-06)
 number of electron      40.0000000 magnetization 
 augmentation part       -7.3404669 magnetization 

 Free energy of the ion-electron system (eV)
  ---------------------------------------------------
  alpha Z        PSCENC =        87.52689448
  Ewald energy   TEWEN  =     -1421.11448566
  -Hartree energ DENC   =      -135.04053206
  -exchange      EXHF   =         0.00000000
  -V(xc)+E(xc)   XCENC  =       -32.18724356
  PAW double counting   =      1917.51488332    -1805.09394940
  entropy T*S    EENTRO =        -0.00000000
  eigenvalues    EBANDS =       -93.91208989
  atomic energy  EATOM  =      1448.49460871
  Solvation  Ediel_sol  =         0.00000000
  ---------------------------------------------------
  free energy    TOTEN  =       -33.81191406 eV

  energy without entropy =      -33.81191406  energy(sigma->0) =      -33.81191406


--------------------------------------------------------------------------------------------------------




 average (electrostatic) potential at core
  the test charge radii are     1.1631  1.0808
  (the norm of the test charge is              1.0000)
       1 -33.4887       2 -33.4887       3 -33.4887       4 -33.4887       5 -54.9655
       6 -54.9655       7 -54.9655       8 -54.9655
 
 
 
 E-fermi :   3.5088     XC(G=0):  -9.3057     alpha+bet : -8.7197

 Fermi energy:         3.5088039188

 k-point     1 :       0.0000    0.0000    0.0000
  band No.  band energies     occupation 
      1     -10.9610      2.00000
      2     -10.6377      2.00000
      3      -9.6918      2.00000
      4      -9.2070      2.00000
      5      -4.7506      2.00000
      6      -4.1519      2.00000
      7      -2.6877      2.00000
      8      -2.2024      2.00000
      9      -1.8180      2.00000
     10      -0.3781      2.00000
     11      -0.2130      2.00000
     12      -0.0823      2.00000
     13       0.1513      2.00000
     14       0.5363      2.00000
     15       1.3638      2.00000
     16       1.4906      2.00000
     17       1.9318      2.00000
     18       2.2655      2.00000
     19       2.4525      2.00000
     20       3.2438      2.00000
     21       4.0084      0.00000
     22       5.7544      0.00000
     23       5.8677      0.00000
     24       5.8958      0.00000
     25       6.2053      0.00000
     26       6.5263      0.00000
     27       6.7377      0.00000
     28       7.3997      0.00000
     29       8.0960      0.00000
     30       8.5467      0.00000
     31       8.6314      0.00000
     32       9.0495      0.00000

 k-point     2 :       0.1667    0.0000    0.0000
  band No.  band energies     occupation 
      1     -10.7703      2.00000
      2     -10.4627      2.00000
      3      -9.5761      2.00000
      4      -9.1528      2.00000
      5      -4.9338      2.00000
      6      -4.4042      2.00000
      7      -2.9706      2.00000
      8      -2.8468      2.00000
      9      -1.6437      2.00000
     10      -0.2855      2.00000
     11      -0.1670      2.00000
     12      -0.0440      2.00000
     13       0.1696      2.00000
     14       0.2781      2.00000
     15       1.3550      2.00000
     16       1.3913      2.00000
     17       1.6504      2.00000
     18       2.4764      2.00000
     19       2.5121      2.00000
     20       3.0112      2.00000
     21       4.1985      0.00000
     22       5.3089      0.00000
     23       5.8482      0.00000
     24       6.1285      0.00000
     25       6.4220      0.00000
     26       6.6138      0.00000
     27       6.9126      0.00000
     28       7.1138      0.00000
     29       7.1367      0.00000
     30       8.1543      0.00000
     31       8.3253      0.00000
     32       8.4231      0.00000

 k-point     3 :       0.3333    0.0000    0.0000
  band No.  band energies     occupation 
      1     -10.2468      2.00000
      2     -10.0007      2.00000
      3      -9.3779      2.00000
      4      -9.1666      2.00000
      5      -5.3110      2.00000
      6      -4.8340      2.00000
      7      -4.1861      2.00000
      8      -3.7854      2.00000
      9      -1.0612      2.00000
     10      -0.2516      2.00000
     11      -0.0009      2.00000
     12       0.3764      2.00000
     13       0.5239      2.00000
     14       0.6039      2.00000
     15       1.0983      2.00000
     16       1.5509      2.00000
     17       1.7293      2.00000
     18       2.1506      2.00000
     19       2.4080      2.00000
     20       2.4770      2.00000
     21       4.1442      0.00000
     22       4.5595      0.00000
     23       4.8263      0.00000
     24       5.2811      0.00000
     25       5.3710      0.00000
     26       5.9048      0.00000
     27       5.9679      0.00000
     28       6.7198      0.00000
     29       7.0441      0.00000
     30       7.2644      0.00000
     31       7.5823      0.00000
     32       8.3419      0.00000

 k-point     4 :       0.5000    0.0000    0.0000
  band No.  band energies     occupation 
      1      -9.5853      2.00000
      2      -9.5853      2.00000
      3      -9.4988      2.00000
      4      -9.4988      2.00000
      5      -5.1751      2.00000
      6      -5.1751      2.00000
      7      -4.6485      2.00000
      8      -4.6485      2.00000
      9      -0.2976      2.00000
     10      -0.2976      2.00000
     11       0.4346      2.00000
     12       0.4346      2.00000
     13       0.8171      2.00000
     14       0.8171      2.00000
     15       1.3573      2.00000
     16       1.3573      2.00000
     17       1.7493      2.00000
     18       1.7493      2.00000
     19       2.0518      2.00000
     20       2.0518      2.00000
     21       4.3214      0.00000
     22       4.3214      0.00000
     23       4.5959      0.00000
     24       4.5959      0.00000
     25       5.2274      0.00000
     26       5.2274      0.00000
     27       5.7066      0.00000
     28       5.7066      0.00000
     29       6.6594      0.00000
     30       6.6594      0.00000
     31       7.8305      0.00000
     32       7.8305      0.00000

 k-point     5 :       0.0000    0.1667    0.0000
  band No.  band energies     occupation 
      1     -10.8450      2.00000
      2     -10.5297      2.00000
      3      -9.7025      2.00000
      4      -9.2659      2.00000
      5      -5.0632      2.00000
      6      -4.2597      2.00000
      7      -3.3738      2.00000
      8      -2.6742      2.00000
      9      -1.6396      2.00000
     10      -0.0750      2.00000
     11       0.2923      2.00000
     12       0.4207      2.00000
     13       0.4412      2.00000
     14       0.6635      2.00000
     15       1.4076      2.00000
     16       1.8660      2.00000
     17       1.9303      2.00000
     18       2.0180      2.00000
     19       2.6402      2.00000
     20       3.0979      2.00000
     21       4.1412      0.00000
     22       5.2598      0.00000
     23       5.8210      0.00000
     24       5.8807      0.00000
     25       6.1025      0.00000
     26       6.2587      0.00000
     27       6.9194      0.00000
     28       7.0544      0.00000
     29       7.4770      0.00000
     30       8.0472      0.00000
     31       8.5108      0.00000
     32       8.5953      0.00000

 k-point     6 :       0.1667    0.1667    0.0000
  band No.  band energies     occupation 
      1     -10.6596      2.00000
      2     -10.3606      2.00000
      3      -9.5880      2.00000
      4      -9.2054      2.00000
      5      -5.1111      2.00000
      6      -4.4058      2.00000
      7      -3.4604      2.00000
      8      -3.0715      2.00000
      9      -1.4828      2.00000
     10      -0.7849      2.00000
     11      -0.4954      2.00000
     12       0.1945      2.00000
     13       0.7890      2.00000
     14       0.9343      2.00000
     15       1.1488      2.00000
     16       1.3269      2.00000
     17       2.1072      2.00000
     18       2.1542      2.00000
     19       2.6917      2.00000
     20       2.9426      2.00000
     21       4.3276      0.00000
     22       5.1426      0.00000
     23       5.5278      0.00000
     24       5.6146      0.00000
     25       6.3146      0.00000
     26       6.5210      0.00000
     27       7.1160      0.00000
     28       7.1166      0.00000
     29       7.5862      0.00000
     30       7.9134      0.00000
     31       7.9642      0.00000
     32       8.7424      0.00000

 k-point     7 :       0.1667   -0.1667    0.0000
  band No.  band energies     occupation 
      1     -10.6596      2.00000
      2     -10.3605      2.00000
      3      -9.5886      2.00000
      4      -9.2040      2.00000
      5      -5.1250      2.00000
      6      -4.3919      2.00000
      7      -3.5011      2.00000
      8      -3.0250      2.00000
      9      -1.4776      2.00000
     10      -0.7786      2.00000
     11      -0.4890      2.00000
     12       0.1771      2.00000
     13       0.7953      2.00000
     14       0.9353      2.00000
     15       1.1232      2.00000
     16       1.3442      2.00000
     17       2.0959      2.00000
     18       2.1416      2.00000
     19       2.6792      2.00000
     20       2.9736      2.00000
     21       4.3079      0.00000
     22       5.1504      0.00000
     23       5.4892      0.00000
     24       5.6110      0.00000
     25       6.3140      0.00000
     26       6.5748      0.00000
     27       7.1961      0.00000
     28       7.1966      0.00000
     29       7.5531      0.00000
     30       7.7412      0.00000
     31       7.9691      0.00000
     32       8.8312      0.00000

 k-point     8 :       0.3333    0.1667    0.0000
  band No.  band energies     occupation 
      1     -10.1563      2.00000
      2      -9.9207      2.00000
      3      -9.3828      2.00000
      4      -9.1868      2.00000
      5      -5.2608      2.00000
      6      -4.7407      2.00000
      7      -4.1607      2.00000
      8      -3.9294      2.00000
      9      -1.0611      2.00000
     10      -0.9495      2.00000
     11      -0.7462      2.00000
     12      -0.0761      2.00000
     13       0.6768      2.00000
     14       0.9967      2.00000
     15       1.0389      2.00000
     16       1.3310      2.00000
     17       1.4445      2.00000
     18       2.1625      2.00000
     19       2.2425      2.00000
     20       2.3658      2.00000
     21       4.2429      0.00000
     22       4.9043      0.00000
     23       5.0384      0.00000
     24       5.2963      0.00000
     25       5.9444      0.00000
     26       6.4184      0.00000
     27       6.7850      0.00000
     28       7.1588      0.00000
     29       7.3959      0.00000
     30       7.5445      0.00000
     31       8.1328      0.00000
     32       8.5156      0.00000

 k-point     9 :       0.3333   -0.1667    0.0000
  band No.  band energies     occupation 
      1     -10.1562      2.00000
      2      -9.9206      2.00000
      3      -9.3855      2.00000
      4      -9.1830      2.00000
      5      -5.2802      2.00000
      6      -4.7214      2.00000
      7      -4.2139      2.00000
      8      -3.8714      2.00000
      9      -1.0732      2.00000
     10      -0.9434      2.00000
     11      -0.7188      2.00000
     12      -0.0803      2.00000
     13       0.6383      2.00000
     14       0.9896      2.00000
     15       1.0041      2.00000
     16       1.3479      2.00000
     17       1.5011      2.00000
     18       2.1942      2.00000
     19       2.2087      2.00000
     20       2.3505      2.00000
     21       4.2385      0.00000
     22       4.8683      0.00000
     23       5.0076      0.00000
     24       5.3392      0.00000
     25       5.9770      0.00000
     26       6.3840      0.00000
     27       6.8555      0.00000
     28       7.2380      0.00000
     29       7.3606      0.00000
     30       7.4127      0.00000
     31       8.2840      0.00000
     32       8.4833      0.00000

 k-point    10 :       0.5000    0.1667    0.0000
  band No.  band energies     occupation 
      1      -9.5427      2.00000
      2      -9.5398      2.00000
      3      -9.4656      2.00000
      4      -9.4624      2.00000
      5      -5.0722      2.00000
      6      -5.0690      2.00000
      7      -4.6131      2.00000
      8      -4.6084      2.00000
      9      -0.6002      2.00000
     10      -0.5885      2.00000
     11      -0.2101      2.00000
     12      -0.1662      2.00000
     13       0.3184      2.00000
     14       0.3556      2.00000
     15       0.9095      2.00000
     16       0.9106      2.00000
     17       1.6050      2.00000
     18       1.6106      2.00000
     19       2.3216      2.00000
     20       2.3355      2.00000
     21       4.2493      0.00000
     22       4.2630      0.00000
     23       5.3391      0.00000
     24       5.3672      0.00000
     25       6.2318      0.00000
     26       6.2397      0.00000
     27       6.5492      0.00000
     28       6.6366      0.00000
     29       7.2556      0.00000
     30       7.3216      0.00000
     31       7.5498      0.00000
     32       7.5988      0.00000

 k-point    11 :       0.0000    0.3333    0.0000
  band No.  band energies     occupation 
      1     -10.5280      2.00000
      2     -10.2335      2.00000
      3      -9.8110      2.00000
      4      -9.4767      2.00000
      5      -5.4002      2.00000
      6      -4.4536      2.00000
      7      -4.3907      2.00000
      8      -3.4884      2.00000
      9      -1.1662      2.00000
     10       0.3182      2.00000
     11       0.6791      2.00000
     12       1.0025      2.00000
     13       1.2442      2.00000
     14       1.2693      2.00000
     15       1.4268      2.00000
     16       1.7238      2.00000
     17       1.7672      2.00000
     18       2.7073      2.00000
     19       2.7595      2.00000
     20       3.1917      2.00000
     21       4.3835      0.00000
     22       4.7078      0.00000
     23       4.8938      0.00000
     24       5.4823      0.00000
     25       5.6368      0.00000
     26       6.1626      0.00000
     27       6.4085      0.00000
     28       6.5904      0.00000
     29       6.8711      0.00000
     30       7.4850      0.00000
     31       7.8639      0.00000
     32       9.0044      0.00000

 k-point    12 :       0.1667    0.3333    0.0000
  band No.  band energies     occupation 
      1     -10.3595      2.00000
      2     -10.0829      2.00000
      3      -9.6916      2.00000
      4      -9.3922      2.00000
      5      -5.3079      2.00000
      6      -4.3777      2.00000
      7      -4.3701      2.00000
      8      -3.5925      2.00000
      9      -1.0078      2.00000
     10      -0.8077      2.00000
     11      -0.4648      2.00000
     12       0.2944      2.00000
     13       0.4175      2.00000
     14       0.8922      2.00000
     15       1.3454      2.00000
     16       1.8148      2.00000
     17       2.1684      2.00000
     18       2.2708      2.00000
     19       2.7184      2.00000
     20       2.8028      2.00000
     21       4.5184      0.00000
     22       5.1015      0.00000
     23       5.5631      0.00000
     24       5.7321      0.00000
     25       5.9694      0.00000
     26       6.3471      0.00000
     27       6.7075      0.00000
     28       7.4969      0.00000
     29       7.5755      0.00000
     30       7.8164      0.00000
     31       8.1676      0.00000
     32       8.7596      0.00000

 k-point    13 :       0.1667   -0.3333    0.0000
  band No.  band energies     occupation 
      1     -10.3594      2.00000
      2     -10.0828      2.00000
      3      -9.6925      2.00000
      4      -9.3906      2.00000
      5      -5.3138      2.00000
      6      -4.3955      2.00000
      7      -4.3667      2.00000
      8      -3.5695      2.00000
      9      -1.0001      2.00000
     10      -0.7853      2.00000
     11      -0.4727      2.00000
     12       0.2524      2.00000
     13       0.4358      2.00000
     14       0.8669      2.00000
     15       1.3366      2.00000
     16       1.8780      2.00000
     17       2.2168      2.00000
     18       2.2600      2.00000
     19       2.6430      2.00000
     20       2.7878      2.00000
     21       4.5232      0.00000
     22       5.1066      0.00000
     23       5.5793      0.00000
     24       5.7153      0.00000
     25       5.9646      0.00000
     26       6.3621      0.00000
     27       6.7011      0.00000
     28       7.4968      0.00000
     29       7.5427      0.00000
     30       7.9076      0.00000
     31       8.0985      0.00000
     32       8.8627      0.00000

 k-point    14 :       0.3333    0.3333    0.0000
  band No.  band energies     occupation 
      1      -9.9192      2.00000
      2      -9.7118      2.00000
      3      -9.4462      2.00000
      4      -9.2732      2.00000
      5      -5.1266      2.00000
      6      -4.4881      2.00000
      7      -4.3809      2.00000
      8      -4.1030      2.00000
      9      -1.6377      2.00000
     10      -1.2079      2.00000
     11      -0.9139      2.00000
     12      -0.5925      2.00000
     13      -0.1450      2.00000
     14       0.4608      2.00000
     15       0.6021      2.00000
     16       1.0001      2.00000
     17       1.3207      2.00000
     18       1.8895      2.00000
     19       2.1904      2.00000
     20       2.2986      2.00000
     21       4.3482      0.00000
     22       5.9273      0.00000
     23       6.3709      0.00000
     24       6.4618      0.00000
     25       6.5608      0.00000
     26       6.9082      0.00000
     27       7.3630      0.00000
     28       7.8769      0.00000
     29       8.1377      0.00000
     30       8.4221      0.00000
     31       8.4426      0.00000
     32       9.5581      0.00000

 k-point    15 :       0.3333   -0.3333    0.0000
  band No.  band energies     occupation 
      1      -9.9188      2.00000
      2      -9.7120      2.00000
      3      -9.4496      2.00000
      4      -9.2687      2.00000
      5      -5.1408      2.00000
      6      -4.4755      2.00000
      7      -4.4405      2.00000
      8      -4.0342      2.00000
      9      -1.6380      2.00000
     10      -1.1935      2.00000
     11      -0.9222      2.00000
     12      -0.5917      2.00000
     13      -0.1555      2.00000
     14       0.4129      2.00000
     15       0.5759      2.00000
     16       1.1032      2.00000
     17       1.4141      2.00000
     18       1.6841      2.00000
     19       2.1445      2.00000
     20       2.4364      2.00000
     21       4.3217      0.00000
     22       5.9136      0.00000
     23       6.2779      0.00000
     24       6.4915      0.00000
     25       6.5911      0.00000
     26       6.9552      0.00000
     27       7.4997      0.00000
     28       7.8843      0.00000
     29       8.1111      0.00000
     30       8.3196      0.00000
     31       8.4001      0.00000
     32       9.5134      0.00000

 k-point    16 :       0.5000    0.3333    0.0000
  band No.  band energies     occupation 
      1      -9.4505      2.00000
      2      -9.4429      2.00000
      3      -9.3982      2.00000
      4      -9.3902      2.00000
      5      -4.8288      2.00000
      6      -4.8166      2.00000
      7      -4.5596      2.00000
      8      -4.5439      2.00000
      9      -1.3092      2.00000
     10      -1.3086      2.00000
     11      -0.8736      2.00000
     12      -0.8626      2.00000
     13      -0.2786      2.00000
     14      -0.2566      2.00000
     15       0.4001      2.00000
     16       0.4084      2.00000
     17       1.1350      2.00000
     18       1.2357      2.00000
     19       2.0422      2.00000
     20       2.1290      2.00000
     21       5.2865      0.00000
     22       5.2942      0.00000
     23       6.6463      0.00000
     24       6.6665      0.00000
     25       7.2542      0.00000
     26       7.2741      0.00000
     27       7.5132      0.00000
     28       7.5582      0.00000
     29       7.9238      0.00000
     30       7.9397      0.00000
     31       9.1089      0.00000
     32       9.1374      0.00000

 k-point    17 :       0.0000    0.5000    0.0000
  band No.  band energies     occupation 
      1     -10.1196      2.00000
      2     -10.1196      2.00000
      3      -9.8375      2.00000
      4      -9.8375      2.00000
      5      -5.2098      2.00000
      6      -5.2098      2.00000
      7      -4.1470      2.00000
      8      -4.1470      2.00000
      9      -0.4113      2.00000
     10      -0.4113      2.00000
     11       1.1626      2.00000
     12       1.1626      2.00000
     13       1.4226      2.00000
     14       1.4226      2.00000
     15       1.8605      2.00000
     16       1.8605      2.00000
     17       2.3002      2.00000
     18       2.3002      2.00000
     19       2.8941      2.00000
     20       2.8941      2.00000
     21       4.5871      0.00000
     22       4.5871      0.00000
     23       5.2355      0.00000
     24       5.2355      0.00000
     25       5.6410      0.00000
     26       5.6410      0.00000
     27       5.7837      0.00000
     28       5.7837      0.00000
     29       6.7261      0.00000
     30       6.7261      0.00000
     31       8.8125      0.00000
     32       8.8125      0.00000

 k-point    18 :       0.1667    0.5000    0.0000
  band No.  band energies     occupation 
      1      -9.9782      2.00000
      2      -9.9777      2.00000
      3      -9.7175      2.00000
      4      -9.7169      2.00000
      5      -5.0863      2.00000
      6      -5.0814      2.00000
      7      -4.1119      2.00000
      8      -4.1032      2.00000
      9      -0.5040      2.00000
     10      -0.5025      2.00000
     11      -0.1477      2.00000
     12      -0.1322      2.00000
     13       0.2026      2.00000
     14       0.2071      2.00000
     15       1.6301      2.00000
     16       1.6837      2.00000
     17       2.2759      2.00000
     18       2.4099      2.00000
     19       2.7547      2.00000
     20       2.8180      2.00000
     21       4.7514      0.00000
     22       4.7704      0.00000
     23       5.6784      0.00000
     24       5.6927      0.00000
     25       6.4213      0.00000
     26       6.4787      0.00000
     27       7.0085      0.00000
     28       7.0092      0.00000
     29       7.5105      0.00000
     30       7.5217      0.00000
     31       8.5418      0.00000
     32       8.5440      0.00000

 k-point    19 :       0.3333    0.5000    0.0000
  band No.  band energies     occupation 
      1      -9.6398      2.00000
      2      -9.6381      2.00000
      3      -9.4622      2.00000
      4      -9.4602      2.00000
      5      -4.8442      2.00000
      6      -4.8327      2.00000
      7      -4.2358      2.00000
      8      -4.2171      2.00000
      9      -1.5439      2.00000
     10      -1.5262      2.00000
     11      -0.9548      2.00000
     12      -0.9534      2.00000
     13      -0.1286      2.00000
     14      -0.1234      2.00000
     15       0.7263      2.00000
     16       0.7994      2.00000
     17       1.1569      2.00000
     18       1.3117      2.00000
     19       2.1922      2.00000
     20       2.2749      2.00000
     21       5.3031      0.00000
     22       5.3035      0.00000
     23       6.9956      0.00000
     24       7.0044      0.00000
     25       7.6216      0.00000
     26       7.6272      0.00000
     27       7.8487      0.00000
     28       7.9396      0.00000
     29       8.2726      0.00000
     30       8.3226      0.00000
     31       9.1868      0.00000
     32       9.2454      0.00000

 k-point    20 :       0.5000    0.5000    0.0000
  band No.  band energies     occupation 
      1      -9.4003      2.00000
      2      -9.3844      2.00000
      3      -9.3709      2.00000
      4      -9.3545      2.00000
      5      -4.6744      2.00000
      6      -4.6202      2.00000
      7      -4.5884      2.00000
      8      -4.5293      2.00000
      9      -1.5899      2.00000
     10      -1.5753      2.00000
     11      -1.2336      2.00000
     12      -1.2155      2.00000
     13      -0.4404      2.00000
     14      -0.3691      2.00000
     15      -0.0416      2.00000
     16      -0.0052      2.00000
     17       1.1883      2.00000
     18       1.4268      2.00000
[...]
     32       8.0522      0.00000

 k-point    32 :       0.1667    0.3333    0.5000
  band No.  band energies     occupation 
      1     -10.2502      2.00000
      2     -10.2502      2.00000
      3      -9.5134      2.00000
      4      -9.5134      2.00000
      5      -4.9898      2.00000
      6      -4.9898      2.00000
      7      -3.8848      2.00000
      8      -3.8848      2.00000
      9      -0.7155      2.00000
     10      -0.7155      2.00000
     11      -0.0427      2.00000
     12      -0.0427      2.00000
     13       0.4438      2.00000
     14       0.4438      2.00000
     15       1.5252      2.00000
     16       1.5252      2.00000
     17       2.2416      2.00000
     18       2.2416      2.00000
     19       2.5759      2.00000
     20       2.5759      2.00000
     21       5.2731      0.00000
     22       5.2731      0.00000
     23       5.7083      0.00000
     24       5.7083      0.00000
     25       6.3195      0.00000
     26       6.3195      0.00000
     27       6.7522      0.00000
     28       6.7522      0.00000
     29       7.5519      0.00000
     30       7.5519      0.00000
     31       8.2145      0.00000
     32       8.2145      0.00000

 k-point    33 :       0.1667   -0.3333    0.5000
  band No.  band energies     occupation 
      1     -10.2503      2.00000
      2     -10.2503      2.00000
      3      -9.5130      2.00000
      4      -9.5130      2.00000
      5      -4.9972      2.00000
      6      -4.9972      2.00000
      7      -3.8767      2.00000
      8      -3.8767      2.00000
      9      -0.7207      2.00000
     10      -0.7207      2.00000
     11      -0.0280      2.00000
     12      -0.0280      2.00000
     13       0.4470      2.00000
     14       0.4470      2.00000
     15       1.5198      2.00000
     16       1.5198      2.00000
     17       2.2804      2.00000
     18       2.2804      2.00000
     19       2.5121      2.00000
     20       2.5121      2.00000
     21       5.3003      0.00000
     22       5.3003      0.00000
     23       5.6743      0.00000
     24       5.6743      0.00000
     25       6.3227      0.00000
     26       6.3227      0.00000
     27       6.7428      0.00000
     28       6.7428      0.00000
     29       7.6330      0.00000
     30       7.6330      0.00000
     31       8.2160      0.00000
     32       8.2160      0.00000

 k-point    34 :       0.3333    0.3333    0.5000
  band No.  band energies     occupation 
      1      -9.8354      2.00000
      2      -9.8354      2.00000
      3      -9.3400      2.00000
      4      -9.3400      2.00000
      5      -4.8785      2.00000
      6      -4.8785      2.00000
      7      -4.1900      2.00000
      8      -4.1900      2.00000
      9      -1.4348      2.00000
     10      -1.4348      2.00000
     11      -0.6578      2.00000
     12      -0.6578      2.00000
     13       0.0805      2.00000
     14       0.0805      2.00000
     15       0.7763      2.00000
     16       0.7763      2.00000
     17       1.5059      2.00000
     18       1.5059      2.00000
     19       2.3052      2.00000
     20       2.3052      2.00000
     21       5.5433      0.00000
     22       5.5433      0.00000
     23       6.1693      0.00000
     24       6.1693      0.00000
     25       6.4147      0.00000
     26       6.4147      0.00000
     27       7.5918      0.00000
     28       7.5918      0.00000
     29       7.8571      0.00000
     30       7.8571      0.00000
     31       9.3790      0.00000
     32       9.3790      0.00000

 k-point    35 :       0.3333   -0.3333    0.5000
  band No.  band energies     occupation 
      1      -9.8356      2.00000
      2      -9.8356      2.00000
      3      -9.3393      2.00000
      4      -9.3393      2.00000
      5      -4.8970      2.00000
      6      -4.8970      2.00000
      7      -4.1675      2.00000
      8      -4.1675      2.00000
      9      -1.4437      2.00000
     10      -1.4437      2.00000
     11      -0.6555      2.00000
     12      -0.6555      2.00000
     13       0.0907      2.00000
     14       0.0907      2.00000
     15       0.7717      2.00000
     16       0.7717      2.00000
     17       1.5324      2.00000
     18       1.5324      2.00000
     19       2.2639      2.00000
     20       2.2639      2.00000
     21       5.5255      0.00000
     22       5.5255      0.00000
     23       6.1515      0.00000
     24       6.1515      0.00000
     25       6.4599      0.00000
     26       6.4599      0.00000
     27       7.6403      0.00000
     28       7.6403      0.00000
     29       7.8715      0.00000
     30       7.8715      0.00000
     31       9.3337      0.00000
     32       9.3337      0.00000

 k-point    36 :       0.5000    0.3333    0.5000
  band No.  band energies     occupation 
      1      -9.4351      2.00000
      2      -9.4351      2.00000
      3      -9.4064      2.00000
      4      -9.4064      2.00000
      5      -4.7213      2.00000
      6      -4.7213      2.00000
      7      -4.6646      2.00000
      8      -4.6646      2.00000
      9      -1.0658      2.00000
     10      -1.0658      2.00000
     11      -1.0242      2.00000
     12      -1.0242      2.00000
     13      -0.1432      2.00000
     14      -0.1432      2.00000
     15      -0.0952      2.00000
     16      -0.0952      2.00000
     17       1.7830      2.00000
     18       1.7830      2.00000
     19       1.8472      2.00000
     20       1.8472      2.00000
     21       5.8531      0.00000
     22       5.8531      0.00000
     23       5.9142      0.00000
     24       5.9142      0.00000
     25       6.9926      0.00000
     26       6.9926      0.00000
     27       7.0595      0.00000
     28       7.0595      0.00000
     29       8.7009      0.00000
     30       8.7009      0.00000
     31       8.7496      0.00000
     32       8.7496      0.00000

 k-point    37 :       0.0000    0.5000    0.5000
  band No.  band energies     occupation 
      1     -10.1142      2.00000
      2     -10.1142      2.00000
      3      -9.8448      2.00000
      4      -9.8448      2.00000
      5      -5.1092      2.00000
      6      -5.1092      2.00000
      7      -4.3210      2.00000
      8      -4.3210      2.00000
      9       0.3548      2.00000
     10       0.3548      2.00000
     11       0.6964      2.00000
     12       0.6964      2.00000
     13       1.1707      2.00000
     14       1.1707      2.00000
     15       1.4143      2.00000
     16       1.4143      2.00000
     17       2.6509      2.00000
     18       2.6509      2.00000
     19       2.7924      2.00000
     20       2.7924      2.00000
     21       4.6281      0.00000
     22       4.6281      0.00000
     23       5.1942      0.00000
     24       5.1942      0.00000
     25       5.7197      0.00000
     26       5.7197      0.00000
     27       6.6369      0.00000
     28       6.6369      0.00000
     29       6.6469      0.00000
     30       6.6469      0.00000
     31       7.9124      0.00000
     32       7.9124      0.00000

 k-point    38 :       0.1667    0.5000    0.5000
  band No.  band energies     occupation 
      1      -9.9730      2.00000
      2      -9.9730      2.00000
      3      -9.7237      2.00000
      4      -9.7237      2.00000
      5      -4.9980      2.00000
      6      -4.9980      2.00000
      7      -4.2487      2.00000
      8      -4.2487      2.00000
      9      -0.3329      2.00000
     10      -0.3329      2.00000
     11      -0.1957      2.00000
     12      -0.1957      2.00000
     13       0.7935      2.00000
     14       0.7935      2.00000
     15       0.8911      2.00000
     16       0.8911      2.00000
     17       2.3566      2.00000
     18       2.3566      2.00000
     19       2.5282      2.00000
     20       2.5282      2.00000
     21       5.6210      0.00000
     22       5.6210      0.00000
     23       5.7182      0.00000
     24       5.7182      0.00000
     25       6.3045      0.00000
     26       6.3045      0.00000
     27       6.8609      0.00000
     28       6.8609      0.00000
     29       7.5211      0.00000
     30       7.5211      0.00000
     31       7.9308      0.00000
     32       7.9308      0.00000

 k-point    39 :       0.3333    0.5000    0.5000
  band No.  band energies     occupation 
      1      -9.6354      2.00000
      2      -9.6354      2.00000
      3      -9.4654      2.00000
      4      -9.4654      2.00000
      5      -4.7970      2.00000
      6      -4.7970      2.00000
      7      -4.2828      2.00000
      8      -4.2828      2.00000
      9      -1.2999      2.00000
     10      -1.2999      2.00000
     11      -1.2702      2.00000
     12      -1.2702      2.00000
     13       0.2314      2.00000
     14       0.2314      2.00000
     15       0.3250      2.00000
     16       0.3250      2.00000
     17       1.6685      2.00000
     18       1.6685      2.00000
     19       1.9379      2.00000
     20       1.9379      2.00000
     21       5.7982      0.00000
     22       5.7982      0.00000
     23       6.4139      0.00000
     24       6.4139      0.00000
     25       7.3631      0.00000
     26       7.3631      0.00000
     27       7.4199      0.00000
     28       7.4199      0.00000
     29       8.9308      0.00000
     30       8.9308      0.00000
     31       9.1266      0.00000
     32       9.1266      0.00000

 k-point    40 :       0.5000    0.5000    0.5000
  band No.  band energies     occupation 
      1      -9.3918      2.00000
      2      -9.3918      2.00000
      3      -9.3633      2.00000
      4      -9.3633      2.00000
      5      -4.6290      2.00000
      6      -4.6290      2.00000
      7      -4.5861      2.00000
      8      -4.5861      2.00000
      9      -1.2845      2.00000
     10      -1.2845      2.00000
     11      -1.2250      2.00000
     12      -1.2250      2.00000
     13      -0.5765      2.00000
     14      -0.5765      2.00000
     15      -0.5227      2.00000
     16      -0.5227      2.00000
     17       1.8448      2.00000
     18       1.8448      2.00000
     19       1.9069      2.00000
     20       1.9069      2.00000
     21       5.7524      0.00000
     22       5.7524      0.00000
     23       5.8104      0.00000
     24       5.8104      0.00000
     25       7.9252      0.00000
     26       7.9252      0.00000
     27       7.9707      0.00000
     28       7.9707      0.00000
     29       9.7012      0.00000
     30       9.7012      0.00000
     31       9.8022      0.00000
     32       9.8022      0.00000


--------------------------------------------------------------------------------------------------------


 soft charge-density along one line, spin component            1
         0         1         2         3         4         5         6         7         8         9
 total charge-density along one line
 
 pseudopotential strength for first ion, spin component:            1
 14.519  18.114   0.041   0.046   0.000   0.073   0.082   0.001
 18.114  22.614   0.051   0.058   0.001   0.092   0.104   0.001
  0.041   0.051   3.224  -0.003  -0.000   5.489  -0.005  -0.000
  0.046   0.058  -0.003   3.222   0.000  -0.005   5.485   0.000
  0.000   0.001  -0.000   0.000   3.226  -0.000   0.000   5.491
  0.073   0.092   5.489  -0.005  -0.000   9.401  -0.008  -0.000
  0.082   0.104  -0.005   5.485   0.000  -0.008   9.395   0.000
  0.001   0.001  -0.000   0.000   5.491  -0.000   0.000   9.405
 -0.000  -0.000   0.000  -0.000   0.007   0.000  -0.000   0.013
 -0.006  -0.007   0.012   0.013  -0.000   0.021   0.023  -0.000
 -0.003  -0.004  -0.003   0.012  -0.000  -0.007   0.022  -0.000
  0.000   0.000  -0.000   0.000   0.012  -0.000   0.000   0.022
  0.002   0.002  -0.012   0.000   0.000  -0.022   0.000   0.000
 total augmentation occupancy for first ion, spin component:            1
  2.714  -0.690   0.334   0.364   0.004  -0.062  -0.065  -0.001  -0.001  -0.007  -0.005  -0.001   0.011
 -0.690   0.654  -0.429  -0.478  -0.005   0.068   0.074   0.001   0.001   0.004   0.005   0.002  -0.007
  0.334  -0.429   1.232   0.078  -0.000  -0.200  -0.002   0.000   0.000   0.045  -0.098   0.001   0.001
  0.364  -0.478   0.078   1.296  -0.003  -0.002  -0.208   0.001   0.001  -0.020   0.098   0.001  -0.004
  0.004  -0.005  -0.000  -0.003   1.249   0.000   0.001  -0.215   0.144   0.000   0.001   0.038   0.000
 -0.062   0.068  -0.200  -0.002   0.000   0.037  -0.001  -0.000  -0.000  -0.007   0.016  -0.000   0.000
 -0.065   0.074  -0.002  -0.208   0.001  -0.001   0.038  -0.000  -0.000   0.003  -0.017  -0.000   0.001
 -0.001   0.001   0.000   0.001  -0.215  -0.000  -0.000   0.041  -0.025  -0.000  -0.000  -0.006  -0.000
 -0.001   0.001   0.000   0.001   0.144  -0.000  -0.000  -0.025   0.031  -0.000  -0.000   0.004  -0.000
 -0.007   0.004   0.045  -0.020   0.000  -0.007   0.003  -0.000  -0.000   0.012  -0.008  -0.000   0.002
 -0.005   0.005  -0.098   0.098   0.001   0.016  -0.017  -0.000  -0.000  -0.008   0.030  -0.000  -0.002
 -0.001   0.002   0.001   0.001   0.038  -0.000  -0.000  -0.006   0.004  -0.000  -0.000   0.011  -0.000
  0.011  -0.007   0.001  -0.004   0.000   0.000   0.001  -0.000  -0.000   0.002  -0.002  -0.000   0.009


------------------------ aborting loop because EDIFF is reached ----------------------------------------


    CHARGE:  cpu time      0.0087: real time      0.0087
    FORLOC:  cpu time      0.0004: real time      0.0004
    FORNL :  cpu time      0.0516: real time      0.0518
    STRESS:  cpu time      0.4621: real time      0.4639
    FORCOR:  cpu time      0.0091: real time      0.0091
    FORHAR:  cpu time      0.0022: real time      0.0022
    MIXING:  cpu time      0.0018: real time      0.0018
    OFIELD:  cpu time      0.0000: real time      0.0000

  FORCE on cell =-STRESS in cart. coord.  units (eV):
  Direction    XX          YY          ZZ          XY          YZ          ZX
  --------------------------------------------------------------------------------------
  Alpha Z    87.52689    87.52689    87.52689
  Ewald    -434.60179  -483.15228  -503.36218    -0.99701    -0.00000    -0.00000
  Hartree    63.36225    42.16691    29.51872    -0.29739    -0.00000     0.00000
  E(xc)    -141.09567  -141.13255  -141.37959    -0.00953     0.00000     0.00000
  Local    -193.21954  -129.49048  -100.72629     1.25467     0.00000    -0.00000
  n-local   240.34478   239.80638   241.37515     0.00333    -0.00000     0.00000
  augment   -11.39878   -11.80621   -12.17588     0.00096     0.00000    -0.00000
  Kinetic   390.05682   396.63233   399.47356    -0.07401     0.00000    -0.00000
  Fock        0.00000     0.00000     0.00000     0.00000     0.00000     0.00000
  -------------------------------------------------------------------------------------
  Total       0.97496     0.55099     0.25039    -0.11898     0.00000    -0.00000
  in kB       8.06889     4.56006     2.07225    -0.98471     0.00002    -0.00000
  external pressure =        4.90 kB  Pullay stress =        0.00 kB


 VOLUME and BASIS-vectors are now :
 -----------------------------------------------------------------------------
  energy-cutoff  :      520.00
  volume of cell :      193.59
      direct lattice vectors                 reciprocal lattice vectors
     3.858100176  0.000000000  0.000000000     0.259194929  0.000000000  0.000000000
     0.000000000  4.526575088  0.000000000     0.000000000  0.220917577  0.000000000
     0.000000000  0.000000000 11.085176468     0.000000000  0.000000000  0.090210562

  length of vectors
     3.858100176  4.526575088 11.085176468     0.259194929  0.220917577  0.090210562


 FORCES acting on ions
    electron-ion (+dipol)            ewald-force                    non-local-force                 convergence-correction
 -----------------------------------------------------------------------------------------------
   0.933E-01 0.153E+02 0.261E+02   -.127E+00 -.178E+02 -.290E+02   0.295E-01 0.252E+01 0.293E+01   0.114E-04 -.192E-04 -.135E-02
   0.933E-01 0.153E+02 -.261E+02   -.127E+00 -.178E+02 0.290E+02   0.295E-01 0.252E+01 -.293E+01   0.107E-04 -.202E-04 0.135E-02
   -.933E-01 -.153E+02 -.261E+02   0.127E+00 0.178E+02 0.290E+02   -.295E-01 -.252E+01 -.293E+01   -.113E-04 0.192E-04 0.134E-02
   -.933E-01 -.153E+02 0.261E+02   0.127E+00 0.178E+02 -.290E+02   -.295E-01 -.252E+01 0.293E+01   -.109E-04 0.214E-04 -.134E-02
   0.196E+00 -.142E+02 -.246E+02   -.164E+00 0.158E+02 0.262E+02   -.557E-01 -.152E+01 -.159E+01   -.182E-04 0.211E-03 0.260E-02
   0.196E+00 -.142E+02 0.246E+02   -.164E+00 0.158E+02 -.262E+02   -.557E-01 -.152E+01 0.159E+01   -.201E-04 0.208E-03 -.260E-02
   -.196E+00 0.142E+02 0.246E+02   0.164E+00 -.158E+02 -.262E+02   0.558E-01 0.152E+01 0.159E+01   0.184E-04 -.215E-03 -.259E-02
   -.196E+00 0.142E+02 -.246E+02   0.164E+00 -.158E+02 0.262E+02   0.558E-01 0.152E+01 -.159E+01   0.189E-04 -.217E-03 0.259E-02
 -----------------------------------------------------------------------------------------------
   0.742E-05 0.676E-05 -.354E-05   -.366E-14 0.000E+00 -.178E-13   0.195E-03 -.273E-03 0.518E-07   -.122E-05 -.104E-04 0.311E-05
 
 
 POSITION                                       TOTAL-FORCE (eV/Angst)
 -----------------------------------------------------------------------------------
      1.07635      0.45097      1.36328        -0.003728     -0.014885      0.050311
      3.00540      2.71426      4.17930        -0.003728     -0.014886     -0.050311
      2.89358      4.01000      9.72189         0.003688      0.014903     -0.050356
      0.96453      1.74671      6.90587         0.003689      0.014903      0.050357
      1.07635      4.43069      3.90621        -0.023126      0.049389     -0.035056
      3.00540      2.16740      1.63637        -0.023126      0.049389      0.035056
      2.89358      0.03028      7.17896         0.023165     -0.049406      0.035032
      0.96453      2.29357      9.44880         0.023165     -0.049406     -0.035033
 -----------------------------------------------------------------------------------
    total drift:                                0.000201     -0.000277     -0.000000


--------------------------------------------------------------------------------------------------------



  FREE ENERGIE OF THE ION-ELECTRON SYSTEM (eV)
  ---------------------------------------------------
  free  energy   TOTEN  =       -33.81191406 eV

  energy  without entropy=      -33.81191406  energy(sigma->0) =      -33.81191406
 


--------------------------------------------------------------------------------------------------------


    POTLOK:  cpu time      0.2288: real time      0.2295


--------------------------------------------------------------------------------------------------------


     LOOP+:  cpu time      8.1042: real time      8.1429
    4ORBIT:  cpu time      0.0000: real time      0.0000

 total amount of memory used by VASP MPI-rank0    41770. kBytes
=======================================================================

   base      :      30000. kBytes
   nonl-proj :       9056. kBytes
   fftplans  :        519. kBytes
   grid      :        766. kBytes
   one-center:         16. kBytes
   wavefun   :       1413. kBytes
 
  
  
 General timing and accounting informations for this job:
 ========================================================
  
                  Total CPU time used (sec):        9.877
                            User time (sec):        9.523
                          System time (sec):        0.354
                         Elapsed time (sec):       10.192
  
                   Maximum memory used (kb):      178440.
                   Average memory used (kb):          N/A
  
                          Minor page faults:        21830
                          Major page faults:           38
                 Voluntary context switches:         1858
