 vasp.6.4.1 05Apr23 (build May 18 2023 13:19:41) complex                         
 executed on    LinuxNV_CrayMPICH date 2023.12.11  11:57:48
 running  256 mpi-ranks, with    1 threads/rank, on    7 nodes
 distrk:  each k-point on  128 cores,    2 groups
 distr:  one band on NCORE=   4 cores,   32 groups


--------------------------------------------------------------------------------------------------------


 INCAR:
   SIGMA = 0.010000
   EDIFF = 1.00e-06
   ALGO = N
   GGA = PE
   PREC = Accurate
   SYSTEM = 02_SCF
   ICHARG = 0
   ISMEAR = 0
   ISPIN = 1
   ISTART = 1
   KPAR = 2
   LORBIT = 11
   NBANDS = 896
   NELMIN = 5
   NPAR = 32
   IVDW = 11
   LCHARG = .TRUE.
   LWAVE = .TRUE.
   LREAL = .FALSE.

 POTCAR:   PAW_PBE C 08Apr2002                    
 POTCAR:    PAW_PBE S 17Jan2003                   
 POTCAR:   PAW_PBE C 08Apr2002                    
   VRHFIN =C: s2p2                                                                                  
   LEXCH  = PE                                                                                      
   EATOM  =   147.1560 eV,   10.8157 Ry                                                             
                                                                                                    
   TITEL  = PAW_PBE C 08Apr2002                                                                     
   LULTRA =        F    use ultrasoft PP ?                                                          
   IUNSCR =        0    unscreen: 0-lin 1-nonlin 2-no                                               
   RPACOR =     .000    partial core radius                                                         
   POMASS =   12.011; ZVAL   =    4.000    mass and valenz                                          
   RCORE  =    1.500    outmost cutoff radius                                                       
   RWIGS  =    1.630; RWIGS  =     .863    wigner-seitz radius (au A)                               
   ENMAX  =  400.000; ENMIN  =  300.000 eV                                                          
   ICORE  =        2    local potential                                                             
   LCOR   =        T    correct aug charges                                                         
   LPAW   =        T    paw PP                                                                      
   EAUG   =  644.873                                                                                
   DEXC   =     .000                                                                                
   RMAX   =    2.266    core radius for proj-oper                                                   
   RAUG   =    1.300    factor for augmentation sphere                                              
   RDEP   =    1.501    radius for radial grids                                                     
   RDEPT  =    1.300    core radius for aug-charge                                                  
   QCUT   =   -5.516; QGAM   =   11.032    optimization parameters                                  
                                                                                                    
   Description                                                                                      
     l     E      TYP  RCUT    TYP  RCUT                                                            
     0   .000     23  1.200                                                                         
     0   .000     23  1.200                                                                         
     1   .000     23  1.500                                                                         
     1  2.500     23  1.500                                                                         
     2   .000      7  1.500                                                                         
  local pseudopotential read in
  atomic valenz-charges read in
  non local Contribution for L=            0  read in
    real space projection operators read in
  non local Contribution for L=            0  read in
    real space projection operators read in
  non local Contribution for L=            1  read in
    real space projection operators read in
  non local Contribution for L=            1  read in
    real space projection operators read in
    PAW grid and wavefunctions read in
 
   number of l-projection  operators is LMAX  =            4
   number of lm-projection operators is LMMAX =            8
 
 POTCAR:    PAW_PBE S 17Jan2003                   
   VRHFIN =S : s2p4                                                                                 
   LEXCH  = PE                                                                                      
   EATOM  =   276.8230 eV,   20.3459 Ry                                                             
                                                                                                    
   TITEL  = PAW_PBE S 17Jan2003                                                                     
   LULTRA =        F    use ultrasoft PP ?                                                          
   IUNSCR =        1    unscreen: 0-lin 1-nonlin 2-no                                               
   RPACOR =    1.500    partial core radius                                                         
   POMASS =   32.066; ZVAL   =    6.000    mass and valenz                                          
   RCORE  =    1.900    outmost cutoff radius                                                       
   RWIGS  =    2.200; RWIGS  =    1.164    wigner-seitz radius (au A)                               
   ENMAX  =  280.000; ENMIN  =  194.016 eV                                                          
   ICORE  =        2    local potential                                                             
   LCOR   =        T    correct aug charges                                                         
   LPAW   =        T    paw PP                                                                      
   EAUG   =  335.092                                                                                
   DEXC   =     .000                                                                                
   RMAX   =    2.867    core radius for proj-oper                                                   
   RAUG   =    1.300    factor for augmentation sphere                                              
   RDEP   =    1.954    radius for radial grids                                                     
   QCUT   =   -4.360; QGAM   =    8.721    optimization parameters                                  
                                                                                                    
   Description                                                                                      
     l     E      TYP  RCUT    TYP  RCUT                                                            
     0   .000     23  1.900                                                                         
     0   .000     23  1.900                                                                         
     1   .000     23  1.900                                                                         
     1   .000     23  1.900                                                                         
     2   .000     23  1.900                                                                         
  local pseudopotential read in
  partial core-charges read in
  atomic valenz-charges read in
  non local Contribution for L=            0  read in
    real space projection operators read in
  non local Contribution for L=            0  read in
    real space projection operators read in
  non local Contribution for L=            1  read in
    real space projection operators read in
  non local Contribution for L=            1  read in
    real space projection operators read in
    PAW grid and wavefunctions read in
 
   number of l-projection  operators is LMAX  =            4
   number of lm-projection operators is LMMAX =            8
 
 -----------------------------------------------------------------------------
|                                                                             |
|               ----> ADVICE to this user running VASP <----                  |
|                                                                             |
|     You have a (more or less) 'large supercell' and for larger cells it     |
|     might be more efficient to use real-space projection operators.         |
|     Therefore, try LREAL= Auto in the INCAR file.                           |
|     Mind: If you want to do very accurate calculations, keep the            |
|     reciprocal projection scheme (i.e. LREAL=.FALSE.).                      |
|                                                                             |
 -----------------------------------------------------------------------------

 PAW_PBE C 08Apr2002                    :
 energy of atom  1       EATOM= -147.1560
 kinetic energy error for atom=    0.0288 (will be added to EATOM!!)
  PAW_PBE S 17Jan2003                   :
 energy of atom  2       EATOM= -276.8230
 kinetic energy error for atom=    0.0046 (will be added to EATOM!!)
 
 
 POSCAR:  C  S
  positions in cartesian coordinates
  No initial velocities read in
 exchange correlation table for  LEXCH =        8
   RHO(1)=    0.500       N(1)  =     2000
   RHO(2)=  100.500       N(2)  =     4000
 


--------------------------------------------------------------------------------------------------------


 ion  position               nearest neighbor table
   1  0.371  0.538  0.002-  85 1.42 363 1.42 288 1.43
   2  0.369  0.544  0.063- 108 1.42  85 1.42   3 1.43
   3  0.338  0.595  0.061-   4 1.42   8 1.42   2 1.43
   4  0.320  0.611  0.030-   3 1.42 288 1.42   5 1.43
   5  0.278  0.629  0.028- 310 1.42  10 1.42   4 1.43
   6  0.366  0.549  0.123- 131 1.42 108 1.42   7 1.43
   7  0.335  0.599  0.122-   8 1.42  16 1.42   6 1.43
   8  0.317  0.614  0.090-   7 1.42   3 1.42   9 1.43
   9  0.274  0.629  0.089-  10 1.42  18 1.42   8 1.43
  10  0.254  0.627  0.057-   9 1.42   5 1.42  11 1.43
  11  0.212  0.603  0.056-  12 1.42  20 1.42  10 1.43
  12  0.196  0.584  0.024-  11 1.42 311 1.42  13 1.43
  13  0.168  0.528  0.023- 329 1.42  22 1.42  12 1.43
  14  0.364  0.554  0.184- 154 1.42 131 1.42  15 1.43
  15  0.331  0.602  0.182-  16 1.42  28 1.42  14 1.43
  16  0.313  0.617  0.151-  15 1.42   7 1.42  17 1.43
  17  0.270  0.629  0.149-  18 1.42  30 1.42  16 1.43
  18  0.250  0.626  0.118-  17 1.42   9 1.42  19 1.43
  19  0.209  0.599  0.116-  20 1.42  32 1.42  18 1.43
  20  0.193  0.579  0.085-  19 1.42  11 1.42  21 1.43
  21  0.166  0.522  0.083-  22 1.42  34 1.42  20 1.43
  22  0.159  0.492  0.052-  21 1.42  13 1.42  23 1.43
  23  0.155  0.420  0.050-  24 1.42  36 1.42  22 1.43
  24  0.159  0.388  0.019-  23 1.42 330 1.42  25 1.43
  25  0.178  0.324  0.017- 344 1.42  38 1.42  24 1.43
  26  0.361  0.560  0.244- 177 1.42 154 1.42  27 1.43
  27  0.328  0.605  0.242-  28 1.42  45 1.42  26 1.43
  28  0.309  0.619  0.211-  27 1.42  15 1.42  29 1.43
  29  0.266  0.629  0.209-  30 1.42  47 1.42  28 1.43
  30  0.246  0.625  0.178-  29 1.42  17 1.42  31 1.43
  31  0.205  0.596  0.176-  32 1.42  49 1.42  30 1.43
  32  0.190  0.575  0.145-  31 1.42  19 1.42  33 1.43
  33  0.164  0.516  0.144-  34 1.42  51 1.42  32 1.43
  34  0.158  0.485  0.112-  33 1.42  21 1.42  35 1.43
  35  0.155  0.414  0.111-  36 1.42  53 1.42  34 1.43
  36  0.160  0.382  0.079-  35 1.42  23 1.42  37 1.43
  37  0.181  0.319  0.078-  38 1.42  55 1.42  36 1.43
  38  0.195  0.295  0.046-  37 1.42  25 1.42  39 1.43
  39  0.233  0.260  0.045-  40 1.42  57 1.42  38 1.43
  40  0.253  0.252  0.013-  39 1.42 345 1.42  41 1.43
  41  0.297  0.254  0.012- 355 1.42  59 1.42  40 1.43
  42  0.371  0.538  0.336-  43 1.42 199 1.42  64 1.43
  43  0.359  0.565  0.305-  42 1.42 177 1.42  44 1.43
  44  0.324  0.609  0.303-  45 1.42  66 1.42  43 1.43
  45  0.305  0.621  0.272-  44 1.42  27 1.42  46 1.43
  46  0.262  0.629  0.270-  47 1.42  68 1.42  45 1.43
  47  0.242  0.623  0.239-  46 1.42  29 1.42  48 1.43
  48  0.202  0.592  0.237-  49 1.42  70 1.42  47 1.43
  49  0.187  0.570  0.206-  48 1.42  31 1.42  50 1.43
  50  0.163  0.510  0.204-  51 1.42  72 1.42  49 1.43
  51  0.157  0.479  0.173-  50 1.42  33 1.42  52 1.43
  52  0.156  0.407  0.171-  53 1.42  74 1.42  51 1.43
  53  0.161  0.375  0.140-  52 1.42  35 1.42  54 1.43
  54  0.183  0.314  0.138-  55 1.42  76 1.42  53 1.43
  55  0.198  0.291  0.107-  54 1.42  37 1.42  56 1.43
  56  0.237  0.258  0.105-  57 1.42  78 1.42  55 1.43
  57  0.257  0.251  0.074-  56 1.42  39 1.42  58 1.43
  58  0.301  0.255  0.072-  59 1.42  80 1.42  57 1.43
  59  0.320  0.266  0.041-  58 1.42  41 1.42  60 1.43
  60  0.356  0.308  0.039-  61 1.42  82 1.42  59 1.43
  61  0.368  0.334  0.008-  60 1.42 356 1.42  62 1.43
  62  0.386  0.399  0.006- 362 1.42  84 1.42  61 1.43
  63  0.370  0.544  0.396-  64 1.41  87 1.43 221 1.43
  64  0.357  0.570  0.365-  63 1.41  42 1.43  65 1.43
  65  0.321  0.611  0.363-  89 1.42  66 1.42  64 1.43
  66  0.301  0.622  0.332-  65 1.42  44 1.42  67 1.43
  67  0.258  0.628  0.330-  91 1.42  68 1.42  66 1.43
  68  0.238  0.621  0.299-  46 1.42  67 1.42  69 1.43
  69  0.199  0.588  0.297-  70 1.42  93 1.42  68 1.43
  70  0.184  0.566  0.266-  69 1.42  48 1.42  71 1.43
  71  0.161  0.504  0.264-  72 1.42  95 1.42  70 1.43
  72  0.156  0.472  0.233-  71 1.42  50 1.42  73 1.43
  73  0.157  0.401  0.231-  74 1.42  97 1.42  72 1.43
  74  0.163  0.369  0.200-  73 1.42  52 1.42  75 1.43
  75  0.186  0.309  0.198-  76 1.42  99 1.42  74 1.43
  76  0.201  0.287  0.167-  75 1.42  54 1.42  77 1.43
  77  0.241  0.256  0.165-  78 1.42 101 1.42  76 1.43
  78  0.261  0.250  0.134-  77 1.42  56 1.42  79 1.43
  79  0.305  0.257  0.132-  80 1.42 103 1.42  78 1.43
  80  0.323  0.269  0.101-  79 1.42  58 1.42  81 1.43
  81  0.358  0.313  0.100-  82 1.42 105 1.42  80 1.43
  82  0.371  0.339  0.068-  81 1.42  60 1.42  83 1.43
  83  0.386  0.406  0.067-  84 1.42 107 1.42  82 1.43
  84  0.388  0.439  0.035-  83 1.42  62 1.42  85 1.43
  85  0.380  0.509  0.034-   1 1.42   2 1.42  84 1.43
  86  0.368  0.550  0.457- 110 1.40  87 1.41 243 1.48
  87  0.354  0.573  0.426-  86 1.41  88 1.43  63 1.43
  88  0.317  0.612  0.424- 112 1.42  89 1.42  87 1.43
  89  0.298  0.623  0.393-  65 1.42  88 1.42  90 1.43
  90  0.254  0.626  0.391-  91 1.42 114 1.42  89 1.43
  91  0.234  0.619  0.360-  90 1.42  67 1.42  92 1.43
  92  0.195  0.584  0.358-  93 1.42 116 1.42  91 1.43
  93  0.181  0.560  0.327-  92 1.42  69 1.42  94 1.43
  94  0.160  0.498  0.325-  95 1.42 118 1.42  93 1.43
  95  0.156  0.466  0.294-  94 1.42  71 1.42  96 1.43
  96  0.158  0.394  0.292-  97 1.42 120 1.42  95 1.43
  97  0.164  0.363  0.261-  96 1.42  73 1.42  98 1.43
  98  0.189  0.304  0.259-  99 1.42 122 1.42  97 1.43
  99  0.205  0.283  0.228-  98 1.42  75 1.42 100 1.43
 100  0.245  0.254  0.226- 101 1.42 124 1.42  99 1.43
 101  0.265  0.249  0.195- 100 1.42  77 1.42 102 1.43
 102  0.308  0.259  0.193- 103 1.42 126 1.42 101 1.43
 103  0.327  0.272  0.162- 102 1.42  79 1.42 104 1.43
 104  0.361  0.317  0.160- 105 1.42 128 1.42 103 1.43
 105  0.373  0.345  0.129- 104 1.42  81 1.42 106 1.43
 106  0.387  0.412  0.127- 107 1.42 130 1.42 105 1.43
 107  0.388  0.445  0.096- 106 1.42  83 1.42 108 1.43
 108  0.378  0.515  0.094-   2 1.42   6 1.42 107 1.43
 109  0.364  0.552  0.517- 265 1.40 133 1.43 110 1.44
 110  0.351  0.576  0.486-  86 1.40 111 1.43 109 1.44
 111  0.313  0.614  0.484- 112 1.42 135 1.42 110 1.43
 112  0.294  0.623  0.453- 111 1.42  88 1.42 113 1.43
 113  0.249  0.625  0.451- 137 1.42 114 1.42 112 1.43
 114  0.230  0.616  0.420- 113 1.42  90 1.42 115 1.43
 115  0.192  0.579  0.418- 116 1.42 139 1.42 114 1.43
 116  0.179  0.555  0.387- 115 1.42  92 1.42 117 1.43
 117  0.159  0.492  0.385- 118 1.42 141 1.42 116 1.43
 118  0.155  0.459  0.354- 117 1.42  94 1.42 119 1.43
 119  0.159  0.388  0.352- 120 1.42 143 1.42 118 1.43
 120  0.166  0.357  0.321- 119 1.42  96 1.42 121 1.43
 121  0.192  0.300  0.319- 122 1.42 145 1.42 120 1.43
 122  0.208  0.279  0.288- 121 1.42  98 1.42 123 1.43
 123  0.249  0.252  0.286- 124 1.42 147 1.42 122 1.43
 124  0.269  0.249  0.255- 123 1.42 100 1.42 125 1.43
 125  0.312  0.261  0.253- 126 1.42 149 1.42 124 1.43
 126  0.330  0.275  0.222- 125 1.42 102 1.42 127 1.43
 127  0.363  0.322  0.220- 128 1.42 151 1.42 126 1.43
 128  0.374  0.350  0.189- 127 1.42 104 1.42 129 1.43
 129  0.387  0.419  0.187- 130 1.42 153 1.42 128 1.43
 130  0.388  0.452  0.156- 129 1.42 106 1.42 131 1.43
 131  0.377  0.521  0.154-   6 1.42  14 1.42 130 1.43
 132  0.361  0.559  0.578- 133 1.42 287 1.42 156 1.42
 133  0.347  0.582  0.547- 132 1.42 134 1.42 109 1.43
 134  0.309  0.617  0.545- 158 1.42 135 1.42 133 1.42
 135  0.290  0.624  0.513- 111 1.42 134 1.42 136 1.42
 136  0.246  0.623  0.512- 137 1.42 160 1.42 135 1.42
 137  0.226  0.614  0.480- 113 1.42 136 1.42 138 1.43
 138  0.189  0.575  0.479- 139 1.42 162 1.42 137 1.43
 139  0.176  0.550  0.447- 138 1.42 115 1.42 140 1.43
 140  0.158  0.485  0.446- 164 1.42 141 1.42 139 1.43
 141  0.154  0.453  0.415- 140 1.42 117 1.42 142 1.43
 142  0.160  0.382  0.413- 143 1.42 166 1.42 141 1.43
 143  0.167  0.351  0.382- 142 1.42 119 1.42 144 1.43
 144  0.195  0.295  0.380- 168 1.42 145 1.42 143 1.43
 145  0.211  0.276  0.349- 144 1.42 121 1.42 146 1.43
 146  0.253  0.251  0.347- 170 1.42 147 1.42 145 1.43
 147  0.273  0.249  0.316- 123 1.42 146 1.42 148 1.43
 148  0.316  0.263  0.314- 149 1.42 172 1.42 147 1.43
 149  0.334  0.278  0.283- 148 1.42 125 1.42 150 1.43
 150  0.366  0.328  0.281- 174 1.42 151 1.42 149 1.43
 151  0.376  0.356  0.250- 150 1.42 127 1.42 152 1.43
 152  0.387  0.425  0.248- 153 1.42 176 1.42 151 1.43
 153  0.387  0.458  0.217- 152 1.42 129 1.42 154 1.43
 154  0.375  0.527  0.215-  14 1.42  26 1.42 153 1.43
 155  0.359  0.564  0.638- 156 1.42 179 1.42 309 1.43
 156  0.344  0.587  0.607- 155 1.42 132 1.42 157 1.42
 157  0.305  0.621  0.605- 158 1.42 181 1.42 156 1.42
 158  0.286  0.627  0.574- 134 1.42 157 1.42 159 1.43
 159  0.242  0.623  0.572- 160 1.42 183 1.42 158 1.43
 160  0.223  0.612  0.541- 159 1.42 136 1.42 161 1.43
 161  0.187  0.570  0.539- 185 1.42 162 1.42 160 1.43
 162  0.174  0.545  0.508- 138 1.42 161 1.42 163 1.43
 163  0.157  0.479  0.506- 164 1.42 187 1.42 162 1.43
 164  0.154  0.446  0.475- 140 1.42 163 1.42 165 1.43
 165  0.161  0.375  0.473- 189 1.42 166 1.42 164 1.43
 166  0.169  0.345  0.442- 165 1.42 142 1.42 167 1.43
 167  0.198  0.291  0.440- 191 1.42 168 1.42 166 1.43
 168  0.215  0.273  0.409- 144 1.42 167 1.42 169 1.43
 169  0.256  0.251  0.407- 170 1.42 193 1.42 168 1.43
 170  0.277  0.249  0.376- 169 1.42 146 1.42 171 1.43
 171  0.319  0.267  0.374- 195 1.42 172 1.42 170 1.43
 172  0.337  0.282  0.343- 171 1.42 148 1.42 173 1.42
 173  0.368  0.333  0.341- 174 1.42 197 1.42 172 1.42
 174  0.378  0.362  0.310- 173 1.42 150 1.42 175 1.43
 175  0.388  0.432  0.308- 176 1.42 199 1.42 174 1.43
 176  0.387  0.465  0.277- 175 1.42 152 1.42 177 1.43
 177  0.373  0.532  0.275-  26 1.42  43 1.42 176 1.43
 178  0.356  0.569  0.699- 179 1.42 201 1.42 328 1.43
 179  0.341  0.591  0.667- 155 1.42 178 1.42 180 1.43
 180  0.301  0.623  0.666- 181 1.42 203 1.42 179 1.43
 181  0.282  0.629  0.634- 180 1.42 157 1.42 182 1.43
 182  0.238  0.621  0.633- 205 1.42 183 1.42 181 1.43
 183  0.219  0.609  0.601- 159 1.42 182 1.42 184 1.43
 184  0.184  0.566  0.600- 185 1.42 207 1.42 183 1.43
 185  0.172  0.539  0.568- 161 1.42 184 1.42 186 1.43
 186  0.156  0.473  0.567- 209 1.42 187 1.42 185 1.43
 187  0.154  0.440  0.535- 186 1.42 163 1.42 188 1.43
 188  0.162  0.369  0.534- 189 1.42 211 1.42 187 1.43
 189  0.171  0.340  0.502- 165 1.42 188 1.42 190 1.43
 190  0.201  0.287  0.501- 191 1.42 213 1.42 189 1.43
 191  0.218  0.269  0.470- 190 1.42 167 1.42 192 1.43
 192  0.260  0.250  0.468- 215 1.42 193 1.42 191 1.43
 193  0.281  0.251  0.437- 192 1.42 169 1.42 194 1.42
 194  0.323  0.271  0.435- 217 1.42 195 1.42 193 1.42
 195  0.340  0.288  0.404- 171 1.42 194 1.42 196 1.42
 196  0.370  0.340  0.402- 197 1.42 195 1.42 219 1.43
 197  0.379  0.368  0.370- 196 1.42 198 1.42 173 1.42
 198  0.388  0.438  0.368- 221 1.42 199 1.42 197 1.42
 199  0.386  0.471  0.337- 198 1.42 175 1.42  42 1.42
 200  0.353  0.574  0.759- 201 1.42 223 1.42 343 1.43
 201  0.338  0.595  0.728- 200 1.42 178 1.42 202 1.43
 202  0.298  0.624  0.726- 203 1.42 225 1.42 201 1.43
 203  0.278  0.629  0.695- 202 1.42 180 1.42 204 1.43
 204  0.234  0.619  0.693- 205 1.42 227 1.42 203 1.43
 205  0.215  0.606  0.662- 204 1.42 182 1.42 206 1.43
 206  0.181  0.561  0.660- 207 1.42 229 1.42 205 1.43
 207  0.170  0.534  0.629- 206 1.42 184 1.42 208 1.43
 208  0.156  0.466  0.627- 209 1.42 231 1.42 207 1.43
 209  0.154  0.433  0.596- 186 1.42 208 1.42 210 1.43
 210  0.164  0.363  0.594- 211 1.42 233 1.42 209 1.43
 211  0.173  0.334  0.563- 210 1.42 188 1.42 212 1.43
 212  0.204  0.283  0.561- 213 1.42 235 1.42 211 1.43
 213  0.222  0.267  0.530- 212 1.42 190 1.42 214 1.43
 214  0.264  0.250  0.528- 215 1.42 237 1.42 213 1.43
 215  0.285  0.251  0.497- 192 1.42 214 1.42 216 1.43
 216  0.326  0.274  0.495- 217 1.42 239 1.42 215 1.43
 217  0.343  0.293  0.464- 216 1.42 194 1.42 218 1.43
 218  0.372  0.347  0.463- 241 1.40 217 1.43 219 1.44
 219  0.381  0.377  0.431- 220 1.40 196 1.43 218 1.44
 220  0.389  0.445  0.428- 219 1.40 221 1.41 243 1.47
 221  0.386  0.478  0.398- 220 1.41 198 1.42  63 1.43
 222  0.351  0.579  0.819- 223 1.42 245 1.42 354 1.43
 223  0.334  0.599  0.788- 222 1.42 200 1.42 224 1.43
 224  0.294  0.626  0.786- 225 1.42 247 1.42 223 1.43
 225  0.274  0.629  0.755- 224 1.42 202 1.42 226 1.43
 226  0.230  0.617  0.753- 227 1.42 249 1.42 225 1.43
 227  0.212  0.603  0.722- 226 1.42 204 1.42 228 1.43
 228  0.179  0.556  0.720- 229 1.42 251 1.42 227 1.43
 229  0.168  0.528  0.689- 228 1.42 206 1.42 230 1.43
 230  0.155  0.460  0.687- 231 1.42 253 1.42 229 1.43
 231  0.155  0.427  0.656- 230 1.42 208 1.42 232 1.43
 232  0.166  0.358  0.655- 233 1.42 255 1.42 231 1.43
 233  0.176  0.329  0.623- 232 1.42 210 1.42 234 1.43
 234  0.208  0.280  0.622- 235 1.42 257 1.42 233 1.43
 235  0.225  0.264  0.590- 234 1.42 212 1.42 236 1.43
 236  0.269  0.249  0.589- 237 1.42 259 1.42 235 1.43
 237  0.289  0.252  0.557- 236 1.42 214 1.42 238 1.43
 238  0.330  0.276  0.556- 261 1.42 239 1.42 237 1.43
 239  0.346  0.296  0.524- 216 1.42 238 1.42 240 1.43
 240  0.375  0.351  0.523- 241 1.41 239 1.43 263 1.43
 241  0.384  0.380  0.492- 218 1.40 240 1.41 242 1.48
 242  0.397  0.452  0.490- 265 1.47 241 1.48 243 1.50 365 1.88
 243  0.393  0.488  0.458- 220 1.47  86 1.48 242 1.50 365 1.88
 244  0.348  0.583  0.880- 245 1.42 267 1.42 361 1.43
 245  0.331  0.602  0.849- 244 1.42 222 1.42 246 1.43
 246  0.290  0.627  0.847- 247 1.42 269 1.42 245 1.43
 247  0.270  0.629  0.816- 246 1.42 224 1.42 248 1.43
 248  0.226  0.615  0.814- 249 1.42 271 1.42 247 1.43
 249  0.208  0.599  0.783- 248 1.42 226 1.42 250 1.43
 250  0.176  0.550  0.781- 251 1.42 273 1.42 249 1.43
 251  0.166  0.522  0.750- 250 1.42 228 1.42 252 1.43
 252  0.155  0.453  0.748- 253 1.42 275 1.42 251 1.43
 253  0.155  0.420  0.717- 252 1.42 230 1.42 254 1.43
 254  0.168  0.352  0.715- 255 1.42 277 1.42 253 1.43
 255  0.178  0.324  0.684- 254 1.42 232 1.42 256 1.43
 256  0.211  0.276  0.682- 257 1.42 279 1.42 255 1.43
 257  0.229  0.262  0.651- 256 1.42 234 1.42 258 1.43
 258  0.273  0.249  0.649- 281 1.42 259 1.42 257 1.43
 259  0.293  0.253  0.618- 236 1.42 258 1.42 260 1.43
 260  0.334  0.279  0.616- 261 1.42 283 1.42 259 1.43
 261  0.350  0.299  0.585- 238 1.42 260 1.42 262 1.43
 262  0.377  0.356  0.583- 263 1.41 285 1.43 261 1.43
 263  0.384  0.386  0.552- 262 1.41 240 1.43 264 1.43
 264  0.388  0.458  0.551- 265 1.41 287 1.42 263 1.43
 265  0.385  0.490  0.520- 109 1.40 264 1.41 242 1.47
 266  0.345  0.587  0.940- 267 1.42 289 1.42 364 1.43
 267  0.328  0.606  0.909- 266 1.42 244 1.42 268 1.43
 268  0.286  0.628  0.907- 269 1.42 291 1.42 267 1.43
 269  0.266  0.629  0.876- 268 1.42 246 1.42 270 1.43
 270  0.223  0.612  0.874- 271 1.42 293 1.42 269 1.43
 271  0.205  0.596  0.843- 270 1.42 248 1.42 272 1.43
 272  0.174  0.545  0.841- 273 1.42 295 1.42 271 1.43
 273  0.164  0.516  0.810- 272 1.42 250 1.42 274 1.43
 274  0.154  0.447  0.808- 275 1.42 297 1.42 273 1.43
 275  0.155  0.414  0.777- 274 1.42 252 1.42 276 1.43
 276  0.169  0.346  0.775- 277 1.42 299 1.42 275 1.43
 277  0.181  0.319  0.744- 276 1.42 254 1.42 278 1.43
 278  0.215  0.273  0.742- 279 1.42 301 1.42 277 1.43
 279  0.233  0.259  0.711- 278 1.42 256 1.42 280 1.43
 280  0.277  0.249  0.709- 281 1.42 303 1.42 279 1.43
 281  0.297  0.254  0.678- 280 1.42 258 1.42 282 1.43
 282  0.337  0.282  0.676- 283 1.42 305 1.42 281 1.43
 283  0.353  0.303  0.645- 282 1.42 260 1.42 284 1.43
 284  0.378  0.362  0.644- 285 1.42 307 1.42 283 1.43
 285  0.385  0.393  0.613- 284 1.42 286 1.42 262 1.43
 286  0.387  0.464  0.611- 287 1.42 309 1.42 285 1.42
 287  0.382  0.496  0.580- 264 1.42 286 1.42 132 1.42
 288  0.341  0.591  0.001- 289 1.42   4 1.42   1 1.43
 289  0.324  0.609  0.970- 288 1.42 266 1.42 290 1.43
 290  0.282  0.628  0.968- 291 1.42 310 1.42 289 1.43
 291  0.262  0.628  0.937- 290 1.42 268 1.42 292 1.43
 292  0.219  0.609  0.935- 293 1.42 312 1.42 291 1.43
 293  0.202  0.592  0.904- 292 1.42 270 1.42 294 1.43
 294  0.172  0.539  0.902- 295 1.42 314 1.42 293 1.43
 295  0.163  0.510  0.871- 294 1.42 272 1.42 296 1.43
 296  0.154  0.440  0.869- 297 1.42 316 1.42 295 1.43
 297  0.156  0.407  0.838- 296 1.42 274 1.42 298 1.43
 298  0.171  0.340  0.836- 299 1.42 318 1.42 297 1.43
 299  0.183  0.314  0.805- 298 1.42 276 1.42 300 1.43
 300  0.218  0.270  0.803- 301 1.42 320 1.42 299 1.43
 301  0.237  0.257  0.772- 300 1.42 278 1.42 302 1.43
 302  0.281  0.250  0.770- 303 1.42 322 1.42 301 1.43
 303  0.301  0.255  0.739- 302 1.42 280 1.42 304 1.43
 304  0.340  0.286  0.737- 305 1.42 324 1.42 303 1.43
 305  0.356  0.308  0.706- 304 1.42 282 1.42 306 1.43
 306  0.379  0.368  0.704- 307 1.42 326 1.42 305 1.43
 307  0.385  0.399  0.673- 306 1.42 284 1.42 308 1.43
 308  0.386  0.471  0.671- 309 1.42 328 1.42 307 1.43
 309  0.381  0.503  0.640- 308 1.42 286 1.42 155 1.43
 310  0.258  0.628  0.997-   5 1.42 290 1.42 311 1.43
 311  0.216  0.606  0.995- 312 1.42  12 1.42 310 1.43
 312  0.199  0.588  0.964- 311 1.42 292 1.42 313 1.43
 313  0.170  0.534  0.962- 314 1.42 329 1.42 312 1.43
 314  0.161  0.504  0.931- 313 1.42 294 1.42 315 1.43
 315  0.154  0.433  0.929- 316 1.42 331 1.42 314 1.43
 316  0.157  0.401  0.898- 315 1.42 296 1.42 317 1.43
 317  0.174  0.335  0.896- 318 1.42 333 1.42 316 1.43
 318  0.186  0.309  0.865- 317 1.42 298 1.42 319 1.43
 319  0.222  0.267  0.863- 320 1.42 335 1.42 318 1.43
 320  0.241  0.256  0.832- 319 1.42 300 1.42 321 1.43
 321  0.285  0.251  0.830- 322 1.42 337 1.42 320 1.43
 322  0.305  0.257  0.799- 321 1.42 302 1.42 323 1.43
 323  0.344  0.290  0.797- 324 1.42 339 1.42 322 1.43
 324  0.358  0.313  0.766- 323 1.42 304 1.42 325 1.43
 325  0.381  0.374  0.764- 326 1.42 341 1.42 324 1.43
 326  0.386  0.406  0.733- 325 1.42 306 1.42 327 1.43
 327  0.385  0.477  0.731- 328 1.42 343 1.42 326 1.43
 328  0.380  0.509  0.700- 327 1.42 308 1.42 178 1.43
 329  0.160  0.498  0.991-  13 1.42 313 1.42 330 1.43
 330  0.155  0.427  0.990- 331 1.42  24 1.42 329 1.43
 331  0.158  0.394  0.959- 330 1.42 315 1.42 332 1.43
 332  0.176  0.329  0.957- 333 1.42 344 1.42 331 1.43
 333  0.189  0.304  0.926- 332 1.42 317 1.42 334 1.43
 334  0.226  0.264  0.924- 335 1.42 346 1.42 333 1.43
 335  0.245  0.254  0.893- 334 1.42 319 1.42 336 1.43
 336  0.289  0.251  0.891- 337 1.42 348 1.42 335 1.43
 337  0.309  0.259  0.860- 336 1.42 321 1.42 338 1.43
 338  0.347  0.294  0.858- 339 1.42 350 1.42 337 1.43
 339  0.361  0.318  0.827- 338 1.42 323 1.42 340 1.43
 340  0.382  0.380  0.825- 341 1.42 352 1.42 339 1.43
 341  0.387  0.412  0.794- 340 1.42 325 1.42 342 1.43
 342  0.385  0.484  0.792- 343 1.42 354 1.42 341 1.43
 343  0.378  0.515  0.761- 342 1.42 327 1.42 200 1.43
 344  0.192  0.300  0.986-  25 1.42 332 1.42 345 1.43
 345  0.229  0.262  0.984- 346 1.42  40 1.42 344 1.43
 346  0.249  0.253  0.953- 345 1.42 334 1.42 347 1.43
 347  0.293  0.253  0.951- 348 1.42 355 1.42 346 1.43
 348  0.312  0.261  0.920- 347 1.42 336 1.42 349 1.43
 349  0.350  0.299  0.918- 350 1.42 357 1.42 348 1.43
 350  0.364  0.323  0.887- 349 1.42 338 1.42 351 1.43
 351  0.384  0.387  0.885- 352 1.42 359 1.42 350 1.43
 352  0.387  0.419  0.854- 351 1.42 340 1.42 353 1.43
 353  0.384  0.490  0.852- 354 1.42 361 1.42 352 1.43
 354  0.377  0.521  0.821- 353 1.42 342 1.42 222 1.43
 355  0.316  0.264  0.980-  41 1.42 347 1.42 356 1.43
 356  0.353  0.303  0.979- 357 1.42  61 1.42 355 1.43
 357  0.366  0.328  0.948- 356 1.42 349 1.42 358 1.43
 358  0.385  0.393  0.946- 359 1.42 362 1.42 357 1.43
 359  0.388  0.425  0.915- 358 1.42 351 1.42 360 1.43
 360  0.383  0.497  0.913- 361 1.42 364 1.42 359 1.43
 361  0.375  0.527  0.882- 360 1.42 353 1.42 244 1.43
 362  0.388  0.432  0.975-  62 1.42 358 1.42 363 1.43
 363  0.381  0.503  0.973- 364 1.42   1 1.42 362 1.43
 364  0.373  0.533  0.942- 363 1.42 360 1.42 266 1.43
 365  0.448  0.483  0.474- 242 1.88 243 1.88
 
  LATTYP: Found a simple orthorhombic cell.
 ALAT       =    19.9214134216
 B/A-ratio  =     1.6250001197
 C/A-ratio  =     2.0303804144
  
  Lattice vectors:
  
 A1 = (   0.0000000000, -19.9214134216,   0.0000000000)
 A2 = (  32.3722991943,   0.0000000000,   0.0000000000)
 A3 = (   0.0000000000,   0.0000000000,  40.4480476379)


Analysis of symmetry for initial positions (statically):
=====================================================================
 Subroutine PRICEL returns:
 Original cell was already a primitive cell.
 

 Routine SETGRP: Setting up the symmetry group for a 
 simple orthorhombic supercell.


 Subroutine GETGRP returns: Found  1 space group operations
 (whereof  1 operations were pure point group operations)
 out of a pool of  8 trial point group operations.


The static configuration has the point symmetry C_1 .


Analysis of symmetry for dynamics (positions and initial velocities):
=====================================================================
 Subroutine PRICEL returns:
 Original cell was already a primitive cell.
 

 Routine SETGRP: Setting up the symmetry group for a 
 simple orthorhombic supercell.


 Subroutine GETGRP returns: Found  1 space group operations
 (whereof  1 operations were pure point group operations)
 out of a pool of  8 trial point group operations.


The dynamic configuration has the point symmetry C_1 .


 Subroutine INISYM returns: Found  1 space group operations
 (whereof  1 operations are pure point group operations),
 and found     1 'primitive' translations


----------------------------------------------------------------------------------------

                                     Primitive cell                                     

  volume of cell :   26085.0250

  direct lattice vectors                    reciprocal lattice vectors
    32.372299194  0.000000000  0.000000000     0.030890608  0.000000000  0.000000000
     0.000000000 19.921413422  0.000000000     0.000000000  0.050197241  0.000000000
     0.000000000  0.000000000 40.448047638     0.000000000  0.000000000  0.024723072

  length of vectors
    32.372299194 19.921413422 40.448047638     0.030890608  0.050197241  0.024723072

  position of ions in fractional coordinates (direct lattice)
     0.370962476  0.538309884  0.002472598
     0.368781525  0.543809831  0.062911890
     0.338057388  0.594996902  0.061112327
     0.320499484  0.611421066  0.029955633
     0.277817376  0.628795372  0.028142848
     0.366456950  0.549180215  0.123345067
     0.334674177  0.598640933  0.121547554
     0.316788757  0.614062800  0.090394753
     0.273761388  0.629030460  0.088575775
     0.253554236  0.626878035  0.057420955
     0.212101970  0.602912030  0.055610042
     0.195593519  0.583846801  0.024451662
     0.168031592  0.528108686  0.022637632
     0.363973182  0.554418787  0.183773112
     0.331191571  0.602124398  0.181983641
     0.313003861  0.616521909  0.150826560
     0.269693528  0.629084986  0.149008709
     0.249551177  0.625778295  0.117853312
     0.208634400  0.599483074  0.116045390
     0.192548085  0.579495310  0.084888817
     0.166189770  0.522243072  0.083069428
     0.158935273  0.491516812  0.051913408
     0.154969076  0.420310339  0.050091434
     0.158723424  0.387955799  0.018936824
     0.178345871  0.323960615  0.017123509
     0.361388989  0.559555443  0.244178409
     0.327665783  0.605444469  0.242412125
     0.309176485  0.618839612  0.211261741
     0.265613480  0.628976181  0.209449150
     0.245562143  0.624509019  0.178294905
     0.205231000  0.595891621  0.176486420
     0.189588040  0.574989321  0.145326909
     0.164471326  0.516283535  0.143503076
     0.157877228  0.485162387  0.112346905
     0.155424123  0.413770514  0.110529526
     0.159863861  0.381654096  0.079368722
     0.180826589  0.318796418  0.077549668
     0.194982916  0.295231447  0.046398867
     0.233129978  0.259602958  0.044573211
     0.252799194  0.251617235  0.013425782
     0.296778267  0.253834807  0.011620772
     0.370999495  0.538171851  0.335666862
     0.358896289  0.564695077  0.304587545
     0.324144834  0.608646810  0.302844588
     0.305348761  0.620950791  0.271733556
     0.261559520  0.628566040  0.269916510
     0.241611060  0.622987943  0.238747247
     0.201924823  0.592109720  0.236929467
     0.186734423  0.570334075  0.205765780
     0.162901931  0.510224113  0.203939019
     0.156974099  0.478747046  0.172784040
     0.156047533  0.407258193  0.170972342
     0.161140617  0.375412098  0.139806011
     0.183418143  0.313755993  0.137980761
     0.198063488  0.291010400  0.106827872
     0.236942590  0.257537257  0.105004095
     0.256772364  0.250674971  0.073852603
     0.300675358  0.255359665  0.072047133
     0.319779745  0.266414202  0.040901695
     0.355646637  0.307835318  0.039086606
     0.368349068  0.333517100  0.007940304
     0.385529082  0.399344992  0.006143016
     0.369684327  0.544274256  0.396009733
     0.356616116  0.569722251  0.365134566
     0.320551049  0.611143284  0.363346145
     0.301490635  0.622475344  0.332221532
     0.257590640  0.627595429  0.330389166
     0.237735945  0.621116638  0.299199843
     0.198699249  0.588099692  0.297369383
     0.183978524  0.565524146  0.266208996
     0.161450806  0.504082788  0.264377475
     0.156218659  0.472286375  0.233218182
     0.156829777  0.400795508  0.231408531
     0.162585691  0.369250003  0.200248821
     0.186142280  0.308854038  0.198422944
     0.201241228  0.286943352  0.167259598
     0.240788166  0.255632921  0.165438614
     0.260750020  0.249895424  0.134282454
     0.304528897  0.257026275  0.132472560
     0.323394335  0.269178260  0.101333662
     0.358360065  0.312585232  0.099520513
     0.370515267  0.338987996  0.068375663
     0.386289252  0.405735002  0.066582958
     0.388134186  0.438551919  0.035432970
     0.379994364  0.508823203  0.033623095
     0.368004106  0.550006498  0.456687417
     0.353742989  0.573217279  0.425697492
     0.316721929  0.611883434  0.423811884
     0.297537264  0.622963414  0.392634134
     0.253578547  0.626212033  0.390811827
     0.233872323  0.618923198  0.359649274
     0.195471486  0.583894569  0.357808011
     0.181294881  0.560496631  0.326637899
     0.160099578  0.497844890  0.324805991
     0.155571492  0.465781217  0.293645591
     0.157714998  0.394357714  0.291839591
     0.164167903  0.363161212  0.260685869
     0.188972365  0.304107551  0.258864836
     0.204515877  0.283023117  0.227694816
     0.244684364  0.253866716  0.225881362
     0.264746204  0.249258861  0.194725133
     0.308349569  0.258830742  0.192908752
     0.326934869  0.272091426  0.161763074
     0.360938651  0.317455752  0.159949165
     0.372542653  0.344542818  0.128810400
     0.386872092  0.412151149  0.127013851
     0.388041773  0.445063502  0.095874653
     0.378421564  0.514841382  0.094063348
     0.364067972  0.551831565  0.517376295
     0.350656901  0.576245455  0.485671649
     0.312975162  0.613645658  0.484050682
     0.293573253  0.623440009  0.453022727
     0.249471769  0.624942075  0.451214132
     0.229980665  0.616429603  0.420064733
     0.192326392  0.579490073  0.418229529
     0.178636489  0.555352175  0.387051812
     0.158773541  0.491533741  0.385237702
     0.154986021  0.459234991  0.354078881
     0.158646215  0.387970119  0.352274662
     0.165813065  0.357157758  0.321115469
     0.191841570  0.299520409  0.319300936
     0.207843008  0.279286887  0.288148550
     0.248615138  0.252354843  0.286356608
     0.268766814  0.248855915  0.255181701
     0.312121212  0.260878410  0.253354993
     0.330417271  0.275134152  0.222201239
     0.363411967  0.322451545  0.220377431
     0.374412975  0.350197183  0.189246039
     0.387264253  0.418586450  0.187434271
     0.387745039  0.451554964  0.156300897
     0.376658672  0.520743200  0.154493422
     0.361431127  0.559013929  0.577726907
     0.347232753  0.581519864  0.546507553
     0.309216497  0.617209256  0.544582174
     0.289605444  0.624467895  0.513315606
     0.245696804  0.623390047  0.511568284
     0.226222766  0.613957758  0.480426521
     0.189266857  0.575013504  0.478640117
     0.176064646  0.550124001  0.447498895
     0.157583379  0.485180196  0.445699858
     0.154496247  0.452667715  0.414519368
     0.159646587  0.381674334  0.412713066
     0.167448873  0.351246431  0.381557798
     0.194699409  0.295070568  0.379754717
     0.211213610  0.275813305  0.348610061
     0.252552141  0.251322473  0.346838581
     0.272777234  0.248809493  0.315649711
     0.315854338  0.263301160  0.313821186
     0.333829926  0.278474727  0.282666177
     0.365769012  0.327663418  0.280815129
     0.376141801  0.355997887  0.249661355
     0.387497063  0.425051707  0.247817010
     0.387290884  0.458020141  0.216700990
     0.374761249  0.526573595  0.214907575
     0.358807175  0.564498856  0.638125555
     0.344162016  0.587131090  0.606969330
     0.305390559  0.620620744  0.605046631
     0.285644628  0.627152537  0.573795434
     0.241694539  0.622777145  0.572017397
     0.222585199  0.611569047  0.540894298
     0.186620604  0.570414152  0.539100546
     0.173842677  0.544711315  0.507939357
     0.156727367  0.478848416  0.506152022
     0.154178800  0.446185880  0.474984868
     0.160798528  0.375409387  0.473186872
     0.169215046  0.345463473  0.442021932
     0.197625027  0.290871047  0.440225855
     0.214547045  0.272556628  0.409059035
     0.256441258  0.250772612  0.407281676
     0.276745455  0.249392645  0.376159327
     0.319480096  0.266639183  0.374370624
     0.337125849  0.282467435  0.343122836
     0.367972933  0.333248288  0.341216026
     0.377806133  0.361950408  0.310057979
     0.387688440  0.431643974  0.308153836
     0.386728014  0.464528658  0.277070544
     0.372808312  0.532360955  0.275313427
     0.356108459  0.569384206  0.698513911
     0.341012429  0.591391946  0.667363497
     0.301493131  0.622834169  0.665503453
     0.281555609  0.628561678  0.634342265
     0.237785417  0.621413607  0.632519800
     0.218961031  0.609171010  0.601331660
     0.184006944  0.565738670  0.599542482
     0.171799296  0.539320004  0.568401071
     0.156081073  0.472508037  0.566614642
     0.154210854  0.439664309  0.535462447
     0.162285455  0.369396846  0.533651775
     0.171178966  0.339834795  0.502476703
     0.200732684  0.286791238  0.500679858
     0.217909491  0.269442186  0.469532540
     0.260346763  0.250269385  0.467756413
     0.280666922  0.250758994  0.436614647
     0.322753341  0.271129089  0.434857616
     0.340127704  0.287591866  0.403589606
     0.369866953  0.340078235  0.401684997
     0.379300924  0.368438177  0.370464330
     0.387878076  0.438379476  0.368439285
     0.386153297  0.471172221  0.337338738
     0.353381440  0.574125178  0.758920600
     0.337787847  0.595244350  0.727791361
     0.297606444  0.624394087  0.725967652
     0.277527997  0.629085270  0.694809175
     0.233947843  0.619472528  0.692981255
     0.215372157  0.606312568  0.661808617
     0.181405165  0.560837269  0.660004589
     0.169855694  0.533745585  0.628852017
     0.155572929  0.466128638  0.627057668
     0.154394914  0.433215247  0.595903301
     0.163962751  0.363416153  0.594091121
     0.173492281  0.334389117  0.562938837
     0.204158888  0.283088703  0.561138665
     0.221656260  0.266679433  0.529954471
     0.264388723  0.249740668  0.528122550
     0.284555240  0.251114233  0.496971475
     0.326353797  0.274011731  0.495155794
     0.343065571  0.292792769  0.464125484
     0.372180724  0.346742430  0.462525965
     0.380508293  0.376548476  0.430822995
     0.389275859  0.445227071  0.428411814
     0.386371589  0.477805574  0.397574231
     0.350542887  0.578654787  0.819349966
     0.334495148  0.598859480  0.788210564
     0.293710451  0.625660262  0.786405914
     0.273538324  0.629254392  0.755255982
     0.230168258  0.617195049  0.753433120
     0.211878997  0.603026405  0.722280674
     0.178897761  0.555711899  0.720465069
     0.167937946  0.528028959  0.689292740
     0.155087689  0.459649558  0.687489432
     0.154655448  0.426720326  0.656340007
     0.165724787  0.357512295  0.654524733
     0.175924764  0.329067374  0.623370740
     0.207657415  0.279538108  0.621558417
     0.225480737  0.264054995  0.590385996
     0.268569785  0.249284877  0.588540078
     0.288709793  0.251895901  0.557377317
     0.330053021  0.276381641  0.555555335
     0.346315348  0.296266262  0.524370975
     0.374555527  0.351111724  0.522501446
     0.383926609  0.380172202  0.491516259
     0.396870182  0.451643326  0.490331541
     0.393464210  0.488053442  0.457872281
     0.347594723  0.583020100  0.879784645
     0.331139693  0.602302780  0.848637238
     0.289791881  0.626755915  0.846839145
     0.269554714  0.629170507  0.815696708
     0.226468051  0.614681409  0.813875695
     0.208476512  0.599495660  0.782722854
     0.176488841  0.550413739  0.780908932
     0.166104498  0.522164959  0.749742370
     0.154695625  0.453104509  0.747927054
     0.154987733  0.420190396  0.716771845
     0.167536542  0.351663302  0.714955824
     0.178372607  0.323838696  0.683799148
     0.211159275  0.276126004  0.681987303
     0.229346938  0.261677536  0.650829542
     0.272668537  0.249107922  0.648987042
     0.292800181  0.252555042  0.617799280
     0.333744563  0.278785202  0.615974546
     0.349849150  0.298835194  0.584843656
     0.376668477  0.355855431  0.583060709
     0.384467286  0.386465041  0.552188632
     0.388207108  0.457998718  0.550622687
     0.385005940  0.490499708  0.519784758
     0.344525084  0.587203687  0.940225092
     0.327679036  0.605547708  0.909074945
     0.285834464  0.627657822  0.907273421
     0.265565710  0.628907548  0.876126787
     0.222817166  0.612009456  0.874306144
     0.205156260  0.595821305  0.843155880
     0.174204605  0.544999920  0.841346284
     0.164403695  0.516181922  0.810191002
     0.154452937  0.446535860  0.808365402
     0.155431571  0.413659494  0.777204438
     0.169439826  0.345875472  0.775392520
     0.180879289  0.318700753  0.744235931
     0.214664878  0.272885026  0.742426503
     0.233169516  0.259466502  0.711268044
     0.276718227  0.249256439  0.709434105
     0.296782656  0.253597026  0.678267449
     0.337166315  0.282141254  0.676462725
     0.352833772  0.302992440  0.645347332
     0.377935607  0.361788366  0.643599636
     0.384620879  0.392957993  0.612523837
     0.386792652  0.464259041  0.610853760
     0.382425227  0.496387073  0.579750494
     0.341343842  0.591191906  0.000670815
     0.324132717  0.608592203  0.969514928
     0.281845508  0.628346111  0.967707295
     0.261571566  0.628466643  0.936558246
     0.219202471  0.609179999  0.934738665
     0.201904302  0.591997295  0.903588972
     0.172049043  0.539476018  0.901779979
     0.162861631  0.510122137  0.870627725
     0.154381623  0.439969669  0.868799614
     0.156034605  0.407157711  0.837644230
     0.171478563  0.340204745  0.835833597
     0.183487047  0.313693491  0.804675022
     0.218244006  0.269848074  0.802861938
     0.237011427  0.257477101  0.771706547
     0.280762830  0.249754387  0.769886332
     0.300721410  0.255217254  0.738732821
     0.340429828  0.286049111  0.736933246
     0.355616911  0.307787464  0.705782067
     0.379377942  0.367938994  0.704001847
     0.385284982  0.399412892  0.672869578
     0.386128684  0.470908219  0.671119160
     0.381014766  0.502750302  0.640033529
     0.257568955  0.627787577  0.996990430
     0.215633388  0.606141315  0.995175374
     0.198720533  0.588006657  0.964019895
     0.169995044  0.533848102  0.962209115
     0.161440117  0.503995550  0.931058182
     0.154455085  0.433406321  0.929231018
     0.156808374  0.400708082  0.898078775
     0.173664020  0.334668373  0.896269972
     0.186221598  0.308849344  0.865112420
     0.221897561  0.266996412  0.863293364
     0.240923017  0.255723713  0.832141917
     0.284805697  0.250502732  0.830329576
     0.304633369  0.257116636  0.799170890
     0.343654372  0.290135260  0.797366061
     0.358368324  0.312692910  0.766209912
     0.380892187  0.374126715  0.764403175
     0.386084660  0.405915684  0.733270129
     0.385465919  0.477424019  0.731487743
     0.379618623  0.508975091  0.700369527
     0.160133550  0.497792295  0.991485513
     0.154653132  0.426851743  0.989660323
     0.157709097  0.394301785  0.958506350
     0.175956181  0.329244085  0.956697608
     0.189060755  0.304143699  0.925544410
     0.225606672  0.264322992  0.923722192
     0.244866636  0.254147488  0.892570406
     0.288832653  0.251418956  0.890761442
     0.308508732  0.259164143  0.859603926
     0.346818055  0.294344895  0.857792906
     0.361045610  0.317735527  0.826641015
     0.382284950  0.380362113  0.824828884
     0.386811043  0.412435162  0.793679310
     0.384696007  0.483850937  0.791884604
     0.378201257  0.515075352  0.760749705
     0.191989024  0.299610918  0.985972909
     0.229356148  0.261864693  0.984147915
     0.248827578  0.252768404  0.952997476
     0.292829556  0.252516497  0.951193004
     0.312333961  0.261394601  0.920040212
     0.349870766  0.298704612  0.918224710
     0.363605794  0.322888320  0.887071067
     0.383515297  0.386648947  0.885260831
     0.387390029  0.418958218  0.854104880
     0.383763284  0.490223413  0.852306437
     0.376620590  0.521055528  0.821165201
     0.316101560  0.263796693  0.980472293
     0.352821979  0.303191880  0.978655607
     0.366043496  0.328143449  0.947504764
     0.384603128  0.392975245  0.945700334
     0.387800360  0.425493231  0.914545712
     0.382671178  0.496513117  0.912741782
     0.374886979  0.526934899  0.881593905
     0.388049057  0.432027606  0.974988706
     0.381410512  0.502710968  0.973180733
     0.373002754  0.532687958  0.942030956
     0.447784481  0.482911286  0.474124513

  ion indices of the primitive-cell ions
   primitive index   ion index
                 1           1
                 2           2
                 3           3
                 4           4
                 5           5
                 6           6
                 7           7
                 8           8
                 9           9
                10          10
                11          11
                12          12
                13          13
                14          14
                15          15
                16          16
                17          17
                18          18
                19          19
                20          20
                21          21
                22          22
                23          23
                24          24
                25          25
                26          26
                27          27
                28          28
                29          29
                30          30
                31          31
                32          32
                33          33
                34          34
                35          35
                36          36
                37          37
                38          38
                39          39
                40          40
                41          41
                42          42
                43          43
                44          44
                45          45
                46          46
                47          47
                48          48
                49          49
                50          50
                51          51
                52          52
                53          53
                54          54
                55          55
                56          56
                57          57
                58          58
                59          59
                60          60
                61          61
                62          62
                63          63
                64          64
                65          65
                66          66
                67          67
                68          68
                69          69
                70          70
                71          71
                72          72
                73          73
                74          74
                75          75
                76          76
                77          77
                78          78
                79          79
                80          80
                81          81
                82          82
                83          83
                84          84
                85          85
                86          86
                87          87
                88          88
                89          89
                90          90
                91          91
                92          92
                93          93
                94          94
                95          95
                96          96
                97          97
                98          98
                99          99
               100         100
               101         101
               102         102
               103         103
               104         104
               105         105
               106         106
               107         107
               108         108
               109         109
               110         110
               111         111
               112         112
               113         113
               114         114
               115         115
               116         116
               117         117
               118         118
               119         119
               120         120
               121         121
               122         122
               123         123
               124         124
               125         125
               126         126
               127         127
               128         128
               129         129
               130         130
               131         131
               132         132
               133         133
               134         134
               135         135
               136         136
               137         137
               138         138
               139         139
               140         140
               141         141
               142         142
               143         143
               144         144
               145         145
               146         146
               147         147
               148         148
               149         149
               150         150
               151         151
               152         152
               153         153
               154         154
               155         155
               156         156
               157         157
               158         158
               159         159
               160         160
               161         161
               162         162
               163         163
               164         164
               165         165
               166         166
               167         167
               168         168
               169         169
               170         170
               171         171
               172         172
               173         173
               174         174
               175         175
               176         176
               177         177
               178         178
               179         179
               180         180
               181         181
               182         182
               183         183
               184         184
               185         185
               186         186
               187         187
               188         188
               189         189
               190         190
               191         191
               192         192
               193         193
               194         194
               195         195
               196         196
               197         197
               198         198
               199         199
               200         200
               201         201
               202         202
               203         203
               204         204
               205         205
               206         206
               207         207
               208         208
               209         209
               210         210
               211         211
               212         212
               213         213
               214         214
               215         215
               216         216
               217         217
               218         218
               219         219
               220         220
               221         221
               222         222
               223         223
               224         224
               225         225
               226         226
               227         227
               228         228
               229         229
               230         230
               231         231
               232         232
               233         233
               234         234
               235         235
               236         236
               237         237
               238         238
               239         239
               240         240
               241         241
               242         242
               243         243
               244         244
               245         245
               246         246
               247         247
               248         248
               249         249
               250         250
               251         251
               252         252
               253         253
               254         254
               255         255
               256         256
               257         257
               258         258
               259         259
               260         260
               261         261
               262         262
               263         263
               264         264
               265         265
               266         266
               267         267
               268         268
               269         269
               270         270
               271         271
               272         272
               273         273
               274         274
               275         275
               276         276
               277         277
               278         278
               279         279
               280         280
               281         281
               282         282
               283         283
               284         284
               285         285
               286         286
               287         287
               288         288
               289         289
               290         290
               291         291
               292         292
               293         293
               294         294
               295         295
               296         296
               297         297
               298         298
               299         299
               300         300
               301         301
               302         302
               303         303
               304         304
               305         305
               306         306
               307         307
               308         308
               309         309
               310         310
               311         311
               312         312
               313         313
               314         314
               315         315
               316         316
               317         317
               318         318
               319         319
               320         320
               321         321
               322         322
               323         323
               324         324
               325         325
               326         326
               327         327
               328         328
               329         329
               330         330
               331         331
               332         332
               333         333
               334         334
               335         335
               336         336
               337         337
               338         338
               339         339
               340         340
               341         341
               342         342
               343         343
               344         344
               345         345
               346         346
               347         347
               348         348
               349         349
               350         350
               351         351
               352         352
               353         353
               354         354
               355         355
               356         356
               357         357
               358         358
               359         359
               360         360
               361         361
               362         362
               363         363
               364         364
               365         365

----------------------------------------------------------------------------------------

 
 
 KPOINTS: KPOINTS created by Atomic Simulation Env

Automatic generation of k-mesh.
 Grid dimensions read from file:
 generate k-points for:    1    1    2

 Generating k-lattice:

  Cartesian coordinates                     Fractional coordinates (reciprocal lattice)
     0.030890608  0.000000000  0.000000000     1.000000000  0.000000000  0.000000000
     0.000000000  0.050197241  0.000000000     0.000000000  1.000000000  0.000000000
     0.000000000  0.000000000  0.012361536     0.000000000  0.000000000  0.500000000

  Length of vectors
     0.030890608  0.050197241  0.012361536

  Shift w.r.t. Gamma in fractional coordinates (k-lattice)
     0.000000000  0.000000000  0.000000000

 
 Subroutine IBZKPT returns following result:
 ===========================================
 
 Found      2 irreducible k-points:
 
 Following reciprocal coordinates:
            Coordinates               Weight
  0.000000  0.000000  0.000000      1.000000
  0.000000  0.000000  0.500000      1.000000
 
 Following cartesian coordinates:
            Coordinates               Weight
  0.000000  0.000000  0.000000      1.000000
  0.000000  0.000000  0.012362      1.000000
 


--------------------------------------------------------------------------------------------------------




 Dimension of arrays:
   k-points           NKPTS =      2   k-points in BZ     NKDIM =      2   number of bands    NBANDS=    896
   number of dos      NEDOS =    301   number of ions     NIONS =    365
   non local maximal  LDIM  =      4   non local SUM 2l+1 LMDIM =      8
   total plane-waves  NPLWV = ******
   max r-space proj   IRMAX =      1   max aug-charges    IRDMAX=  10060
   dimension x,y,z NGX =   216 NGY =  140 NGZ =  270
   dimension x,y,z NGXF=   432 NGYF=  280 NGZF=  540
   support grid    NGXF=   432 NGYF=  280 NGZF=  540
   ions per type =             364   1
   NGX,Y,Z   is equivalent  to a cutoff of  11.09, 11.68, 11.10 a.u.
   NGXF,Y,Z  is equivalent  to a cutoff of  22.19, 23.37, 22.19 a.u.

 SYSTEM =  02_SCF                                  
 POSCAR =   C  S                                   

 Startparameter for this run:
   NWRITE =      2    write-flag & timer
   PREC   = accura    normal or accurate (medium, high low for compatibility)
   ISTART =      0    job   : 0-new  1-cont  2-samecut
   ICHARG =      2    charge: 1-file 2-atom 10-const
   ISPIN  =      1    spin polarized calculation?
   LNONCOLLINEAR =      F non collinear calculations
   LSORBIT =      F    spin-orbit coupling
   INIWAV =      1    electr: 0-lowe 1-rand  2-diag
   LASPH  =      F    aspherical Exc in radial PAW
 Electronic Relaxation 1
   ENCUT  =  400.0 eV  29.40 Ry    5.42 a.u.  52.79 32.49 65.96*2*pi/ulx,y,z
   ENINI  =  400.0     initial cutoff
   ENAUG  =  644.9 eV  augmentation charge cutoff
   NELM   =     60;   NELMIN=  5; NELMDL=  0     # of ELM steps 
   EDIFF  = 0.1E-05   stopping-criterion for ELM
   LREAL  =      F    real-space projection
   NLSPLINE    = F    spline interpolate recip. space projectors
   LCOMPAT=      F    compatible to vasp.4.4
   GGA_COMPAT  = T    GGA compatible to vasp.4.4-vasp.4.6
   LMAXPAW     = -100 max onsite density
   LMAXMIX     =    2 max onsite mixed and CHGCAR
   VOSKOWN=      0    Vosko Wilk Nusair interpolation
   ROPT   =    0.00000   0.00000
 Ionic relaxation
   EDIFFG = 0.1E-04   stopping-criterion for IOM
   NSW    =      0    number of steps for IOM
   NBLOCK =      1;   KBLOCK =      1    inner block; outer block 
   IBRION =     -1    ionic relax: 0-MD 1-quasi-New 2-CG
   NFREE  =      0    steps in history (QN), initial steepest desc. (CG)
   ISIF   =      2    stress and relaxation
   IWAVPR =     10    prediction:  0-non 1-charg 2-wave 3-comb
   ISYM   =      2    0-nonsym 1-usesym 2-fastsym
   LCORR  =      T    Harris-Foulkes like correction to forces

   POTIM  = 0.5000    time-step for ionic-motion
   TEIN   =    0.0    initial temperature
   TEBEG  =    0.0;   TEEND  =   0.0 temperature during run
   SMASS  =  -3.00    Nose mass-parameter (am)
   estimated Nose-frequenzy (Omega)   =  0.10E-29 period in steps = 0.13E+47 mass=  -0.239E-25a.u.
   SCALEE = 1.0000    scale energy and forces
   NPACO  =    256;   APACO  = 10.0  distance and # of slots for P.C.
   PSTRESS=    0.0 pullay stress

  Mass of Ions in am
   POMASS =  12.01 32.07
  Ionic Valenz
   ZVAL   =   4.00  6.00
  Atomic Wigner-Seitz radii
   RWIGS  =  -1.00 -1.00
  virtual crystal weights 
   VCA    =   1.00  1.00
   NELECT =    1462.0000    total number of electrons
   NUPDOWN=      -1.0000    fix difference up-down

 DOS related values:
   EMIN   =  10.00;   EMAX   =-10.00  energy-range for DOS
   EFERMI =   0.00;   METHOD = LEGACY      
   ISMEAR =     0;   SIGMA  =   0.01  broadening in eV -4-tet -1-fermi 0-gaus

 Electronic relaxation 2 (details)
   IALGO  =     38    algorithm
   LDIAG  =      T    sub-space diagonalisation (order eigenvalues)
   LSUBROT=      F    optimize rotation matrix (better conditioning)
   TURBO    =      0    0=normal 1=particle mesh
   IRESTART =      0    0=no restart 2=restart with 2 vectors
   NREBOOT  =      0    no. of reboots
   NMIN     =      0    reboot dimension
   EREF     =   0.00    reference energy to select bands
   IMIX   =      4    mixing-type and parameters
     AMIX     =   0.40;   BMIX     =  1.00
     AMIX_MAG =   1.60;   BMIX_MAG =  1.00
     AMIN     =   0.10
     WC   =   100.;   INIMIX=   1;  MIXPRE=   1;  MAXMIX= -45

 Intra band minimization:
   WEIMIN = 0.0000     energy-eigenvalue tresh-hold
   EBREAK =  0.28E-09  absolut break condition
   DEPER  =   0.30     relativ break condition  

   TIME   =   0.40     timestep for ELM

  volume/ion in A,a.u.               =      71.47       482.28
  Fermi-wavevector in a.u.,A,eV,Ry     =   0.626508  1.183929  5.340460  0.392513
  Thomas-Fermi vector in A             =   1.687786
 
 Write flags
   LWAVE        =      T    write WAVECAR
   LDOWNSAMPLE  =      F    k-point downsampling of WAVECAR
   LCHARG       =      T    write CHGCAR
   LVTOT        =      F    write LOCPOT, total local potential
   LVHAR        =      F    write LOCPOT, Hartree potential only
   LELF         =      F    write electronic localiz. function (ELF)
   LORBIT       =     11    0 simple, 1 ext, 2 COOP (PROOUT), +10 PAW based schemes


 Dipole corrections
   LMONO  =      F    monopole corrections only (constant potential shift)
   LDIPOL =      F    correct potential (dipole corrections)
   IDIPOL =      0    1-x, 2-y, 3-z, 4-all directions 
   EPSILON=  1.0000000 bulk dielectric constant

 Exchange correlation treatment:
   GGA     =    PE    GGA type
   LEXCH   =     8    internal setting for exchange type
   LIBXC   =     F    Libxc                    
   VOSKOWN =     0    Vosko Wilk Nusair interpolation
   LHFCALC =     F    Hartree Fock is set to
   LHFONE  =     F    Hartree Fock one center treatment
   AEXX    =    0.0000 exact exchange contribution

 Linear response parameters
   LEPSILON=     F    determine dielectric tensor
   LRPA    =     F    only Hartree local field effects (RPA)
   LNABLA  =     F    use nabla operator in PAW spheres
   LVEL    =     F    velocity operator in full k-point grid
   CSHIFT  =0.1000    complex shift for real part using Kramers Kronig
   OMEGAMAX=  -1.0    maximum frequency
   DEG_THRESHOLD= 0.2000000E-02 threshold for treating states as degnerate
   RTIME   =   -0.100 relaxation time in fs
  (WPLASMAI=    0.000 imaginary part of plasma frequency in eV, 0.658/RTIME)
   DFIELD  = 0.0000000 0.0000000 0.0000000 field for delta impulse in time
 
  Optional k-point grid parameters
   LKPOINTS_OPT  =     F    use optional k-point grid
   KPOINTS_OPT_MODE=     1    mode for optional k-point grid
 
 Orbital magnetization related:
   ORBITALMAG=     F  switch on orbital magnetization
   LCHIMAG   =     F  perturbation theory with respect to B field
   DQ        =  0.001000  dq finite difference perturbation B field
   LLRAUG    =     F  two centre corrections for induced B field
   LBONE     =     F  B-component reconstruction in AE one-centre
   LVGVCALC  =     T  calculate vGv susceptibility
   LVGVAPPL  =     F  apply vGv susceptibility instead of pGv for G=0

 Random number generation:
   RANDOM_GENERATOR = DEFAULT
   PCG_SEED         = not used


--------------------------------------------------------------------------------------------------------


 Static calculation
 charge density and potential will be updated during run
 non-spin polarized calculation
 Variant of blocked Davidson
 Davidson routine will perform the subspace rotation
 perform sub-space diagonalisation
    after iterative eigenvector-optimisation
 modified Broyden-mixing scheme, WC =      100.0
 initial mixing is a Kerker type mixing with AMIX =  0.4000 and BMIX =      1.0000
 Hartree-type preconditioning will be used
 using additional bands           165
 reciprocal scheme for non local part
 use partial core corrections
 calculate Harris-corrections to forces 
   (improved forces if not selfconsistent)
 use gradient corrections 
 use of overlap-Matrix (Vanderbilt PP)
 Gauss-broadening in eV      SIGMA  =   0.01


--------------------------------------------------------------------------------------------------------


  energy-cutoff  :      400.00
  volume of cell :    26085.03
      direct lattice vectors                 reciprocal lattice vectors
    32.372299194  0.000000000  0.000000000     0.030890608  0.000000000  0.000000000
     0.000000000 19.921413422  0.000000000     0.000000000  0.050197241  0.000000000
     0.000000000  0.000000000 40.448047638     0.000000000  0.000000000  0.024723072

  length of vectors
    32.372299194 19.921413422 40.448047638     0.030890608  0.050197241  0.024723072


 
 k-points in units of 2pi/SCALE and weight: KPOINTS created by Atomic Simulation Env
   0.00000000  0.00000000  0.00000000       0.500
   0.00000000  0.00000000  0.01236154       0.500
 
 k-points in reciprocal lattice and weights: KPOINTS created by Atomic Simulation Env
   0.00000000  0.00000000  0.00000000       0.500
   0.00000000  0.00000000  0.50000000       0.500
 
 position of ions in fractional coordinates (direct lattice) 
   0.37096248  0.53830988  0.00247260
   0.36878152  0.54380983  0.06291189
   0.33805739  0.59499690  0.06111233
   0.32049948  0.61142107  0.02995563
   0.27781738  0.62879537  0.02814285
   0.36645695  0.54918022  0.12334507
   0.33467418  0.59864093  0.12154755
   0.31678876  0.61406280  0.09039475
   0.27376139  0.62903046  0.08857577
   0.25355424  0.62687804  0.05742095
   0.21210197  0.60291203  0.05561004
   0.19559352  0.58384680  0.02445166
   0.16803159  0.52810869  0.02263763
   0.36397318  0.55441879  0.18377311
   0.33119157  0.60212440  0.18198364
   0.31300386  0.61652191  0.15082656
   0.26969353  0.62908499  0.14900871
   0.24955118  0.62577830  0.11785331
   0.20863440  0.59948307  0.11604539
   0.19254808  0.57949531  0.08488882
   0.16618977  0.52224307  0.08306943
   0.15893527  0.49151681  0.05191341
   0.15496908  0.42031034  0.05009143
   0.15872342  0.38795580  0.01893682
   0.17834587  0.32396061  0.01712351
   0.36138899  0.55955544  0.24417841
   0.32766578  0.60544447  0.24241212
   0.30917649  0.61883961  0.21126174
   0.26561348  0.62897618  0.20944915
   0.24556214  0.62450902  0.17829491
   0.20523100  0.59589162  0.17648642
   0.18958804  0.57498932  0.14532691
   0.16447133  0.51628353  0.14350308
   0.15787723  0.48516239  0.11234691
   0.15542412  0.41377051  0.11052953
   0.15986386  0.38165410  0.07936872
   0.18082659  0.31879642  0.07754967
   0.19498292  0.29523145  0.04639887
   0.23312998  0.25960296  0.04457321
   0.25279919  0.25161723  0.01342578
   0.29677827  0.25383481  0.01162077
   0.37099950  0.53817185  0.33566686
   0.35889629  0.56469508  0.30458754
   0.32414483  0.60864681  0.30284459
   0.30534876  0.62095079  0.27173356
   0.26155952  0.62856604  0.26991651
   0.24161106  0.62298794  0.23874725
   0.20192482  0.59210972  0.23692947
   0.18673442  0.57033408  0.20576578
   0.16290193  0.51022411  0.20393902
   0.15697410  0.47874705  0.17278404
   0.15604753  0.40725819  0.17097234
   0.16114062  0.37541210  0.13980601
   0.18341814  0.31375599  0.13798076
   0.19806349  0.29101040  0.10682787
   0.23694259  0.25753726  0.10500410
   0.25677236  0.25067497  0.07385260
   0.30067536  0.25535967  0.07204713
   0.31977975  0.26641420  0.04090170
   0.35564664  0.30783532  0.03908661
   0.36834907  0.33351710  0.00794030
   0.38552908  0.39934499  0.00614302
   0.36968433  0.54427426  0.39600973
   0.35661612  0.56972225  0.36513457
   0.32055105  0.61114328  0.36334615
   0.30149063  0.62247534  0.33222153
   0.25759064  0.62759543  0.33038917
   0.23773595  0.62111664  0.29919984
   0.19869925  0.58809969  0.29736938
   0.18397852  0.56552415  0.26620900
   0.16145081  0.50408279  0.26437747
   0.15621866  0.47228638  0.23321818
   0.15682978  0.40079551  0.23140853
   0.16258569  0.36925000  0.20024882
   0.18614228  0.30885404  0.19842294
   0.20124123  0.28694335  0.16725960
   0.24078817  0.25563292  0.16543861
   0.26075002  0.24989542  0.13428245
   0.30452890  0.25702628  0.13247256
   0.32339433  0.26917826  0.10133366
   0.35836007  0.31258523  0.09952051
   0.37051527  0.33898800  0.06837566
   0.38628925  0.40573500  0.06658296
   0.38813419  0.43855192  0.03543297
   0.37999436  0.50882320  0.03362309
   0.36800411  0.55000650  0.45668742
   0.35374299  0.57321728  0.42569749
   0.31672193  0.61188343  0.42381188
   0.29753726  0.62296341  0.39263413
   0.25357855  0.62621203  0.39081183
   0.23387232  0.61892320  0.35964927
   0.19547149  0.58389457  0.35780801
   0.18129488  0.56049663  0.32663790
   0.16009958  0.49784489  0.32480599
   0.15557149  0.46578122  0.29364559
   0.15771500  0.39435771  0.29183959
   0.16416790  0.36316121  0.26068587
   0.18897237  0.30410755  0.25886484
   0.20451588  0.28302312  0.22769482
   0.24468436  0.25386672  0.22588136
   0.26474620  0.24925886  0.19472513
   0.30834957  0.25883074  0.19290875
   0.32693487  0.27209143  0.16176307
   0.36093865  0.31745575  0.15994916
   0.37254265  0.34454282  0.12881040
   0.38687209  0.41215115  0.12701385
   0.38804177  0.44506350  0.09587465
   0.37842156  0.51484138  0.09406335
   0.36406797  0.55183157  0.51737630
   0.35065690  0.57624545  0.48567165
   0.31297516  0.61364566  0.48405068
   0.29357325  0.62344001  0.45302273
   0.24947177  0.62494207  0.45121413
   0.22998066  0.61642960  0.42006473
   0.19232639  0.57949007  0.41822953
   0.17863649  0.55535218  0.38705181
   0.15877354  0.49153374  0.38523770
   0.15498602  0.45923499  0.35407888
   0.15864622  0.38797012  0.35227466
   0.16581307  0.35715776  0.32111547
   0.19184157  0.29952041  0.31930094
   0.20784301  0.27928689  0.28814855
   0.24861514  0.25235484  0.28635661
   0.26876681  0.24885592  0.25518170
   0.31212121  0.26087841  0.25335499
   0.33041727  0.27513415  0.22220124
   0.36341197  0.32245154  0.22037743
   0.37441297  0.35019718  0.18924604
   0.38726425  0.41858645  0.18743427
   0.38774504  0.45155496  0.15630090
   0.37665867  0.52074320  0.15449342
   0.36143113  0.55901393  0.57772691
   0.34723275  0.58151986  0.54650755
   0.30921650  0.61720926  0.54458217
   0.28960544  0.62446789  0.51331561
   0.24569680  0.62339005  0.51156828
   0.22622277  0.61395776  0.48042652
   0.18926686  0.57501350  0.47864012
   0.17606465  0.55012400  0.44749889
   0.15758338  0.48518020  0.44569986
   0.15449625  0.45266772  0.41451937
   0.15964659  0.38167433  0.41271307
   0.16744887  0.35124643  0.38155780
   0.19469941  0.29507057  0.37975472
   0.21121361  0.27581331  0.34861006
   0.25255214  0.25132247  0.34683858
   0.27277723  0.24880949  0.31564971
   0.31585434  0.26330116  0.31382119
   0.33382993  0.27847473  0.28266618
   0.36576901  0.32766342  0.28081513
   0.37614180  0.35599789  0.24966135
   0.38749706  0.42505171  0.24781701
   0.38729088  0.45802014  0.21670099
   0.37476125  0.52657360  0.21490758
   0.35880718  0.56449886  0.63812555
   0.34416202  0.58713109  0.60696933
   0.30539056  0.62062074  0.60504663
   0.28564463  0.62715254  0.57379543
   0.24169454  0.62277715  0.57201740
   0.22258520  0.61156905  0.54089430
   0.18662060  0.57041415  0.53910055
   0.17384268  0.54471131  0.50793936
   0.15672737  0.47884842  0.50615202
   0.15417880  0.44618588  0.47498487
   0.16079853  0.37540939  0.47318687
   0.16921505  0.34546347  0.44202193
   0.19762503  0.29087105  0.44022585
   0.21454705  0.27255663  0.40905904
   0.25644126  0.25077261  0.40728168
   0.27674545  0.24939264  0.37615933
   0.31948010  0.26663918  0.37437062
   0.33712585  0.28246744  0.34312284
   0.36797293  0.33324829  0.34121603
   0.37780613  0.36195041  0.31005798
   0.38768844  0.43164397  0.30815384
   0.38672801  0.46452866  0.27707054
   0.37280831  0.53236096  0.27531343
   0.35610846  0.56938421  0.69851391
   0.34101243  0.59139195  0.66736350
   0.30149313  0.62283417  0.66550345
   0.28155561  0.62856168  0.63434227
   0.23778542  0.62141361  0.63251980
   0.21896103  0.60917101  0.60133166
   0.18400694  0.56573867  0.59954248
   0.17179930  0.53932000  0.56840107
   0.15608107  0.47250804  0.56661464
   0.15421085  0.43966431  0.53546245
   0.16228546  0.36939685  0.53365178
   0.17117897  0.33983479  0.50247670
   0.20073268  0.28679124  0.50067986
   0.21790949  0.26944219  0.46953254
   0.26034676  0.25026939  0.46775641
   0.28066692  0.25075899  0.43661465
   0.32275334  0.27112909  0.43485762
   0.34012770  0.28759187  0.40358961
   0.36986695  0.34007823  0.40168500
   0.37930092  0.36843818  0.37046433
   0.38787808  0.43837948  0.36843929
   0.38615330  0.47117222  0.33733874
   0.35338144  0.57412518  0.75892060
   0.33778785  0.59524435  0.72779136
   0.29760644  0.62439409  0.72596765
   0.27752800  0.62908527  0.69480918
   0.23394784  0.61947253  0.69298125
   0.21537216  0.60631257  0.66180862
   0.18140516  0.56083727  0.66000459
   0.16985569  0.53374558  0.62885202
   0.15557293  0.46612864  0.62705767
   0.15439491  0.43321525  0.59590330
   0.16396275  0.36341615  0.59409112
   0.17349228  0.33438912  0.56293884
   0.20415889  0.28308870  0.56113866
   0.22165626  0.26667943  0.52995447
   0.26438872  0.24974067  0.52812255
   0.28455524  0.25111423  0.49697148
   0.32635380  0.27401173  0.49515579
   0.34306557  0.29279277  0.46412548
   0.37218072  0.34674243  0.46252597
   0.38050829  0.37654848  0.43082299
   0.38927586  0.44522707  0.42841181
   0.38637159  0.47780557  0.39757423
   0.35054289  0.57865479  0.81934997
   0.33449515  0.59885948  0.78821056
   0.29371045  0.62566026  0.78640591
   0.27353832  0.62925439  0.75525598
   0.23016826  0.61719505  0.75343312
   0.21187900  0.60302640  0.72228067
   0.17889776  0.55571190  0.72046507
   0.16793795  0.52802896  0.68929274
   0.15508769  0.45964956  0.68748943
   0.15465545  0.42672033  0.65634001
   0.16572479  0.35751229  0.65452473
   0.17592476  0.32906737  0.62337074
   0.20765742  0.27953811  0.62155842
   0.22548074  0.26405500  0.59038600
   0.26856979  0.24928488  0.58854008
   0.28870979  0.25189590  0.55737732
   0.33005302  0.27638164  0.55555533
   0.34631535  0.29626626  0.52437097
   0.37455553  0.35111172  0.52250145
   0.38392661  0.38017220  0.49151626
   0.39687018  0.45164333  0.49033154
   0.39346421  0.48805344  0.45787228
   0.34759472  0.58302010  0.87978465
   0.33113969  0.60230278  0.84863724
   0.28979188  0.62675591  0.84683915
   0.26955471  0.62917051  0.81569671
   0.22646805  0.61468141  0.81387570
   0.20847651  0.59949566  0.78272285
   0.17648884  0.55041374  0.78090893
   0.16610450  0.52216496  0.74974237
   0.15469563  0.45310451  0.74792705
   0.15498773  0.42019040  0.71677184
   0.16753654  0.35166330  0.71495582
   0.17837261  0.32383870  0.68379915
   0.21115927  0.27612600  0.68198730
   0.22934694  0.26167754  0.65082954
   0.27266854  0.24910792  0.64898704
   0.29280018  0.25255504  0.61779928
   0.33374456  0.27878520  0.61597455
   0.34984915  0.29883519  0.58484366
   0.37666848  0.35585543  0.58306071
   0.38446729  0.38646504  0.55218863
   0.38820711  0.45799872  0.55062269
   0.38500594  0.49049971  0.51978476
   0.34452508  0.58720369  0.94022509
   0.32767904  0.60554771  0.90907495
   0.28583446  0.62765782  0.90727342
   0.26556571  0.62890755  0.87612679
   0.22281717  0.61200946  0.87430614
   0.20515626  0.59582130  0.84315588
   0.17420461  0.54499992  0.84134628
   0.16440370  0.51618192  0.81019100
   0.15445294  0.44653586  0.80836540
   0.15543157  0.41365949  0.77720444
   0.16943983  0.34587547  0.77539252
   0.18087929  0.31870075  0.74423593
   0.21466488  0.27288503  0.74242650
   0.23316952  0.25946650  0.71126804
   0.27671823  0.24925644  0.70943411
   0.29678266  0.25359703  0.67826745
   0.33716631  0.28214125  0.67646272
   0.35283377  0.30299244  0.64534733
   0.37793561  0.36178837  0.64359964
   0.38462088  0.39295799  0.61252384
   0.38679265  0.46425904  0.61085376
   0.38242523  0.49638707  0.57975049
[...]
  253        strkin                                0.019817                            1   3
  254          m_sumb_d                              0.001309                          1   4
  255        strelo                                0.015716                            1   3
  256          m_sumb_d                              0.000044                          2   4
  257        strenl                               91.502291                            1   3
  258          spher                                 0.842479                         19   4
  259          phase                                 0.000001                          9   4
  260          proj1                                90.656610                        252   4
  261            crexp_mul_wave                       13.906513                    91980   5
  262            m_sumb_d                             46.926157                      252   5
  263          m_sumb_d                              0.000037                          1   4
  264        m_sumb_d                              0.000835                            6   3
  265        fft3d_mpi                             0.136408                           11   3
  266          fftbrc_mpi                            0.132710                         11   4
  267            fftbas_plan_mpi                       0.132701                       11   5
  268              dfftw_execute                         0.038835                     33   6
  269              map_forward                           0.047148                     10   6
  270                map_gather                            0.004758                    5   7
  271                m_alltoallv_z                         0.034789                    5   7
  272                map_scatter                           0.007536                    5   7
  273              map_backward                          0.046483                     12   6
  274                map_gather                            0.007778                    6   7
  275                m_alltoallv_z                         0.033596                    6   7
  276                map_scatter                           0.005013                    6   7
  277        ggaall_grid                           0.098957                            1   3
  278        forhar                                0.284869                            2   3
  279          m_sumb_d                              0.000331                          2   4
  280        strehar                               0.009702                            1   3
  281          m_sumb_d                              0.000086                          1   4
  282        chggra                                0.052290                            1   3
  283          fft3d_mpi                             0.036827                          3   4
  284            fftbrc_mpi                            0.036517                        3   5
  285              fftbas_plan_mpi                       0.036514                      3   6
  286                dfftw_execute                         0.010824                    9   7
  287                map_backward                          0.006993                    2   7
  288                  map_gather                            0.000919                  1   8
  289                  m_alltoallv_z                         0.005479                  1   8
  290                  map_scatter                           0.000580                  1   8
  291                map_forward                           0.018643                    4   7
  292                  map_gather                            0.001547                  2   8
  293                  m_alltoallv_z                         0.014680                  2   8
  294                  map_scatter                           0.002395                  2   8
  295          m_sumb_d                              0.000028                          2   4
  296          pothar                                0.004990                          1   4
  297            m_sumb_d                              0.002028                        1   5
  298        brmix                                 0.026826                            1   3
  299          m_sumb_d                              0.008190                          6   4
  300          brpre                                 0.000058                          1   4
  301          setg0                                 0.002021                          1   4
  302          broyd                                 0.003938                          1   4
  303            m_sumb_d                              0.000725                       31   5
  304            brget                                 0.000779                      129   5
  305            brsav                                 0.000167                       29   5
  306          m_bcast_z                             0.010370                          1   4
  307          m_bcast_d                             0.000042                          1   4
  308        m_bcast_d                             0.180311                            2   3
  309      potlok                                0.319826                              1   2
  310        fft3d_mpi                             0.153015                           13   3
  311          fftbrc_mpi                            0.148024                         13   4
  312            fftbas_plan_mpi                       0.148013                       13   5
  313              dfftw_execute                         0.048509                     39   6
  314              map_forward                           0.045932                     14   6
  315                map_gather                            0.004653                    8   7
  316                m_alltoallv_z                         0.029722                    8   7
  317                map_scatter                           0.011467                    8   7
  318              map_backward                          0.053350                     12   6
  319                map_gather                            0.009972                    6   7
  320                m_alltoallv_z                         0.038538                    6   7
  321                map_scatter                           0.004749                    6   7
  322        ggaall_grid                           0.099281                            1   3
  323        m_sumb_d                              0.001605                            5   3
  324        pothar                                0.003742                            1   3
  325          m_sumb_d                              0.000638                          1   4
  326        m_bcast_d                             0.015225                            1   3
  327      potlok_metagga                        0.000000                              1   2
  328      set_dd_magatom                        0.000000                              1   2
  329      set_dd_paw                            0.001160                              1   2
  330        set_rsgf_all                          0.000000                            1   3
  331        m_sumb_d                              0.000575                            8   3
  332      m_alltoall_d                         48.749564                          19858   2
  333      densta                                0.025377                              1   2
  334        m_sumb_d                              0.001965                           11   3
  335        m_alltoall_d                          0.018654                          132   3
 
 Flat profile
 ============
 
             routine name                   CPU           calls
 ---------------------------------------------------------------
 gemm                                  511.171184      907025
 proj1                                 406.980321        1953
 work_mul_crexp                        341.368696      907025
 m_alltoallv_z                         243.384579        6001
 crexp_mul_wave                        207.368811      712845
 dfftw_execute                         134.257157       17850
 m_alltoall_d                          123.306753       58823
 m_sumb_d                               97.749176       14392
 total_time                             74.319061           1
 orth1                                  55.739169        7483
 ggemm                                  46.729283        3297
 fornl                                  43.876301           1
 vhamil                                 30.752803        2485
 lincom                                 17.886128          30
 eddav                                  16.753978          29
 fftwav_mpi                             15.714674        3060
 map_scatter                            12.255614        6001
 wfinit                                 11.101775           1
 map_gather                             10.950233        6001
 m_bcast_z                              10.610609        4390
 fftext_mpi                              9.703625        2485
 map_forward                             7.377712        6504
 lapack                                  4.650280        2485
 eccp                                    4.323517         812
 pdssyex_zheevx                          4.159581          29
 pw_charge                               3.284760         575
 vnlac0                                  2.651755        2485
 redis_pw                                2.395239        6703
 force_and_stress                        2.351722           1
 ggaall_grid                             2.020188          27
 w1_copy                                 1.563712        7455
 potlok                                  1.189954          26
 spher                                   0.893965          20
 hamiltmu                                0.892026        2485
 sphpro_fast                             0.793470           2
 apply_precond                           0.788291        1673
 phase                                   0.683043          41
 m_bcast_d                               0.675709        5026
 kinhamil                                0.518287        2485
 setup_precond                           0.505753         812
 soft_charge                             0.458602          25
 elmin                                   0.286333           1
 forhar                                  0.284538           2
 stufak                                  0.283713           1
 forloc                                  0.277978           1
 fftbas_plan_mpi                         0.217356        5950
 fft3d_mpi                               0.187951        5950
 augmentation_charge                     0.116072          25
 setdij_                                 0.098462          53
 pothar                                  0.086533          27
 brmix                                   0.084490          25
 overl1                                  0.064889        2485
 choleski                                0.060354           1
 setg0                                   0.050480          26
 overl                                   0.038138        4159
 redis_proj                              0.036559        8377
 fft_gq                                  0.028964          25
 broyd                                   0.027227          25
 map_backward                            0.021325        5396
 strkin                                  0.018508           1
 set_charge                              0.016594          25
 set_dd_paw                              0.015742          27
 strelo                                  0.015672           1
 newband                                 0.014316        2514
 brget                                   0.011388        1719
 chggra                                  0.010445           1
 strehar                                 0.009616           1
 orthch                                  0.008480           1
 w1_projall                              0.008430        1673
 brgrid                                  0.008153           1
 densta                                  0.007441          30
 inisym                                  0.006138           1
 fftbas_mpi                              0.005392        5545
 depsum                                  0.005030          25
 rsp                                     0.004431           1
 strenl                                  0.003163           1
 brsav                                   0.002510         429
 fewald                                  0.002092           1
 brpre                                   0.001464          25
 truncate_high_frequency_w1              0.000806        3297
 rcp                                     0.000298           1
 fftbrc_mpi                              0.000278         405
 fordep                                  0.000133           1
 posmap                                  0.000127           2
 proj                                    0.000109           1
 crpa_reader                             0.000077           1
 FERMAT_RAZOR                            0.000010           1
 set_rsgf_all                            0.000009          27
 vectorpot                               0.000008          26
 potlok_metagga                          0.000008          26
 proall                                  0.000005           1
 set_dd_magatom                          0.000001          27
 rotate_active_occupied_orbital          0.000000           1
 redis_pw_over_bands                     0.000000           1
 ---------------------------------------------------------------
  summed up times     2466.585732936859     
 
 Accumulative profile
 ====================
 
             routine name                   CPU           calls
 ---------------------------------------------------------------
 total_time                           2466.585733           1
 elmin                                2167.832762           1
 eddav                                2127.319060          29
 hamiltmu                             1191.492687        2485
 vnlac0                                856.177965        2485
 proj1                                 707.117366        1953
 w1_projall                            606.609774        1673
 gemm                                  511.171184      907025
 fft3d_mpi                             408.657595        5950
 fftbas_plan_mpi                       408.463975        5950
 fftbas_mpi                            402.453627        5545
 work_mul_crexp                        341.368696      907025
 kinhamil                              303.605003        2485
 fftext_mpi                            303.086717        2485
 m_alltoallv_z                         243.384579        6001
 map_backward                          241.252595        5396
 crexp_mul_wave                        207.368811      712845
 force_and_stress                      140.145955           1
 dfftw_execute                         134.257157       17850
 fftwav_mpi                            124.794528        3060
 m_alltoall_d                          123.306753       58823
 m_sumb_d                               97.749176       14392
 strenl                                 91.502291           1
 orth1                                  55.739169        7483
 ggemm                                  46.729283        3297
 fornl                                  43.881238           1
 newband                                40.380341        2514
 redis_pw                               37.081418        6703
 map_forward                            32.736867        6504
 set_charge                             31.017321          25
 vhamil                                 30.752803        2485
 soft_charge                            30.503573          25
 redis_proj                             26.891476        8377
 wfinit                                 21.177141           1
 lincom                                 17.886128          30
 map_scatter                            12.255614        6001
 map_gather                             10.950233        6001
 m_bcast_z                              10.610609        4390
 proall                                 10.542562           1
 proj                                    9.859521           1
 potlok                                  8.894476          26
 fftbrc_mpi                              6.016018         405
 lapack                                  4.650280        2485
 eccp                                    4.517667         812
 pdssyex_zheevx                          4.159591          29
 pw_charge                               3.284760         575
 ggaall_grid                             2.020188          27
 w1_copy                                 1.563712        7455
 densta                                  1.364261          30
 orthch                                  1.185107           1
 sphpro_fast                             1.081040           2
 spher                                   0.893965          20
 apply_precond                           0.788291        1673
 phase                                   0.683043          41
 m_bcast_d                               0.675709        5026
 setup_precond                           0.521403         812
 augmentation_charge                     0.480293          25
 brmix                                   0.428336          25
 fft_gq                                  0.363739          25
 forhar                                  0.284869           2
 stufak                                  0.283713           1
 forloc                                  0.279164           1
 fewald                                  0.259218           1
 setdij_                                 0.172939          53
 pothar                                  0.108781          27
 overl1                                  0.064889        2485
 choleski                                0.060354           1
 chggra                                  0.052290           1
 broyd                                   0.052001          25
 setg0                                   0.050480          26
 set_dd_paw                              0.038496          27
 overl                                   0.038138        4159
 strkin                                  0.019817           1
 depsum                                  0.016861          25
 fordep                                  0.016303           1
 strelo                                  0.015716           1
 brget                                   0.011388        1719
 strehar                                 0.009702           1
 brgrid                                  0.008153           1
 inisym                                  0.006265           1
 rsp                                     0.004431           1
 brsav                                   0.002510         429
 brpre                                   0.001464          25
 truncate_high_frequency_w1              0.000806        3297
 rcp                                     0.000298           1
 posmap                                  0.000127           2
 crpa_reader                             0.000077           1
 FERMAT_RAZOR                            0.000010           1
 set_rsgf_all                            0.000009          27
 vectorpot                               0.000008          26
 potlok_metagga                          0.000008          26
 set_dd_magatom                          0.000001          27
 rotate_active_occupied_orbital          0.000000           1
 redis_pw_over_bands                     0.000000           1
 ---------------------------------------------------------------
 
Profiling took   1.157325  0.486075  0.004194  0.004145 seconds
Profiling took   1.175931 seconds
