 running  256 mpi-ranks, with    1 threads/rank, on    7 nodes
 distrk:  each k-point on  128 cores,    2 groups
 distr:  one band on    4 cores,   32 groups
 vasp.6.4.1 05Apr23 (build May 18 2023 13:19:41) complex                         
 POSCAR found type information on POSCAR C S 
 POSCAR found :  2 types and     365 ions
 Reading from existing POTCAR
 scaLAPACK will be used
 Reading from existing POTCAR
 -----------------------------------------------------------------------------
|                                                                             |
|               ----> ADVICE to this user running VASP <----                  |
|                                                                             |
|     You have a (more or less) 'large supercell' and for larger cells it     |
|     might be more efficient to use real-space projection operators.         |
|     Therefore, try LREAL= Auto in the INCAR file.                           |
|     Mind: If you want to do very accurate calculations, keep the            |
|     reciprocal projection scheme (i.e. LREAL=.FALSE.).                      |
|                                                                             |
 -----------------------------------------------------------------------------

 LDA part: xc-table for Pade appr. of Perdew
 POSCAR, INCAR and KPOINTS ok, starting setup
 FFT: planning ... GRIDC
 FFT: planning ... GRID_SOFT
 FFT: planning ... GRID
 WAVECAR not read
 WARNING: random wavefunctions but no delay for mixing, default for NELMDL
 entering main loop
       N       E                     dE             d eps       ncg     rms          rms(c)
DAV:   1     0.130928635391E+05    0.13093E+05   -0.45130E+05  4544   0.932E+02
DAV:   2     0.667115766780E+02   -0.13026E+05   -0.12249E+05  5312   0.239E+02
DAV:   3    -0.335677577590E+04   -0.34235E+04   -0.33787E+04  4544   0.130E+02
DAV:   4    -0.353821206344E+04   -0.18144E+03   -0.17886E+03  4416   0.387E+01
DAV:   5    -0.354308630831E+04   -0.48742E+01   -0.48195E+01  4832   0.560E+00    0.743E+01
DAV:   6    -0.337343641506E+04    0.16965E+03   -0.17875E+02  4064   0.119E+01    0.393E+01
DAV:   7    -0.331172759621E+04    0.61709E+02   -0.19082E+02  4096   0.124E+01    0.711E+00
DAV:   8    -0.331135784445E+04    0.36975E+00   -0.62626E+00  4384   0.258E+00    0.379E+00
DAV:   9    -0.331082957506E+04    0.52827E+00   -0.98075E-01  4160   0.101E+00    0.104E+00
DAV:  10    -0.331078041764E+04    0.49157E-01   -0.12729E-01  4160   0.380E-01    0.613E-01
DAV:  11    -0.331077675494E+04    0.36627E-02   -0.97304E-02  4000   0.259E-01    0.370E-01
DAV:  12    -0.331081182914E+04   -0.35074E-01   -0.37354E-02  3968   0.169E-01    0.193E-01
DAV:  13    -0.331084078971E+04   -0.28961E-01   -0.14978E-02  3776   0.946E-02    0.108E-01
DAV:  14    -0.331086534983E+04   -0.24560E-01   -0.65491E-03  4064   0.538E-02    0.651E-02
DAV:  15    -0.331090199844E+04   -0.36649E-01   -0.29817E-03  3968   0.368E-02    0.396E-02
DAV:  16    -0.331092618286E+04   -0.24184E-01   -0.25771E-03  4000   0.303E-02    0.202E-02
DAV:  17    -0.331093324325E+04   -0.70604E-02   -0.38418E-04  4160   0.154E-02    0.124E-02
DAV:  18    -0.331093697105E+04   -0.37278E-02   -0.16154E-04  4064   0.890E-03    0.690E-03
DAV:  19    -0.331093907175E+04   -0.21007E-02   -0.73419E-05  4000   0.583E-03    0.442E-03
DAV:  20    -0.331094055600E+04   -0.14842E-02   -0.68263E-05  3680   0.437E-03    0.232E-03
DAV:  21    -0.331094088245E+04   -0.32645E-03   -0.10377E-05  3360   0.196E-03    0.131E-03
DAV:  22    -0.331094101384E+04   -0.13139E-03   -0.11407E-06  3104   0.106E-03    0.713E-04
DAV:  23    -0.331094107289E+04   -0.59054E-04    0.28708E-07  2592   0.612E-04    0.371E-04
DAV:  24    -0.331094110107E+04   -0.28184E-04    0.48566E-07  2432   0.460E-04    0.248E-04
DAV:  25    -0.331094111449E+04   -0.13417E-04    0.66656E-07  2400   0.310E-04    0.150E-04
DAV:  26    -0.331094112694E+04   -0.12449E-04    0.69821E-07  2336   0.279E-04    0.115E-04
DAV:  27    -0.331094113094E+04   -0.40004E-05    0.73929E-07  2368   0.159E-04    0.600E-05
DAV:  28    -0.331094113370E+04   -0.27558E-05    0.74564E-07  2272   0.132E-04    0.472E-05
DAV:  29    -0.331094113426E+04   -0.56589E-06    0.75306E-07  2304   0.738E-05
   1 F= -.33249981E+04 E0= -.33249981E+04  d E =-.276226E-13
 writing wavefunctions
 PROFILE, used timers:     335
