 vasp.6.4.2 20Jul23 (build Oct 12 2023 10:31:02) complex                         
 executed on              LinuxNV date 2024.11.01  21:24:05
 running  128 mpi-ranks, with    1 threads/rank, on    2 nodes
 distrk:  each k-point on   64 cores,    2 groups
 distr:  one band on NCORE=   8 cores,    8 groups


--------------------------------------------------------------------------------------------------------


 INCAR:
   ENCUT = 520.000000
   SIGMA = 0.050000
   EDIFF = 1.00e-06
   ALGO = N
   GGA = PE
   PREC = Accurate
   SYSTEM = 01_AOPT
   ICHARG = 0
   ISMEAR = 0
   ISPIN = 2
   ISTART = 1
   ISYM = -1
   KPAR = 2
   LORBIT = 11
   NBANDS = 220
   NELM = 100
   NELMIN = 5
   NPAR = 8
   LASPH = .TRUE.
   LCHARG = .FALSE.
   LWAVE = .FALSE.
   LREAL = .FALSE.

 POTCAR:    PAW_PBE Ge 05Jan2001                  
 POTCAR:    PAW_PBE Se 06Sep2000                  
 -----------------------------------------------------------------------------
|                                                                             |
|           W    W    AA    RRRRR   N    N  II  N    N   GGGG   !!!           |
|           W    W   A  A   R    R  NN   N  II  NN   N  G    G  !!!           |
|           W    W  A    A  R    R  N N  N  II  N N  N  G       !!!           |
|           W WW W  AAAAAA  RRRRR   N  N N  II  N  N N  G  GGG   !            |
|           WW  WW  A    A  R   R   N   NN  II  N   NN  G    G                |
|           W    W  A    A  R    R  N    N  II  N    N   GGGG   !!!           |
|                                                                             |
|     You use a magnetic or noncollinear calculation, but did not specify     |
|     the initial magnetic moment with the MAGMOM tag. Note that a            |
|     default of 1 will be used for all atoms. This ferromagnetic setup       |
|     may break the symmetry of the crystal, in particular it may rule        |
|     out finding an antiferromagnetic solution. Thence, we recommend         |
|     setting the initial magnetic moment manually or verifying carefully     |
|     that this magnetic setup is desired.                                    |
|                                                                             |
 -----------------------------------------------------------------------------

 POTCAR:    PAW_PBE Ge 05Jan2001                  
   VRHFIN =Ge: s2p2                                                                                 
   LEXCH  = PE                                                                                      
   EATOM  =   104.9960 eV,    7.7170 Ry                                                             
                                                                                                    
   TITEL  = PAW_PBE Ge 05Jan2001                                                                    
   LULTRA =        F    use ultrasoft PP ?                                                          
   IUNSCR =        1    unscreen: 0-lin 1-nonlin 2-no                                               
   RPACOR =    2.170    partial core radius                                                         
   POMASS =   72.610; ZVAL   =    4.000    mass and valenz                                          
   RCORE  =    2.300    outmost cutoff radius                                                       
   RWIGS  =    2.300; RWIGS  =    1.217    wigner-seitz radius (au A)                               
   ENMAX  =  173.807; ENMIN  =  130.355 eV                                                          
   ICORE  =        3    local potential                                                             
   LCOR   =        T    correct aug charges                                                         
   LPAW   =        T    paw PP                                                                      
   EAUG   =  385.843                                                                                
   DEXC   =    0.000                                                                                
   RMAX   =    2.342    core radius for proj-oper                                                   
   RAUG   =    1.300    factor for augmentation sphere                                              
   RDEP   =    2.318    radius for radial grids                                                     
   RDEPT  =    2.103    core radius for aug-charge                                                  
                                                                                                    
   Atomic configuration                                                                             
   10 entries                                                                                       
     n  l   j            E        occ.                                                              
     1  0  0.50    -10959.8463   2.0000                                                             
     2  0  0.50     -1371.6056   2.0000                                                             
     2  1  1.50     -1198.4791   6.0000                                                             
     3  0  0.50      -168.4733   2.0000                                                             
     3  1  1.50      -115.6019   6.0000                                                             
     3  2  2.50       -29.3106  10.0000                                                             
     4  0  0.50       -11.7309   2.0000                                                             
     4  1  0.50        -3.8952   2.0000                                                             
     4  2  1.50        -4.0817   0.0000                                                             
     4  3  2.50        -4.0817   0.0000                                                             
   Description                                                                                      
     l       E           TYP  RCUT    TYP  RCUT                                                     
     0    -11.7309493     23  2.300                                                                 
     0     -7.4578696     23  2.300                                                                 
     1     -3.8952261     23  2.300                                                                 
     1      6.1178114     23  2.300                                                                 
     2     -4.0817478     23  2.300                                                                 
     3     -1.3605826      7  2.300                                                                 
  local pseudopotential read in
  partial core-charges read in
  partial kinetic energy density read in
  atomic valenz-charges read in
  non local Contribution for L=            0  read in
    real space projection operators read in
  non local Contribution for L=            0  read in
    real space projection operators read in
  non local Contribution for L=            1  read in
    real space projection operators read in
  non local Contribution for L=            1  read in
    real space projection operators read in
  non local Contribution for L=            2  read in
    real space projection operators read in
    PAW grid and wavefunctions read in
 
   number of l-projection  operators is LMAX  =            5
   number of lm-projection operators is LMMAX =           13
 
 POTCAR:    PAW_PBE Se 06Sep2000                  
   VRHFIN =Se: s2p4                                                                                 
   LEXCH  = PE                                                                                      
   EATOM  =   257.1286 eV,   18.8984 Ry                                                             
                                                                                                    
   TITEL  = PAW_PBE Se 06Sep2000                                                                    
   LULTRA =        F    use ultrasoft PP ?                                                          
   IUNSCR =        1    unscreen: 0-lin 1-nonlin 2-no                                               
   RPACOR =    1.900    partial core radius                                                         
   POMASS =   78.960; ZVAL   =    6.000    mass and valenz                                          
   RCORE  =    2.100    outmost cutoff radius                                                       
   RWIGS  =    2.200; RWIGS  =    1.164    wigner-seitz radius (au A)                               
   ENMAX  =  211.555; ENMIN  =  158.666 eV                                                          
   ICORE  =        3    local potential                                                             
   LCOR   =        T    correct aug charges                                                         
   LPAW   =        T    paw PP                                                                      
   EAUG   =  446.842                                                                                
   DEXC   =    0.000                                                                                
   RMAX   =    2.147    core radius for proj-oper                                                   
   RAUG   =    1.300    factor for augmentation sphere                                              
   RDEP   =    2.177    radius for radial grids                                                     
   RDEPT  =    1.928    core radius for aug-charge                                                  
                                                                                                    
   Atomic configuration                                                                             
   10 entries                                                                                       
     n  l   j            E        occ.                                                              
     1  0  0.50    -12503.4787   2.0000                                                             
     2  0  0.50     -1606.9547   2.0000                                                             
     2  1  1.50     -1413.3140   6.0000                                                             
     3  0  0.50      -213.4885   2.0000                                                             
     3  1  1.50      -152.9538   6.0000                                                             
     3  2  2.50       -53.1221  10.0000                                                             
     4  0  0.50       -17.2865   2.0000                                                             
     4  1  0.50        -6.5110   4.0000                                                             
     4  2  2.50        -6.8029   0.0000                                                             
     4  3  2.50        -6.8029   0.0000                                                             
   Description                                                                                      
     l       E           TYP  RCUT    TYP  RCUT                                                     
     0    -17.2865377     23  2.100                                                                 
     0    -15.3094411     23  2.100                                                                 
     1     -6.5110275     23  2.100                                                                 
     1     -0.0695192     23  2.100                                                                 
     2     -6.8029130     23  2.100                                                                 
     3     -1.3605826      7  2.100                                                                 
  local pseudopotential read in
  partial core-charges read in
  partial kinetic energy density read in
  atomic valenz-charges read in
  non local Contribution for L=            0  read in
    real space projection operators read in
  non local Contribution for L=            0  read in
    real space projection operators read in
  non local Contribution for L=            1  read in
    real space projection operators read in
  non local Contribution for L=            1  read in
    real space projection operators read in
  non local Contribution for L=            2  read in
    real space projection operators read in
    PAW grid and wavefunctions read in
 
   number of l-projection  operators is LMAX  =            5
   number of lm-projection operators is LMMAX =           13
 
 -----------------------------------------------------------------------------
|                                                                             |
|               ----> ADVICE to this user running VASP <----                  |
|                                                                             |
|     You have a (more or less) 'large supercell' and for larger cells it     |
|     might be more efficient to use real-space projection operators.         |
|     Therefore, try LREAL= Auto in the INCAR file.                           |
|     Mind: For very accurate calculation, you might also keep the            |
|     reciprocal projection scheme (i.e. LREAL=.FALSE.).                      |
|                                                                             |
 -----------------------------------------------------------------------------

  PAW_PBE Ge 05Jan2001                  :
 energy of atom  1       EATOM= -104.9960
 kinetic energy error for atom=    0.0002 (will be added to EATOM!!)
  PAW_PBE Se 06Sep2000                  :
 energy of atom  2       EATOM= -257.1286
 kinetic energy error for atom=    0.0007 (will be added to EATOM!!)
 
 
 POSCAR: Ge Se
  positions in cartesian coordinates
  No initial velocities read in
 exchange correlation table for  LEXCH =        8
   RHO(1)=    0.500       N(1)  =     2000
   RHO(2)=  100.500       N(2)  =     4000
 


--------------------------------------------------------------------------------------------------------


 ion  position               nearest neighbor table
   1  0.076  0.036  0.135-  45 2.52  54 2.52  55 2.81  31 2.85
   2  0.245  0.891  0.385-  48 2.48  45 2.73
   3  0.561  0.215  0.386-  68 2.68  49 2.72
   4  0.563  0.543  0.360-  69 2.60  72 2.70  50 2.85
   5  0.579  0.858  0.362-  70 2.52  72 2.62  44 2.74
   6  0.892  0.208  0.365-  46 2.47  55 2.53  56 2.59  15 2.74
   7  0.931  0.532  0.377-  47 2.55  71 2.65
   8  0.928  0.886  0.413-  45 2.54  44 2.79
   9  0.071  0.142  0.639-  57 2.34  51 2.61  38 2.84
  10  0.082  0.468  0.580-  38 2.38
  11  0.081  0.813  0.637-  39 2.37  59 2.68  52 2.74
  12  0.402  0.120  0.645-  40 2.45  51 2.67  60 2.67
  13  0.427  0.477  0.618-  41 2.42  61 2.55  42 2.63
  14  0.439  0.802  0.623-  42 2.46  62 2.58  40 2.84
  15  0.776  0.138  0.561-  37 2.45   6 2.74
  16  0.740  0.478  0.597-  64 2.59  41 2.75  43 2.84
  17  0.251  0.535  0.357-  66 2.32  50 2.65
  18  0.256  0.195  0.408-  48 2.59  49 2.82
  19  0.762  0.804  0.605-  52 2.45  37 2.79  65 2.85
  20  0.914  0.636  0.882-  58 2.45  64 2.72
  21  0.911  0.979  0.890-  59 2.58  37 2.68  57 2.85
  22  0.096  0.358  0.121-  54 2.39  46 2.73  66 2.73
  23  0.075  0.731  0.134-  47 2.45  67 2.46  53 2.56
  24  0.417  0.016  0.113-  48 2.64  70 2.69  68 2.69
  25  0.408  0.358  0.110-  49 2.62  69 2.71
  26  0.728  0.049  0.090-  68 2.58  63 2.72  44 2.75  55 2.85
  27  0.743  0.382  0.135-  56 2.56  71 2.70  32 2.89
  28  0.390  0.728  0.114-  67 2.51  70 2.56  50 2.67
  29  0.268  0.351  0.842-  38 2.43  61 2.45  60 2.54
  30  0.219  0.647  0.874-  39 2.49  58 2.76  61 2.84
  31  0.202  0.039  0.919-  57 2.64  60 2.84   1 2.85
  32  0.606  0.321  0.935-  63 2.64  27 2.89
  33  0.562  0.673  0.855-  42 2.58  62 2.73  65 2.83
  34  0.565  0.962  0.852-  40 2.53  62 2.59  65 2.77
  35  0.906  0.342  0.872-  43 2.52  58 2.71  64 2.72  57 2.82
  36  0.767  0.728  0.120-  53 2.51  72 2.72  71 2.74
  37  0.879  0.990  0.650-  15 2.45  21 2.68  19 2.79
  38  0.202  0.328  0.636-  10 2.38  29 2.43   9 2.84
  39  0.215  0.678  0.651-  11 2.37  30 2.49
  40  0.555  0.998  0.627-  12 2.45  34 2.53  14 2.84
  41  0.569  0.346  0.642-  13 2.42  16 2.75
  42  0.556  0.644  0.623-  14 2.46  33 2.58  13 2.63
  43  0.898  0.319  0.644-  35 2.52  16 2.84
  44  0.747  0.997  0.332-   5 2.74  26 2.75   8 2.79
  45  0.071  0.023  0.364-   1 2.52   8 2.54   2 2.73
  46  0.049  0.329  0.362-   6 2.47  22 2.73
  47  0.065  0.685  0.350-  23 2.45   7 2.55
  48  0.378  0.036  0.347-   2 2.48  18 2.59  24 2.64
  49  0.402  0.360  0.348-  25 2.62   3 2.72  18 2.82
  50  0.392  0.694  0.354-  17 2.65  28 2.67   4 2.85
  51  0.226  0.001  0.620-   9 2.61  12 2.67
  52  0.910  0.676  0.625-  19 2.45  11 2.74
  53  0.916  0.862  0.130-  36 2.51  23 2.56
  54  0.199  0.196  0.126-  22 2.39   1 2.52
  55  0.907  0.184  0.137-   6 2.53   1 2.81  26 2.85
  56  0.746  0.356  0.365-  27 2.56   6 2.59
  57  0.042  0.162  0.848-   9 2.34  31 2.64  35 2.82  21 2.85
  58  0.054  0.500  0.890-  20 2.45  35 2.71  30 2.76
  59  0.074  0.852  0.877-  21 2.58  11 2.68
  60  0.376  0.181  0.876-  29 2.54  12 2.67  31 2.84
  61  0.393  0.502  0.845-  29 2.45  13 2.55  30 2.84
  62  0.407  0.827  0.853-  14 2.58  34 2.59  33 2.73
  63  0.736  0.162  0.879-  32 2.64  26 2.72
  64  0.754  0.494  0.832-  16 2.59  35 2.72  20 2.72
  65  0.735  0.820  0.861-  34 2.77  33 2.83  19 2.85
  66  0.232  0.527  0.148-  17 2.32  22 2.73
  67  0.231  0.852  0.130-  23 2.46  28 2.51
  68  0.567  0.168  0.149-  26 2.58   3 2.68  24 2.69
  69  0.554  0.518  0.125-   4 2.60  25 2.71
  70  0.553  0.850  0.134-   5 2.52  28 2.56  24 2.69
  71  0.887  0.544  0.142-   7 2.65  27 2.70  36 2.74
  72  0.715  0.698  0.357-   5 2.62   4 2.70  36 2.72
 

IMPORTANT INFORMATION: All symmetrisations will be switched off!
NOSYMM: (Re-)initialisation of all symmetry stuff for point group C_1.


----------------------------------------------------------------------------------------

                                     Primitive cell                                     

  volume of cell :    1710.2732

  direct lattice vectors                    reciprocal lattice vectors
    12.463240806  0.000002995  0.000001250     0.080235953 -0.000000019 -0.000000010
     0.000002997 12.471346878  0.000008340    -0.000000019  0.080183801 -0.000000069
     0.000001421  0.000009472 11.003253932    -0.000000009 -0.000000061  0.090882207

  length of vectors
    12.463240806 12.471346878 11.003253932     0.080235953  0.080183801  0.090882207

  position of ions in fractional coordinates (direct lattice)
     0.076125210  0.035555236  0.135379463
     0.244904727  0.891277573  0.385452836
     0.560648680  0.214750124  0.385806687
     0.563493287  0.542853318  0.359555041
     0.578838221  0.858297575  0.361724748
     0.891802706  0.208156624  0.364758977
     0.930942681  0.532203528  0.376914426
     0.927927215  0.885944989  0.412588953
     0.071486688  0.141777594  0.638770419
     0.081814729  0.468371127  0.579631595
     0.081177871  0.813078945  0.637381706
     0.402490509  0.120409130  0.645113953
     0.427311372  0.476826243  0.618475468
     0.438785727  0.802050204  0.623038721
     0.776000082  0.137849964  0.560563047
     0.740297255  0.478272346  0.597358958
     0.251179911  0.535337882  0.357295126
     0.256312811  0.194830584  0.408382662
     0.761505782  0.804402859  0.605047520
     0.913511174  0.636145119  0.881817617
     0.910600558  0.978781377  0.890108998
     0.095526559  0.357557817  0.121252965
     0.075111830  0.731091979  0.134189548
     0.416839653  0.016040525  0.112519833
     0.408015090  0.357651318  0.110082791
     0.728023710  0.048582107  0.090068267
     0.742928874  0.382494596  0.134646433
     0.389524769  0.727665706  0.114235031
     0.267839006  0.351039415  0.842232927
     0.219121192  0.647014344  0.874015193
     0.202008440  0.038838232  0.918842169
     0.605689110  0.320801880  0.935341261
     0.562127987  0.672921416  0.854596757
     0.564939418  0.961850596  0.852213362
     0.905782875  0.341621068  0.871719195
     0.766781390  0.727703750  0.119970317
     0.878998099  0.990455227  0.649829512
     0.202354832  0.328370689  0.635644403
     0.215095218  0.678419152  0.650655783
     0.555001233  0.998029824  0.626702307
     0.568558435  0.345615566  0.642207113
     0.556411575  0.643956416  0.622697302
     0.897500124  0.318518263  0.644339306
     0.746875754  0.997422147  0.332361987
     0.071490815  0.023475219  0.363525552
     0.048924203  0.328527589  0.361622728
     0.064867698  0.684510231  0.350478739
     0.377759103  0.035558523  0.346884177
     0.401586963  0.359897445  0.347763357
     0.391799452  0.694239235  0.354311911
     0.225914042  0.001189444  0.620239614
     0.909766571  0.676357265  0.624844529
     0.916440243  0.861596385  0.130468985
     0.198507689  0.196263227  0.125704072
     0.907259688  0.184432316  0.137426812
     0.745579019  0.356106325  0.364974030
     0.041796004  0.162099743  0.847817534
     0.054386132  0.499835046  0.889626827
     0.074058270  0.852028599  0.877017654
     0.375667691  0.181251317  0.876086561
     0.393040860  0.502379388  0.845320744
     0.406513574  0.827253843  0.852546533
     0.736469359  0.162001517  0.879269648
     0.753672489  0.494059320  0.831784022
     0.735332798  0.819762424  0.861361341
     0.231833996  0.527473857  0.148209563
     0.231405104  0.851642846  0.129799917
     0.566761463  0.167956561  0.148623875
     0.554220239  0.517510396  0.125353226
     0.553015503  0.849984018  0.134427544
     0.886676561  0.544405711  0.142105021
     0.714885641  0.697776605  0.357379172

  ion indices of the primitive-cell ions
   primitive index   ion index
                 1           1
                 2           2
                 3           3
                 4           4
                 5           5
                 6           6
                 7           7
                 8           8
                 9           9
                10          10
                11          11
                12          12
                13          13
                14          14
                15          15
                16          16
                17          17
                18          18
                19          19
                20          20
                21          21
                22          22
                23          23
                24          24
                25          25
                26          26
                27          27
                28          28
                29          29
                30          30
                31          31
                32          32
                33          33
                34          34
                35          35
                36          36
                37          37
                38          38
                39          39
                40          40
                41          41
                42          42
                43          43
                44          44
                45          45
                46          46
                47          47
                48          48
                49          49
                50          50
                51          51
                52          52
                53          53
                54          54
                55          55
                56          56
                57          57
                58          58
                59          59
                60          60
                61          61
                62          62
                63          63
                64          64
                65          65
                66          66
                67          67
                68          68
                69          69
                70          70
                71          71
                72          72

----------------------------------------------------------------------------------------

 
 
 KPOINTS: KPOINTS created by Atomic Simulation Env

Automatic generation of k-mesh.
 Grid dimensions read from file:
 generate k-points for:    2    2    2

 Generating k-lattice:

  Cartesian coordinates                     Fractional coordinates (reciprocal lattice)
     0.040117976 -0.000000010 -0.000000005     0.500000000 -0.000000000  0.000000000
    -0.000000010  0.040091901 -0.000000035    -0.000000000  0.500000000  0.000000000
    -0.000000005 -0.000000030  0.045441103    -0.000000000 -0.000000000  0.500000000

  Length of vectors
     0.040117976  0.040091901  0.045441103

  Shift w.r.t. Gamma in fractional coordinates (k-lattice)
     0.000000000  0.000000000  0.000000000

 
 Subroutine IBZKPT returns following result:
 ===========================================
 
 Found      8 irreducible k-points:
 
 Following reciprocal coordinates:
            Coordinates               Weight
  0.000000  0.000000  0.000000      1.000000
  0.500000  0.000000  0.000000      1.000000
  0.000000  0.500000  0.000000      1.000000
  0.500000  0.500000  0.000000      1.000000
  0.000000  0.000000  0.500000      1.000000
  0.500000  0.000000  0.500000      1.000000
  0.000000  0.500000  0.500000      1.000000
  0.500000  0.500000  0.500000      1.000000
 
 Following cartesian coordinates:
            Coordinates               Weight
  0.000000  0.000000  0.000000      1.000000
  0.040118 -0.000000 -0.000000      1.000000
 -0.000000  0.040092 -0.000000      1.000000
  0.040118  0.040092 -0.000000      1.000000
 -0.000000 -0.000000  0.045441      1.000000
  0.040118 -0.000000  0.045441      1.000000
 -0.000000  0.040092  0.045441      1.000000
  0.040118  0.040092  0.045441      1.000000
 
 -----------------------------------------------------------------------------
|                                                                             |
|           W    W    AA    RRRRR   N    N  II  N    N   GGGG   !!!           |
|           W    W   A  A   R    R  NN   N  II  NN   N  G    G  !!!           |
|           W    W  A    A  R    R  N N  N  II  N N  N  G       !!!           |
|           W WW W  AAAAAA  RRRRR   N  N N  II  N  N N  G  GGG   !            |
|           WW  WW  A    A  R   R   N   NN  II  N   NN  G    G                |
|           W    W  A    A  R    R  N    N  II  N    N   GGGG   !!!           |
|                                                                             |
|     The number of bands has been changed from the values supplied in        |
|     the INCAR file. This is a result of running the parallel version.       |
|     The orbitals not found in the WAVECAR file will be initialized with     |
|     random numbers, which is usually adequate. For correlated               |
|     calculations, however, you should redo the groundstate calculation.     |
|     I found NBANDS = 220. Now, NBANDS = 224.                                |
|                                                                             |
 -----------------------------------------------------------------------------



--------------------------------------------------------------------------------------------------------




 Dimension of arrays:
   k-points           NKPTS =      8   k-points in BZ     NKDIM =      8   number of bands    NBANDS=    224
   number of dos      NEDOS =    301   number of ions     NIONS =     72
   non local maximal  LDIM  =      5   non local SUM 2l+1 LMDIM =     13
   total plane-waves  NPLWV = 774144
   max r-space proj   IRMAX =      1   max aug-charges    IRDMAX=  24798
   dimension x,y,z NGX =    96 NGY =   96 NGZ =   84
   dimension x,y,z NGXF=   192 NGYF=  192 NGZF=  168
   support grid    NGXF=   192 NGYF=  192 NGZF=  168
   ions per type =              36  36
   NGX,Y,Z   is equivalent  to a cutoff of  12.81, 12.80, 12.69 a.u.
   NGXF,Y,Z  is equivalent  to a cutoff of  25.61, 25.59, 25.38 a.u.

 SYSTEM =  01_AOPT                                 
 POSCAR =  Ge Se                                   

 Startparameter for this run:
   NWRITE =      2    write-flag & timer
   PREC   = accura    normal or accurate (medium, high low for compatibility)
   ISTART =      0    job   : 0-new  1-cont  2-samecut
   ICHARG =      2    charge: 1-file 2-atom 10-const
   ISPIN  =      2    spin polarized calculation?
   LNONCOLLINEAR =      F non collinear calculations
   LSORBIT =      F    spin-orbit coupling
   INIWAV =      1    electr: 0-lowe 1-rand  2-diag
   LASPH  =      T    aspherical Exc in radial PAW
 Electronic Relaxation 1
   ENCUT  =  520.0 eV  38.22 Ry    6.18 a.u.  23.17 23.19 20.46*2*pi/ulx,y,z
   ENINI  =  520.0     initial cutoff
   ENAUG  =  446.8 eV  augmentation charge cutoff
   NELM   =    100;   NELMIN=  5; NELMDL=  0     # of ELM steps 
   EDIFF  = 0.1E-05   stopping-criterion for ELM
   LREAL  =      F    real-space projection
   NLSPLINE    = F    spline interpolate recip. space projectors
   LCOMPAT=      F    compatible to vasp.4.4
   GGA_COMPAT  = T    GGA compatible to vasp.4.4-vasp.4.6
   LMAXPAW     = -100 max onsite density
   LMAXMIX     =    2 max onsite mixed and CHGCAR
   VOSKOWN=      0    Vosko Wilk Nusair interpolation
   ROPT   =    0.00000   0.00000
 Ionic relaxation
   EDIFFG = 0.1E-04   stopping-criterion for IOM
   NSW    =      0    number of steps for IOM
   NBLOCK =      1;   KBLOCK =      1    inner block; outer block 
   IBRION =     -1    ionic relax: 0-MD 1-quasi-New 2-CG
   NFREE  =      0    steps in history (QN), initial steepest desc. (CG)
   ISIF   =      2    stress and relaxation
   IWAVPR =     10    prediction:  0-non 1-charg 2-wave 3-comb
   ISYM   =     -1    0-nonsym 1-usesym 2-fastsym
   LCORR  =      T    Harris-Foulkes like correction to forces

   POTIM  = 0.5000    time-step for ionic-motion
   TEIN   =    0.0    initial temperature
   TEBEG  =    0.0;   TEEND  =   0.0 temperature during run
   SMASS  =  -3.00    Nose mass-parameter (am)
   estimated Nose-frequenzy (Omega)   =  0.10E-29 period in steps = 0.13E+47 mass=  -0.355E-26a.u.
   SCALEE = 1.0000    scale energy and forces
   NPACO  =    256;   APACO  = 10.0  distance and # of slots for P.C.
   PSTRESS=    0.0 pullay stress

  Mass of Ions in am
   POMASS =  72.61 78.96
  Ionic Valenz
   ZVAL   =   4.00  6.00
  Atomic Wigner-Seitz radii
   RWIGS  =  -1.00 -1.00
  virtual crystal weights 
   VCA    =   1.00  1.00
   NELECT =     360.0000    total number of electrons
   NUPDOWN=      -1.0000    fix difference up-down

 DOS related values:
   EMIN   =  10.00;   EMAX   =-10.00  energy-range for DOS
   EFERMI =   0.00;   METHOD = LEGACY      
   ISMEAR =     0;   SIGMA  =   0.05  broadening in eV -4-tet -1-fermi 0-gaus

 Electronic relaxation 2 (details)
   IALGO  =     38    algorithm
   LDIAG  =      T    sub-space diagonalisation (order eigenvalues)
   LSUBROT=      F    optimize rotation matrix (better conditioning)
   TURBO    =      0    0=normal 1=particle mesh
   IRESTART =      0    0=no restart 2=restart with 2 vectors
   NREBOOT  =      0    no. of reboots
   NMIN     =      0    reboot dimension
   EREF     =   0.00    reference energy to select bands
   IMIX   =      4    mixing-type and parameters
     AMIX     =   0.40;   BMIX     =  1.00
     AMIX_MAG =   1.60;   BMIX_MAG =  1.00
     AMIN     =   0.10
     WC   =   100.;   INIMIX=   1;  MIXPRE=   1;  MAXMIX= -45

 Intra band minimization:
   WEIMIN = 0.0000     energy-eigenvalue tresh-hold
   EBREAK =  0.11E-08  absolut break condition
   DEPER  =   0.30     relativ break condition  

   TIME   =   0.40     timestep for ELM

  volume/ion in A,a.u.               =      23.75       160.30
  Fermi-wavevector in a.u.,A,eV,Ry     =   0.973839  1.840289 12.903254  0.948362
  Thomas-Fermi vector in A             =   2.104251
 
 Write flags
   LWAVE        =      F    write WAVECAR
   LDOWNSAMPLE  =      F    k-point downsampling of WAVECAR
   LCHARG       =      F    write CHGCAR
   LVTOT        =      F    write LOCPOT, total local potential
   LVHAR        =      F    write LOCPOT, Hartree potential only
   LELF         =      F    write electronic localiz. function (ELF)
   LORBIT       =     11    0 simple, 1 ext, 2 COOP (PROOUT), +10 PAW based schemes


 Dipole corrections
   LMONO  =      F    monopole corrections only (constant potential shift)
   LDIPOL =      F    correct potential (dipole corrections)
   IDIPOL =      0    1-x, 2-y, 3-z, 4-all directions 
   EPSILON=  1.0000000 bulk dielectric constant

 Exchange correlation treatment:
   GGA     =    PE    GGA type
   LEXCH   =     8    internal setting for exchange type
   LIBXC   =     F    Libxc                    
   VOSKOWN =     0    Vosko Wilk Nusair interpolation
   LHFCALC =     F    Hartree Fock is set to
   LHFONE  =     F    Hartree Fock one center treatment
   AEXX    =    0.0000 exact exchange contribution

 Linear response parameters
   LEPSILON=     F    determine dielectric tensor
   LRPA    =     F    only Hartree local field effects (RPA)
   LNABLA  =     F    use nabla operator in PAW spheres
   LVEL    =     F    velocity operator in full k-point grid
   CSHIFT  =0.1000    complex shift for real part using Kramers Kronig
   OMEGAMAX=  -1.0    maximum frequency
   DEG_THRESHOLD= 0.2000000E-02 threshold for treating states as degnerate
   RTIME   =   -0.100 relaxation time in fs
  (WPLASMAI=    0.000 imaginary part of plasma frequency in eV, 0.658/RTIME)
   DFIELD  = 0.0000000 0.0000000 0.0000000 field for delta impulse in time
 
  Optional k-point grid parameters
   LKPOINTS_OPT  =     F    use optional k-point grid
   KPOINTS_OPT_MODE=     1    mode for optional k-point grid
 
 Orbital magnetization related:
   ORBITALMAG=     F  switch on orbital magnetization
   LCHIMAG   =     F  perturbation theory with respect to B field
   DQ        =  0.001000  dq finite difference perturbation B field
   LLRAUG    =     F  two centre corrections for induced B field
   LBONE     =     F  B-component reconstruction in AE one-centre
   LVGVCALC  =     T  calculate vGv susceptibility
   LVGVAPPL  =     F  apply vGv susceptibility instead of pGv for G=0

 Random number generation:
   RANDOM_GENERATOR = DEFAULT
   PCG_SEED         = not used


--------------------------------------------------------------------------------------------------------


 Static calculation
 charge density and potential will be updated during run
 spin polarized calculation
 Variant of blocked Davidson
 Davidson routine will perform the subspace rotation
 perform sub-space diagonalisation
    after iterative eigenvector-optimisation
 modified Broyden-mixing scheme, WC =      100.0
 initial mixing is a Kerker type mixing with AMIX =  0.4000 and BMIX =      1.0000
 Hartree-type preconditioning will be used
 using additional bands            44
 reciprocal scheme for non local part
 use partial core corrections
 calculate Harris-corrections to forces 
   (improved forces if not selfconsistent)
 use gradient corrections 
 use of overlap-Matrix (Vanderbilt PP)
 Gauss-broadening in eV      SIGMA  =   0.05


--------------------------------------------------------------------------------------------------------


  energy-cutoff  :      520.00
  volume of cell :     1710.27
      direct lattice vectors                 reciprocal lattice vectors
    12.463240806  0.000002995  0.000001250     0.080235953 -0.000000019 -0.000000010
     0.000002997 12.471346878  0.000008340    -0.000000019  0.080183801 -0.000000069
     0.000001421  0.000009472 11.003253932    -0.000000009 -0.000000061  0.090882207

  length of vectors
    12.463240806 12.471346878 11.003253932     0.080235953  0.080183801  0.090882207


 
 k-points in units of 2pi/SCALE and weight: KPOINTS created by Atomic Simulation Env
   0.00000000  0.00000000  0.00000000       0.125
   0.04011798 -0.00000001 -0.00000001       0.125
  -0.00000001  0.04009190 -0.00000003       0.125
   0.04011797  0.04009189 -0.00000004       0.125
  -0.00000000 -0.00000003  0.04544110       0.125
   0.04011797 -0.00000004  0.04544110       0.125
  -0.00000001  0.04009187  0.04544107       0.125
   0.04011796  0.04009186  0.04544106       0.125
 
 k-points in reciprocal lattice and weights: KPOINTS created by Atomic Simulation Env
   0.00000000  0.00000000  0.00000000       0.125
   0.50000000  0.00000000  0.00000000       0.125
   0.00000000  0.50000000  0.00000000       0.125
   0.50000000  0.50000000  0.00000000       0.125
   0.00000000  0.00000000  0.50000000       0.125
   0.50000000  0.00000000  0.50000000       0.125
   0.00000000  0.50000000  0.50000000       0.125
   0.50000000  0.50000000  0.50000000       0.125
 
 position of ions in fractional coordinates (direct lattice) 
   0.07612521  0.03555524  0.13537946
   0.24490473  0.89127757  0.38545284
   0.56064868  0.21475012  0.38580669
   0.56349329  0.54285332  0.35955504
   0.57883822  0.85829757  0.36172475
   0.89180271  0.20815662  0.36475898
   0.93094268  0.53220353  0.37691443
   0.92792721  0.88594499  0.41258895
   0.07148669  0.14177759  0.63877042
   0.08181473  0.46837113  0.57963159
   0.08117787  0.81307895  0.63738171
   0.40249051  0.12040913  0.64511395
   0.42731137  0.47682624  0.61847547
   0.43878573  0.80205020  0.62303872
   0.77600008  0.13784996  0.56056305
   0.74029725  0.47827235  0.59735896
   0.25117991  0.53533788  0.35729513
   0.25631281  0.19483058  0.40838266
   0.76150578  0.80440286  0.60504752
   0.91351117  0.63614512  0.88181762
   0.91060056  0.97878138  0.89010900
   0.09552656  0.35755782  0.12125297
   0.07511183  0.73109198  0.13418955
   0.41683965  0.01604052  0.11251983
   0.40801509  0.35765132  0.11008279
   0.72802371  0.04858211  0.09006827
   0.74292887  0.38249460  0.13464643
   0.38952477  0.72766571  0.11423503
   0.26783901  0.35103942  0.84223293
   0.21912119  0.64701434  0.87401519
   0.20200844  0.03883823  0.91884217
   0.60568911  0.32080188  0.93534126
   0.56212799  0.67292142  0.85459676
   0.56493942  0.96185060  0.85221336
   0.90578287  0.34162107  0.87171919
   0.76678139  0.72770375  0.11997032
   0.87899810  0.99045523  0.64982951
   0.20235483  0.32837069  0.63564440
   0.21509522  0.67841915  0.65065578
   0.55500123  0.99802982  0.62670231
   0.56855843  0.34561557  0.64220711
   0.55641158  0.64395642  0.62269730
   0.89750012  0.31851826  0.64433931
   0.74687575  0.99742215  0.33236199
   0.07149082  0.02347522  0.36352555
   0.04892420  0.32852759  0.36162273
   0.06486770  0.68451023  0.35047874
   0.37775910  0.03555852  0.34688418
   0.40158696  0.35989744  0.34776336
   0.39179945  0.69423923  0.35431191
   0.22591404  0.00118944  0.62023961
   0.90976657  0.67635727  0.62484453
   0.91644024  0.86159639  0.13046899
   0.19850769  0.19626323  0.12570407
   0.90725969  0.18443232  0.13742681
   0.74557902  0.35610632  0.36497403
   0.04179600  0.16209974  0.84781753
   0.05438613  0.49983505  0.88962683
   0.07405827  0.85202860  0.87701765
   0.37566769  0.18125132  0.87608656
   0.39304086  0.50237939  0.84532074
   0.40651357  0.82725384  0.85254653
   0.73646936  0.16200152  0.87926965
   0.75367249  0.49405932  0.83178402
   0.73533280  0.81976242  0.86136134
   0.23183400  0.52747386  0.14820956
   0.23140510  0.85164285  0.12979992
   0.56676146  0.16795656  0.14862387
   0.55422024  0.51751040  0.12535323
   0.55301550  0.84998402  0.13442754
   0.88667656  0.54440571  0.14210502
   0.71488564  0.69777660  0.35737917
 
 position of ions in cartesian coordinates  (Angst):
   0.94876712  0.44342319  1.48961500
   3.05230981 11.11543616  4.24124318
   6.98750070  2.67822863  4.24513144
   7.02295466  6.77011712  3.95628065
   7.21420322 10.70413194  3.98015714
  11.11475302  2.59599958  4.01353850
  11.60256494  6.63730116  4.14729075
  11.56498357 11.04893396  4.53982957
   0.89095714  1.76816382  7.02855440
   1.01967890  5.84122453  6.37783763
   1.01174270 10.14019585  7.01327965
   5.01633742  1.50167135  7.09835415
   5.32568683  5.94667262  6.80524714
   5.46869547 10.00265352  6.85546049
   9.67147709  1.71918236  6.16801967
   9.22650523  5.96470820  6.57289722
   3.13051783  6.67638857  3.93141378
   3.19448945  2.42980443  4.49354008
   9.49083321 10.03199509  6.65749917
  11.38531289  7.93359753  9.70286961
  11.34903823 12.20673323  9.79410463
   1.19057175  4.45922900  1.33418027
   0.93613921  9.11770317  1.47652786
   5.19517318  0.20004926  1.23808495
   5.08519155  4.46039592  1.21127239
   9.07353508  0.60588734  0.99104533
   9.25930280  4.77022629  1.48155301
   4.85474334  9.07497369  1.25696361
   3.33814428  4.37794309  9.26730602
   2.73096336  8.06914925  9.61701678
   2.51768125  0.48437438 10.11025429
   7.54885152  4.00084220 10.29180084
   7.00593970  8.39224618  9.40335144
   7.04098011 11.99558219  9.37712876
  11.28899235  4.26048581  9.59175164
   9.55658347  9.07544933  1.32007089
  10.95516887 12.35231949  7.15024849
   2.52199888  4.09523140  6.99415977
   2.68078646  8.46080738  7.15933673
   6.91711790 12.44678372  6.89577364
   7.08608263  4.31029940  7.06637153
   6.93469426  8.03101141  6.85170260
  11.18576203  3.97236054  7.08983278
   9.30849584 12.43920296  3.65707259
   0.89100783  0.29277126  3.99996424
   0.60975562  4.09718509  3.97902950
   0.80846429  8.53676804  3.85641235
   4.70810326  0.44346709  3.81685545
   5.00507660  4.48841037  3.82653203
   4.88309350  8.65810284  3.89859020
   2.81562199  0.01484053  6.82465427
  11.33864276  8.43509471  6.87532980
  11.42181820 10.74527137  1.43559171
   2.47404989  2.44766857  1.38315570
  11.30739671  2.30012341  1.51214479
   9.29233244  4.44113119  4.01590583
   0.52091535  2.02161029  9.32875302
   0.67783022  6.23362484  9.78879412
   0.92300985 10.62595274  9.65005515
   4.68203868  2.26045747  9.63980488
   4.89856559  6.26535680  9.30128348
   5.06648025 10.31697892  9.38079340
   9.17879670  2.02038765  9.67482948
   9.39320438  6.16159529  9.15233588
   9.16463341 10.22355191  9.47778532
   2.88940471  6.57831154  1.63079214
   2.88406027 10.62113527  1.42822884
   7.06368531  2.09464764  1.63534834
   6.90738202  6.45405451  1.37929838
   6.89236812 10.60044846  1.47914818
  11.05086533  6.78947647  1.56362328
   8.90979450  8.70221960  3.93234049
 


--------------------------------------------------------------------------------------------------------


 k-point   1 :   0.0000 0.0000 0.0000  plane waves:   45997
 k-point   2 :   0.5000 0.0000 0.0000  plane waves:   46082
 k-point   3 :   0.0000 0.5000 0.0000  plane waves:   46066
 k-point   4 :   0.5000 0.5000 0.0000  plane waves:   46128
 k-point   5 :   0.0000 0.0000 0.5000  plane waves:   45916
 k-point   6 :   0.5000 0.0000 0.5000  plane waves:   46052
 k-point   7 :   0.0000 0.5000 0.5000  plane waves:   46060
 k-point   8 :   0.5000 0.5000 0.5000  plane waves:   46056

 maximum and minimum number of plane-waves per node :      5806     5710

 maximum number of plane-waves:     46128
 maximum index in each direction: 
   IXMAX=   23   IYMAX=   23   IZMAX=   20
   IXMIN=  -23   IYMIN=  -23   IZMIN=  -20


 parallel 3D FFT for wavefunctions:
    minimum data exchange during FFTs selected (reduces bandwidth)
 parallel 3D FFT for charge:
    minimum data exchange during FFTs selected (reduces bandwidth)


 total amount of memory used by VASP MPI-rank0   110522. kBytes
=======================================================================

   base      :      30000. kBytes
   nonl-proj :      16287. kBytes
   fftplans  :       6177. kBytes
   grid      :      15593. kBytes
   one-center:        146. kBytes
   wavefun   :      42319. kBytes
 
     INWAV:  cpu time      0.0000: real time      0.0001
 Broyden mixing: mesh for mixing (old mesh)
   NGX = 47   NGY = 47   NGZ = 41
  (NGX  =192   NGY  =192   NGZ  =168)
  gives a total of  90569 points

 initial charge density was supplied:
 charge density of overlapping atoms calculated
 number of electron     360.0000000 magnetization      72.0000000
 keeping initial charge density in first step


--------------------------------------------------------------------------------------------------------


 Maximum index for augmentation-charges           660 (set IRDMAX)


--------------------------------------------------------------------------------------------------------


 First call to EWALD:  gamma=   0.148
 Maximum number of real-space cells 3x 3x 3
 Maximum number of reciprocal cells 3x 3x 3

    FEWALD:  cpu time      0.0020: real time      0.0021


--------------------------------------- Ionic step        1  -------------------------------------------




--------------------------------------- Iteration      1(   1)  ---------------------------------------


    POTLOK:  cpu time      0.1377: real time      0.1386
    SETDIJ:  cpu time      0.5949: real time      0.5969
     EDDAV:  cpu time      8.5128: real time      8.5603
       DOS:  cpu time      0.0014: real time      0.0014
    --------------------------------------------
      LOOP:  cpu time      9.2469: real time      9.2972

 eigenvalue-minimisations  :  7168
 total energy-change (2. order) : 0.1813970E+04  (-0.1419907E+05)
 number of electron     360.0000000 magnetization      72.0000000
 augmentation part      360.0000000 magnetization      72.0000000

 Free energy of the ion-electron system (eV)
  ---------------------------------------------------
  alpha Z        PSCENC =       802.50343106
  Ewald energy   TEWEN  =    -12889.89720969
  -Hartree energ DENC   =     -1106.61288259
  -exchange      EXHF   =         0.00000000
  -V(xc)+E(xc)   XCENC  =      -292.86936719
  PAW double counting   =     10738.42099860    -9719.93139476
  entropy T*S    EENTRO =        -0.02038558
  eigenvalues    EBANDS =      1245.92566782
  atomic energy  EATOM  =     13036.45147835
  Solvation  Ediel_sol  =         0.00000000
  ---------------------------------------------------
  free energy    TOTEN  =      1813.97033601 eV

  energy without entropy =     1813.99072160  energy(sigma->0) =     1813.98052880


--------------------------------------------------------------------------------------------------------




--------------------------------------- Iteration      1(   2)  ---------------------------------------


     EDDAV:  cpu time      9.6027: real time      9.6560
       DOS:  cpu time      0.0012: real time      0.0012
    --------------------------------------------
      LOOP:  cpu time      9.6039: real time      9.6572

 eigenvalue-minimisations  :  8464
 total energy-change (2. order) :-0.1874389E+04  (-0.1799685E+04)
 number of electron     360.0000000 magnetization      72.0000000
 augmentation part      360.0000000 magnetization      72.0000000

 Free energy of the ion-electron system (eV)
  ---------------------------------------------------
  alpha Z        PSCENC =       802.50343106
  Ewald energy   TEWEN  =    -12889.89720969
  -Hartree energ DENC   =     -1106.61288259
  -exchange      EXHF   =         0.00000000
  -V(xc)+E(xc)   XCENC  =      -292.86936719
  PAW double counting   =     10738.42099860    -9719.93139476
  entropy T*S    EENTRO =        -0.02064048
  eigenvalues    EBANDS =      -628.46291262
  atomic energy  EATOM  =     13036.45147835
  Solvation  Ediel_sol  =         0.00000000
  ---------------------------------------------------
  free energy    TOTEN  =       -60.41849933 eV

  energy without entropy =      -60.39785885  energy(sigma->0) =      -60.40817909


--------------------------------------------------------------------------------------------------------




--------------------------------------- Iteration      1(   3)  ---------------------------------------


     EDDAV:  cpu time      9.7188: real time      9.7737
       DOS:  cpu time      0.0012: real time      0.0012
    --------------------------------------------
      LOOP:  cpu time      9.7201: real time      9.7749

 eigenvalue-minimisations  :  8664
 total energy-change (2. order) :-0.2165895E+03  (-0.2098417E+03)
 number of electron     360.0000000 magnetization      72.0000000
 augmentation part      360.0000000 magnetization      72.0000000

 Free energy of the ion-electron system (eV)
  ---------------------------------------------------
  alpha Z        PSCENC =       802.50343106
  Ewald energy   TEWEN  =    -12889.89720969
  -Hartree energ DENC   =     -1106.61288259
  -exchange      EXHF   =         0.00000000
  -V(xc)+E(xc)   XCENC  =      -292.86936719
  PAW double counting   =     10738.42099860    -9719.93139476
  entropy T*S    EENTRO =        -0.00722634
  eigenvalues    EBANDS =      -845.06585164
  atomic energy  EATOM  =     13036.45147835
  Solvation  Ediel_sol  =         0.00000000
  ---------------------------------------------------
  free energy    TOTEN  =      -277.00802420 eV

  energy without entropy =     -277.00079786  energy(sigma->0) =     -277.00441103


--------------------------------------------------------------------------------------------------------




--------------------------------------- Iteration      1(   4)  ---------------------------------------


     EDDAV:  cpu time      9.7541: real time      9.8077
       DOS:  cpu time      0.0011: real time      0.0011
    --------------------------------------------
      LOOP:  cpu time      9.7552: real time      9.8088

 eigenvalue-minimisations  :  8680
 total energy-change (2. order) :-0.7995296E+01  (-0.7890289E+01)
 number of electron     360.0000000 magnetization      72.0000000
 augmentation part      360.0000000 magnetization      72.0000000

 Free energy of the ion-electron system (eV)
  ---------------------------------------------------
  alpha Z        PSCENC =       802.50343106
  Ewald energy   TEWEN  =    -12889.89720969
  -Hartree energ DENC   =     -1106.61288259
  -exchange      EXHF   =         0.00000000
  -V(xc)+E(xc)   XCENC  =      -292.86936719
  PAW double counting   =     10738.42099860    -9719.93139476
  entropy T*S    EENTRO =        -0.00482910
  eigenvalues    EBANDS =      -853.06354493
  atomic energy  EATOM  =     13036.45147835
  Solvation  Ediel_sol  =         0.00000000
  ---------------------------------------------------
  free energy    TOTEN  =      -285.00332026 eV

  energy without entropy =     -284.99849115  energy(sigma->0) =     -285.00090570


--------------------------------------------------------------------------------------------------------




--------------------------------------- Iteration      1(   5)  ---------------------------------------


     EDDAV:  cpu time     10.2344: real time     10.2997
       DOS:  cpu time      0.0012: real time      0.0012
    CHARGE:  cpu time      0.4201: real time      0.4222
    MIXING:  cpu time      0.0070: real time      0.0071
    --------------------------------------------
      LOOP:  cpu time     10.6627: real time     10.7302

 eigenvalue-minimisations  :  9160
 total energy-change (2. order) :-0.3123367E+00  (-0.3113977E+00)
 number of electron     359.9999993 magnetization      48.7094343
 augmentation part      -66.8049646 magnetization      48.8217145

 Broyden mixing:
  rms(total) = 0.29388E+01    rms(broyden)= 0.29388E+01
  rms(prec ) = 0.31186E+01
  weight for this iteration     100.00

 Free energy of the ion-electron system (eV)
  ---------------------------------------------------
  alpha Z        PSCENC =       802.50343106
  Ewald energy   TEWEN  =    -12889.89720969
  -Hartree energ DENC   =     -1106.61288259
  -exchange      EXHF   =         0.00000000
  -V(xc)+E(xc)   XCENC  =      -292.86936719
  PAW double counting   =     10738.42099860    -9719.93139476
  entropy T*S    EENTRO =        -0.00478234
  eigenvalues    EBANDS =      -853.37592839
  atomic energy  EATOM  =     13036.45147835
  Solvation  Ediel_sol  =         0.00000000
  ---------------------------------------------------
  free energy    TOTEN  =      -285.31565695 eV

  energy without entropy =     -285.31087461  energy(sigma->0) =     -285.31326578


--------------------------------------------------------------------------------------------------------




--------------------------------------- Iteration      1(   6)  ---------------------------------------


    POTLOK:  cpu time      0.1339: real time      0.1356
    SETDIJ:  cpu time      0.6029: real time      0.6063
     EDDAV:  cpu time      9.2708: real time      9.3230
       DOS:  cpu time      0.0012: real time      0.0012
    CHARGE:  cpu time      0.4106: real time      0.4124
    MIXING:  cpu time      0.0072: real time      0.0072
    --------------------------------------------
      LOOP:  cpu time     10.4267: real time     10.4858

 eigenvalue-minimisations  :  8040
 total energy-change (2. order) : 0.1825335E+01  (-0.2845475E+01)
 number of electron     359.9999993 magnetization      27.8024445
 augmentation part      -66.1910169 magnetization      28.9288684

 Broyden mixing:
  rms(total) = 0.17322E+01    rms(broyden)= 0.17322E+01
  rms(prec ) = 0.17695E+01
  weight for this iteration     100.00

 eigenvalues of (default mixing * dielectric matrix)
  average eigenvalue GAMMA=   1.0156
  1.0156

 Free energy of the ion-electron system (eV)
  ---------------------------------------------------
  alpha Z        PSCENC =       802.50343106
  Ewald energy   TEWEN  =    -12889.89720969
  -Hartree energ DENC   =     -1161.46107633
  -exchange      EXHF   =         0.00000000
  -V(xc)+E(xc)   XCENC  =      -286.39440184
  PAW double counting   =     13044.55954309   -12029.64038433
  entropy T*S    EENTRO =        -0.00362070
  eigenvalues    EBANDS =      -799.60808147
  atomic energy  EATOM  =     13036.45147835
  Solvation  Ediel_sol  =         0.00000000
  ---------------------------------------------------
  free energy    TOTEN  =      -283.49032185 eV

  energy without entropy =     -283.48670115  energy(sigma->0) =     -283.48851150


--------------------------------------------------------------------------------------------------------




--------------------------------------- Iteration      1(   7)  ---------------------------------------


    POTLOK:  cpu time      0.1308: real time      0.1315
    SETDIJ:  cpu time      0.6017: real time      0.6039
     EDDAV:  cpu time      9.3052: real time      9.3679
       DOS:  cpu time      0.0020: real time      0.0020
    CHARGE:  cpu time      0.4209: real time      0.4229
    MIXING:  cpu time      0.0076: real time      0.0077
    --------------------------------------------
      LOOP:  cpu time     10.4682: real time     10.5359

 eigenvalue-minimisations  :  8056
 total energy-change (2. order) :-0.7999786E+01  (-0.9925528E+00)
 number of electron     359.9999993 magnetization       9.9257596
 augmentation part      -66.1710360 magnetization      10.5850291

 Broyden mixing:
  rms(total) = 0.91565E+00    rms(broyden)= 0.91565E+00
  rms(prec ) = 0.93215E+00
  weight for this iteration     100.00

 eigenvalues of (default mixing * dielectric matrix)
  average eigenvalue GAMMA=   1.4193
  0.8648  1.9739

 Free energy of the ion-electron system (eV)
  ---------------------------------------------------
  alpha Z        PSCENC =       802.50343106
  Ewald energy   TEWEN  =    -12889.89720969
  -Hartree energ DENC   =     -1177.54313049
  -exchange      EXHF   =         0.00000000
  -V(xc)+E(xc)   XCENC  =      -289.37993106
  PAW double counting   =     15145.58923694   -14132.28936819
  entropy T*S    EENTRO =        -0.00003660
  eigenvalues    EBANDS =      -786.92457853
  atomic energy  EATOM  =     13036.45147835
  Solvation  Ediel_sol  =         0.00000000
  ---------------------------------------------------
  free energy    TOTEN  =      -291.49010821 eV

  energy without entropy =     -291.49007161  energy(sigma->0) =     -291.49008991


--------------------------------------------------------------------------------------------------------




--------------------------------------- Iteration      1(   8)  ---------------------------------------


    POTLOK:  cpu time      0.1295: real time      0.1302
    SETDIJ:  cpu time      0.6019: real time      0.6041
     EDDAV:  cpu time      9.3286: real time      9.3927
       DOS:  cpu time      0.0007: real time      0.0007
    CHARGE:  cpu time      0.3992: real time      0.4009
    MIXING:  cpu time      0.0074: real time      0.0075
    --------------------------------------------
      LOOP:  cpu time     10.4673: real time     10.5360

 eigenvalue-minimisations  :  8128
 total energy-change (2. order) :-0.3185689E+01  (-0.1791459E+00)
 number of electron     359.9999993 magnetization       4.4688356
 augmentation part      -66.2121988 magnetization       4.7866307

 Broyden mixing:
  rms(total) = 0.35847E+00    rms(broyden)= 0.35847E+00
  rms(prec ) = 0.36374E+00
  weight for this iteration     100.00

 eigenvalues of (default mixing * dielectric matrix)
  average eigenvalue GAMMA=   1.3495
  2.4786  0.9249  0.6451

 Free energy of the ion-electron system (eV)
  ---------------------------------------------------
  alpha Z        PSCENC =       802.50343106
  Ewald energy   TEWEN  =    -12889.89720969
  -Hartree energ DENC   =     -1178.77910577
  -exchange      EXHF   =         0.00000000
  -V(xc)+E(xc)   XCENC  =      -289.48813481
  PAW double counting   =     16832.83432525   -15820.40193633
  entropy T*S    EENTRO =        -0.00000000
  eigenvalues    EBANDS =      -787.89864533
  atomic energy  EATOM  =     13036.45147835
  Solvation  Ediel_sol  =         0.00000000
  ---------------------------------------------------
  free energy    TOTEN  =      -294.67579729 eV

  energy without entropy =     -294.67579729  energy(sigma->0) =     -294.67579729


--------------------------------------------------------------------------------------------------------




--------------------------------------- Iteration      1(   9)  ---------------------------------------


    POTLOK:  cpu time      0.1301: real time      0.1309
    SETDIJ:  cpu time      0.6003: real time      0.6028
     EDDAV:  cpu time     10.0758: real time     10.1343
       DOS:  cpu time      0.0010: real time      0.0010
    CHARGE:  cpu time      0.4177: real time      0.4195
    MIXING:  cpu time      0.0074: real time      0.0074
    --------------------------------------------
      LOOP:  cpu time     11.2323: real time     11.2958

 eigenvalue-minimisations  :  8936
 total energy-change (2. order) :-0.4457362E+00  (-0.4812415E-01)
 number of electron     359.9999993 magnetization       2.2880934
 augmentation part      -66.2495822 magnetization       2.4404296

 Broyden mixing:
  rms(total) = 0.15230E+00    rms(broyden)= 0.15230E+00
  rms(prec ) = 0.15494E+00
  weight for this iteration     100.00

 eigenvalues of (default mixing * dielectric matrix)
  average eigenvalue GAMMA=   1.3256
  2.6298  1.2128  0.8394  0.6203

 Free energy of the ion-electron system (eV)
  ---------------------------------------------------
  alpha Z        PSCENC =       802.50343106
  Ewald energy   TEWEN  =    -12889.89720969
  -Hartree energ DENC   =     -1177.87719907
  -exchange      EXHF   =         0.00000000
  -V(xc)+E(xc)   XCENC  =      -289.51786384
  PAW double counting   =     17191.64945504   -16179.59933173
  entropy T*S    EENTRO =        -0.00000000
  eigenvalues    EBANDS =      -788.83429365
  atomic energy  EATOM  =     13036.45147835
  Solvation  Ediel_sol  =         0.00000000
  ---------------------------------------------------
  free energy    TOTEN  =      -295.12153352 eV

  energy without entropy =     -295.12153352  energy(sigma->0) =     -295.12153352


--------------------------------------------------------------------------------------------------------




--------------------------------------- Iteration      1(  10)  ---------------------------------------


    POTLOK:  cpu time      0.1289: real time      0.1299
    SETDIJ:  cpu time      0.6016: real time      0.6035
     EDDAV:  cpu time      9.5337: real time      9.5898
       DOS:  cpu time      0.0009: real time      0.0009
    CHARGE:  cpu time      0.4158: real time      0.4176
    MIXING:  cpu time      0.0073: real time      0.0074
    --------------------------------------------
      LOOP:  cpu time     10.6882: real time     10.7490

 eigenvalue-minimisations  :  8328
 total energy-change (2. order) :-0.1081263E+00  (-0.1013228E-01)
 number of electron     359.9999993 magnetization       0.8472506
 augmentation part      -66.2492771 magnetization       0.9149663

 Broyden mixing:
  rms(total) = 0.74959E-01    rms(broyden)= 0.74959E-01
  rms(prec ) = 0.76196E-01
  weight for this iteration     100.00

 eigenvalues of (default mixing * dielectric matrix)
  average eigenvalue GAMMA=   1.3579
  2.6958  1.6671  0.9611  0.8407  0.6249

 Free energy of the ion-electron system (eV)
  ---------------------------------------------------
  alpha Z        PSCENC =       802.50343106
  Ewald energy   TEWEN  =    -12889.89720969
  -Hartree energ DENC   =     -1178.31238740
  -exchange      EXHF   =         0.00000000
  -V(xc)+E(xc)   XCENC  =      -289.49416074
  PAW double counting   =     17218.53474460   -16206.51271125
  entropy T*S    EENTRO =        -0.00000000
  eigenvalues    EBANDS =      -788.50284478
  atomic energy  EATOM  =     13036.45147835
  Solvation  Ediel_sol  =         0.00000000
  ---------------------------------------------------
  free energy    TOTEN  =      -295.22965985 eV

  energy without entropy =     -295.22965985  energy(sigma->0) =     -295.22965985


--------------------------------------------------------------------------------------------------------




--------------------------------------- Iteration      1(  11)  ---------------------------------------


    POTLOK:  cpu time      0.1294: real time      0.1301
    SETDIJ:  cpu time      0.6007: real time      0.6033
     EDDAV:  cpu time     10.0548: real time     10.1152
       DOS:  cpu time      0.0006: real time      0.0006
    CHARGE:  cpu time      0.4162: real time      0.4179
    MIXING:  cpu time      0.0079: real time      0.0079
    --------------------------------------------
      LOOP:  cpu time     11.2095: real time     11.2750

 eigenvalue-minimisations  :  8920
 total energy-change (2. order) :-0.3159001E-01  (-0.3698678E-02)
 number of electron     359.9999993 magnetization       0.2790156
 augmentation part      -66.2381168 magnetization       0.3007482

 Broyden mixing:
  rms(total) = 0.32043E-01    rms(broyden)= 0.32043E-01
  rms(prec ) = 0.32722E-01
  weight for this iteration     100.00

 eigenvalues of (default mixing * dielectric matrix)
  average eigenvalue GAMMA=   1.3781
  2.8461  2.0996  1.1377  0.8669  0.7002  0.6179

 Free energy of the ion-electron system (eV)
  ---------------------------------------------------
  alpha Z        PSCENC =       802.50343106
  Ewald energy   TEWEN  =    -12889.89720969
  -Hartree energ DENC   =     -1179.21176319
  -exchange      EXHF   =         0.00000000
  -V(xc)+E(xc)   XCENC  =      -289.47023646
  PAW double counting   =     17143.59875760   -16131.54687804
  entropy T*S    EENTRO =        -0.00000000
  eigenvalues    EBANDS =      -787.68882950
  atomic energy  EATOM  =     13036.45147835
  Solvation  Ediel_sol  =         0.00000000
  ---------------------------------------------------
  free energy    TOTEN  =      -295.26124986 eV

  energy without entropy =     -295.26124986  energy(sigma->0) =     -295.26124986


--------------------------------------------------------------------------------------------------------




--------------------------------------- Iteration      1(  12)  ---------------------------------------


    POTLOK:  cpu time      0.1295: real time      0.1315
    SETDIJ:  cpu time      0.6044: real time      0.6058
     EDDAV:  cpu time      9.7296: real time      9.7793
       DOS:  cpu time      0.0008: real time      0.0008
    CHARGE:  cpu time      0.4172: real time      0.4186
    MIXING:  cpu time      0.0077: real time      0.0078
    --------------------------------------------
      LOOP:  cpu time     10.8893: real time     10.9438

 eigenvalue-minimisations  :  8528
 total energy-change (2. order) :-0.4086929E-02  (-0.5044398E-03)
 number of electron     359.9999993 magnetization       0.0913552
 augmentation part      -66.2378416 magnetization       0.0987182

 Broyden mixing:
  rms(total) = 0.13907E-01    rms(broyden)= 0.13907E-01
  rms(prec ) = 0.14475E-01
  weight for this iteration     100.00

 eigenvalues of (default mixing * dielectric matrix)
  average eigenvalue GAMMA=   1.3465
  2.9372  2.3002  1.1299  0.8945  0.8945  0.6099  0.6590

 Free energy of the ion-electron system (eV)
  ---------------------------------------------------
  alpha Z        PSCENC =       802.50343106
  Ewald energy   TEWEN  =    -12889.89720969
  -Hartree energ DENC   =     -1179.28045541
  -exchange      EXHF   =         0.00000000
  -V(xc)+E(xc)   XCENC  =      -289.47928125
  PAW double counting   =     17104.24536718   -16092.16857334
  entropy T*S    EENTRO =        -0.00000000
  eigenvalues    EBANDS =      -787.64009369
  atomic energy  EATOM  =     13036.45147835
  Solvation  Ediel_sol  =         0.00000000
  ---------------------------------------------------
  free energy    TOTEN  =      -295.26533679 eV

  energy without entropy =     -295.26533679  energy(sigma->0) =     -295.26533679


--------------------------------------------------------------------------------------------------------




--------------------------------------- Iteration      1(  13)  ---------------------------------------


    POTLOK:  cpu time      0.1285: real time      0.1292
    SETDIJ:  cpu time      0.6030: real time      0.6046
     EDDAV:  cpu time     10.5376: real time     10.5943
       DOS:  cpu time      0.0007: real time      0.0007
    CHARGE:  cpu time      0.4138: real time      0.4153
    MIXING:  cpu time      0.0086: real time      0.0086
    --------------------------------------------
      LOOP:  cpu time     11.6922: real time     11.7527

 eigenvalue-minimisations  :  9440
 total energy-change (2. order) :-0.3548014E-03  (-0.8788017E-04)
 number of electron     359.9999993 magnetization       0.0225468
 augmentation part      -66.2380218 magnetization       0.0240520

 Broyden mixing:
  rms(total) = 0.55800E-02    rms(broyden)= 0.55800E-02
  rms(prec ) = 0.57923E-02
  weight for this iteration     100.00

 eigenvalues of (default mixing * dielectric matrix)
  average eigenvalue GAMMA=   1.3476
  3.0154  2.4297  1.1117  1.1117  0.9849  0.8692  0.6500  0.6078

 Free energy of the ion-electron system (eV)
  ---------------------------------------------------
  alpha Z        PSCENC =       802.50343106
  Ewald energy   TEWEN  =    -12889.89720969
  -Hartree energ DENC   =     -1179.27065618
  -exchange      EXHF   =         0.00000000
  -V(xc)+E(xc)   XCENC  =      -289.48569763
  PAW double counting   =     17087.63404984   -16075.54619139
  entropy T*S    EENTRO =        -0.00000000
  eigenvalues    EBANDS =      -787.65489595
  atomic energy  EATOM  =     13036.45147835
  Solvation  Ediel_sol  =         0.00000000
  ---------------------------------------------------
  free energy    TOTEN  =      -295.26569159 eV

  energy without entropy =     -295.26569159  energy(sigma->0) =     -295.26569159


--------------------------------------------------------------------------------------------------------




--------------------------------------- Iteration      1(  14)  ---------------------------------------


    POTLOK:  cpu time      0.1287: real time      0.1293
    SETDIJ:  cpu time      0.6026: real time      0.6042
     EDDAV:  cpu time      9.6040: real time      9.6518
       DOS:  cpu time      0.0007: real time      0.0007
    CHARGE:  cpu time      0.4178: real time      0.4197
    MIXING:  cpu time      0.0078: real time      0.0078
    --------------------------------------------
      LOOP:  cpu time     10.7616: real time     10.8135

 eigenvalue-minimisations  :  8400
 total energy-change (2. order) :-0.4178237E-04  (-0.1422294E-04)
 number of electron     359.9999993 magnetization       0.0075289
 augmentation part      -66.2375780 magnetization       0.0079875

 Broyden mixing:
  rms(total) = 0.21478E-02    rms(broyden)= 0.21478E-02
  rms(prec ) = 0.22526E-02
  weight for this iteration     100.00

 eigenvalues of (default mixing * dielectric matrix)
  average eigenvalue GAMMA=   1.3272
  3.0541  2.4465  1.4018  1.1374  0.9354  0.9354  0.7786  0.6134  0.6427

 Free energy of the ion-electron system (eV)
  ---------------------------------------------------
  alpha Z        PSCENC =       802.50343106
  Ewald energy   TEWEN  =    -12889.89720969
  -Hartree energ DENC   =     -1179.29993384
  -exchange      EXHF   =         0.00000000
  -V(xc)+E(xc)   XCENC  =      -289.48524628
  PAW double counting   =     17081.96343592   -16069.87236923
  entropy T*S    EENTRO =        -0.00000000
  eigenvalues    EBANDS =      -787.62931966
  atomic energy  EATOM  =     13036.45147835
  Solvation  Ediel_sol  =         0.00000000
  ---------------------------------------------------
  free energy    TOTEN  =      -295.26573338 eV

  energy without entropy =     -295.26573338  energy(sigma->0) =     -295.26573338


--------------------------------------------------------------------------------------------------------




--------------------------------------- Iteration      1(  15)  ---------------------------------------


    POTLOK:  cpu time      0.1350: real time      0.1357
    SETDIJ:  cpu time      0.5943: real time      0.5985
     EDDAV:  cpu time      9.6015: real time      9.6498
       DOS:  cpu time      0.0009: real time      0.0009
    CHARGE:  cpu time      0.4189: real time      0.4207
    MIXING:  cpu time      0.0091: real time      0.0092
    --------------------------------------------
      LOOP:  cpu time     10.7597: real time     10.8148

 eigenvalue-minimisations  :  8440
 total energy-change (2. order) :-0.5499959E-05  (-0.2381023E-05)
 number of electron     359.9999993 magnetization       0.0025287
 augmentation part      -66.2377414 magnetization       0.0028059

 Broyden mixing:
  rms(total) = 0.10881E-02    rms(broyden)= 0.10881E-02
  rms(prec ) = 0.11398E-02
  weight for this iteration     100.00

 eigenvalues of (default mixing * dielectric matrix)
  average eigenvalue GAMMA=   1.2978
  3.0702  2.4398  1.6906  1.1190  0.9370  0.9370  0.8398  0.7101  0.6172  0.6172

 Free energy of the ion-electron system (eV)
  ---------------------------------------------------
  alpha Z        PSCENC =       802.50343106
  Ewald energy   TEWEN  =    -12889.89720969
  -Hartree energ DENC   =     -1179.28857113
  -exchange      EXHF   =         0.00000000
  -V(xc)+E(xc)   XCENC  =      -289.48568952
  PAW double counting   =     17081.27653280   -16069.18456536
  entropy T*S    EENTRO =        -0.00000000
  eigenvalues    EBANDS =      -787.64114539
  atomic energy  EATOM  =     13036.45147835
  Solvation  Ediel_sol  =         0.00000000
  ---------------------------------------------------
  free energy    TOTEN  =      -295.26573888 eV

  energy without entropy =     -295.26573888  energy(sigma->0) =     -295.26573888


--------------------------------------------------------------------------------------------------------




--------------------------------------- Iteration      1(  16)  ---------------------------------------


    POTLOK:  cpu time      0.1290: real time      0.1296
    SETDIJ:  cpu time      0.6035: real time      0.6049
     EDDAV:  cpu time      7.2064: real time      7.2408
       DOS:  cpu time      0.0007: real time      0.0007
    --------------------------------------------
      LOOP:  cpu time      7.9395: real time      7.9759

 eigenvalue-minimisations  :  5632
 total energy-change (2. order) :-0.8338318E-06  (-0.2956982E-06)
 number of electron     359.9999993 magnetization       0.0025287
 augmentation part      -66.2377414 magnetization       0.0028059

 Free energy of the ion-electron system (eV)
  ---------------------------------------------------
  alpha Z        PSCENC =       802.50343106
  Ewald energy   TEWEN  =    -12889.89720969
  -Hartree energ DENC   =     -1179.28253490
  -exchange      EXHF   =         0.00000000
  -V(xc)+E(xc)   XCENC  =      -289.48598949
  PAW double counting   =     17081.07137420   -16068.97904551
  entropy T*S    EENTRO =        -0.00000000
  eigenvalues    EBANDS =      -787.64724373
  atomic energy  EATOM  =     13036.45147835
  Solvation  Ediel_sol  =         0.00000000
  ---------------------------------------------------
  free energy    TOTEN  =      -295.26573971 eV

  energy without entropy =     -295.26573971  energy(sigma->0) =     -295.26573971


--------------------------------------------------------------------------------------------------------




 average (electrostatic) potential at core
  the test charge radii are     1.1631  1.0808
  (the norm of the test charge is              1.0000)
       1 -33.5605       2 -33.5546       3 -33.8517       4 -33.5375       5 -33.3205
       6 -33.5205       7 -33.6181       8 -33.6762       9 -33.2280      10 -33.8083
      11 -33.1952      12 -33.3403      13 -33.1581      14 -33.4487      15 -33.5977
      16 -33.4795      17 -33.3291      18 -33.9354      19 -33.4074      20 -33.3202
      21 -33.5514      22 -33.3416      23 -33.0497      24 -33.6982      25 -33.7241
      26 -33.4237      27 -33.7430      28 -33.3414      29 -33.1806      30 -33.5024
      31 -33.7955      32 -33.8043      33 -33.6065      34 -33.2991      35 -33.3356
      36 -33.3917      37 -54.9786      38 -55.0523      39 -54.6574      40 -54.8781
      41 -54.3721      42 -55.0433      43 -54.6749      44 -54.4122      45 -55.0791
      46 -54.9182      47 -54.7058      48 -55.0033      49 -55.0065      50 -54.7199
      51 -54.6494      52 -54.6027      53 -54.7064      54 -54.7685      55 -54.8303
      56 -55.1184      57 -54.8742      58 -54.5707      59 -54.6135      60 -54.7690
      61 -54.8687      62 -54.7355      63 -54.2435      64 -54.6070      65 -54.5876
      66 -54.6967      67 -54.9390      68 -55.0018      69 -54.6889      70 -55.0159
      71 -54.7955      72 -54.6539
 
 
 
 E-fermi :   3.5809     XC(G=0):  -9.4093     alpha+bet : -8.8831

 Fermi energy:         3.5809015398

 spin component 1

 k-point     1 :       0.0000    0.0000    0.0000
  band No.  band energies     occupation 
      1     -10.9170      1.00000
      2     -10.5229      1.00000
      3     -10.5183      1.00000
      4     -10.3183      1.00000
      5     -10.2738      1.00000
      6     -10.2420      1.00000
      7     -10.1623      1.00000
      8     -10.0115      1.00000
      9      -9.9919      1.00000
     10      -9.9213      1.00000
     11      -9.8744      1.00000
     12      -9.8640      1.00000
     13      -9.8245      1.00000
     14      -9.7807      1.00000
     15      -9.7045      1.00000
     16      -9.6760      1.00000
     17      -9.6190      1.00000
     18      -9.5782      1.00000
     19      -9.4893      1.00000
     20      -9.4177      1.00000
     21      -9.3912      1.00000
     22      -9.3197      1.00000
     23      -9.2727      1.00000
     24      -9.2642      1.00000
     25      -9.2207      1.00000
     26      -9.1729      1.00000
     27      -9.1337      1.00000
     28      -9.0775      1.00000
     29      -9.0192      1.00000
     30      -8.9840      1.00000
     31      -8.9576      1.00000
     32      -8.9028      1.00000
     33      -8.8763      1.00000
     34      -8.8186      1.00000
     35      -8.7451      1.00000
     36      -8.6255      1.00000
     37      -5.7746      1.00000
     38      -5.6048      1.00000
     39      -5.3872      1.00000
     40      -5.3073      1.00000
     41      -5.2296      1.00000
     42      -5.1505      1.00000
     43      -5.1316      1.00000
     44      -4.9888      1.00000
     45      -4.8588      1.00000
     46      -4.8112      1.00000
     47      -4.7221      1.00000
     48      -4.6479      1.00000
     49      -4.5803      1.00000
     50      -4.5499      1.00000
     51      -4.5338      1.00000
     52      -4.4231      1.00000
     53      -4.3900      1.00000
     54      -4.3490      1.00000
     55      -4.3103      1.00000
     56      -4.2776      1.00000
     57      -4.2285      1.00000
     58      -4.1406      1.00000
     59      -4.1262      1.00000
     60      -4.0321      1.00000
     61      -4.0129      1.00000
     62      -3.8760      1.00000
     63      -3.8698      1.00000
     64      -3.8005      1.00000
     65      -3.7602      1.00000
     66      -3.6553      1.00000
     67      -3.6270      1.00000
     68      -3.5617      1.00000
     69      -3.4379      1.00000
     70      -3.3036      1.00000
     71      -2.6009      1.00000
     72      -2.5020      1.00000
     73      -1.7067      1.00000
     74      -1.5498      1.00000
     75      -1.5078      1.00000
     76      -1.4488      1.00000
     77      -1.3805      1.00000
     78      -1.3570      1.00000
     79      -1.3134      1.00000
     80      -1.2331      1.00000
     81      -1.1882      1.00000
     82      -1.1123      1.00000
     83      -1.0610      1.00000
     84      -1.0101      1.00000
     85      -0.9947      1.00000
     86      -0.8912      1.00000
     87      -0.8722      1.00000
     88      -0.7193      1.00000
     89      -0.7117      1.00000
     90      -0.6413      1.00000
     91      -0.5575      1.00000
     92      -0.4269      1.00000
     93      -0.3906      1.00000
     94      -0.2012      1.00000
     95      -0.1860      1.00000
     96      -0.1628      1.00000
     97      -0.1192      1.00000
     98      -0.1040      1.00000
     99       0.0063      1.00000
    100       0.0222      1.00000
    101       0.0768      1.00000
    102       0.1162      1.00000
    103       0.1481      1.00000
    104       0.2108      1.00000
    105       0.2381      1.00000
    106       0.2889      1.00000
    107       0.3420      1.00000
    108       0.3507      1.00000
    109       0.4110      1.00000
    110       0.4386      1.00000
    111       0.4821      1.00000
    112       0.5354      1.00000
    113       0.5445      1.00000
    114       0.5858      1.00000
    115       0.6265      1.00000
    116       0.6676      1.00000
    117       0.7072      1.00000
    118       0.7721      1.00000
    119       0.7803      1.00000
    120       0.8257      1.00000
    121       0.8718      1.00000
    122       0.9019      1.00000
    123       0.9599      1.00000
    124       1.0141      1.00000
    125       1.0483      1.00000
    126       1.0771      1.00000
    127       1.1029      1.00000
    128       1.1750      1.00000
    129       1.2021      1.00000
    130       1.2275      1.00000
    131       1.2651      1.00000
    132       1.3163      1.00000
    133       1.3675      1.00000
    134       1.3895      1.00000
    135       1.3996      1.00000
    136       1.4235      1.00000
    137       1.4372      1.00000
    138       1.4782      1.00000
    139       1.5673      1.00000
    140       1.6660      1.00000
    141       1.6793      1.00000
    142       1.6935      1.00000
    143       1.7187      1.00000
    144       1.7329      1.00000
    145       1.7820      1.00000
    146       1.8183      1.00000
    147       1.8510      1.00000
    148       1.9377      1.00000
    149       1.9844      1.00000
    150       2.0080      1.00000
    151       2.0177      1.00000
    152       2.0572      1.00000
[...]
   0.647E+01 0.109E+01 -.230E+02   -.655E+01 -.157E+01 0.256E+02   -.486E+00 0.363E+00 -.262E+01   0.306E-04 0.180E-03 -.420E-04
   0.222E+02 0.135E+02 0.145E+02   -.243E+02 -.143E+02 -.163E+02   0.193E+01 0.161E+00 0.204E+01   -.124E-03 -.241E-03 -.493E-03
   0.117E+02 0.295E+01 0.188E+01   -.111E+02 -.372E+01 -.217E+01   -.858E-01 0.461E+00 -.133E+00   -.667E-04 -.291E-03 -.494E-03
   -.305E+02 -.230E+01 0.152E+02   0.315E+02 0.970E+00 -.168E+02   -.427E-01 0.496E+00 0.837E+00   0.397E-03 0.640E-04 0.538E-04
   -.238E+02 0.204E+02 0.270E+02   0.254E+02 -.218E+02 -.286E+02   -.672E+00 0.298E+00 0.139E+01   0.232E-03 0.168E-03 0.203E-03
   -.232E+02 -.181E+02 0.217E+02   0.246E+02 0.179E+02 -.235E+02   -.910E+00 -.293E+00 0.183E+01   -.561E-03 -.441E-03 0.456E-03
   -.190E+01 0.465E+02 -.748E+01   0.245E+01 -.485E+02 0.797E+01   0.157E+00 0.156E+01 -.281E+00   -.784E-03 0.399E-03 -.431E-04
   -.164E+02 0.395E+01 0.124E+02   0.179E+02 -.410E+01 -.138E+02   -.563E+00 0.228E+00 0.166E+01   -.465E-03 0.355E-03 0.325E-03
   0.120E+02 -.509E+01 0.126E+02   -.118E+02 0.506E+01 -.138E+02   -.309E+00 0.589E+00 0.653E+00   0.987E-04 0.507E-04 -.260E-03
   0.210E+02 -.972E+01 -.173E+02   -.209E+02 0.104E+02 0.174E+02   -.321E+00 -.685E+00 0.827E+00   -.206E-03 0.181E-03 0.674E-03
   0.161E+01 -.946E+01 -.240E+02   -.123E+01 0.110E+02 0.253E+02   -.270E+00 -.145E+01 -.128E+01   -.433E-05 0.331E-04 0.310E-03
   -.205E+02 -.192E+02 -.977E+01   0.220E+02 0.197E+02 0.102E+02   -.102E+01 0.539E+00 -.383E+00   0.576E-05 0.434E-03 0.371E-03
   -.814E+01 0.117E+01 -.314E+02   0.873E+01 -.231E+00 0.334E+02   -.363E+00 -.908E+00 -.117E+01   0.141E-03 -.222E-03 0.350E-04
   -.372E+02 -.905E+01 -.161E+02   0.390E+02 0.915E+01 0.169E+02   -.968E+00 -.108E+00 -.124E+01   0.370E-03 -.131E-03 0.491E-03
   -.123E+01 0.213E+01 -.231E+02   0.101E+01 -.159E+01 0.242E+02   0.159E+00 -.145E+01 -.113E+01   -.213E-03 0.296E-03 0.453E-03
   -.149E+01 -.266E+01 -.277E+02   0.138E+01 0.346E+01 0.290E+02   0.284E+00 -.136E+01 -.148E+01   -.751E-04 -.215E-04 0.349E-03
   -.228E+02 0.177E+02 -.142E+02   0.228E+02 -.187E+02 0.143E+02   0.476E+00 0.100E+01 0.442E+00   0.366E-03 0.831E-04 0.321E-03
   -.225E+01 0.256E+02 0.513E+01   0.276E+01 -.272E+02 -.591E+01   -.375E+00 0.127E+01 0.139E+01   -.499E-04 0.396E-03 0.227E-03
   0.213E+02 -.465E+01 0.282E+00   -.217E+02 0.608E+01 -.282E+00   0.358E+00 -.133E+01 0.648E+00   0.346E-03 -.168E-03 -.306E-03
   -.435E+02 -.128E+02 0.397E+01   0.455E+02 0.122E+02 -.405E+01   -.405E+00 -.274E+00 0.584E+00   0.120E-03 -.339E-03 -.391E-03
   0.174E+02 -.169E+02 0.237E+02   -.178E+02 0.177E+02 -.253E+02   -.317E+00 -.118E+01 0.175E+01   -.114E-03 0.990E-04 0.150E-03
   0.243E+02 -.104E+02 -.124E+02   -.248E+02 0.112E+02 0.136E+02   -.288E+00 -.118E+01 -.182E+01   0.766E-04 -.190E-03 0.166E-03
   0.221E+00 -.213E+02 -.196E+02   -.661E+00 0.221E+02 0.213E+02   0.800E+00 -.113E+01 -.919E-01   0.490E-03 -.138E-03 -.456E-03
   -.193E+02 0.104E+02 0.170E+01   0.201E+02 -.113E+02 -.754E+00   -.302E-02 0.779E+00 -.165E+01   0.772E-04 0.509E-03 -.188E-04
   -.137E+02 0.193E+02 0.777E+01   0.144E+02 -.200E+02 -.658E+01   -.813E+00 0.641E+00 -.216E+01   0.263E-03 -.354E-03 -.514E-03
   -.382E+02 0.620E+01 -.369E+01   0.390E+02 -.682E+01 0.496E+01   -.389E+00 0.368E-01 -.213E+01   0.363E-04 -.119E-03 -.581E-03
   -.192E+02 -.448E+01 -.237E+02   0.203E+02 0.484E+01 0.254E+02   -.988E+00 0.272E+00 -.143E+01   -.127E-03 -.516E-05 -.375E-03
   0.253E+02 -.106E+02 -.940E+01   -.272E+02 0.110E+02 0.105E+02   0.193E+01 -.711E+00 -.107E+01   0.554E-03 0.373E-03 -.543E-03
   0.253E+02 -.942E+00 0.279E+02   -.250E+02 0.545E+00 -.289E+02   -.809E+00 0.133E+01 0.897E+00   -.472E-03 -.154E-04 0.247E-03
   0.299E+02 -.757E+01 -.217E+02   -.313E+02 0.812E+01 0.224E+02   0.108E+01 -.330E+00 -.226E+00   -.146E-03 0.235E-03 0.170E-03
   0.493E+01 0.595E+01 -.681E+01   -.429E+01 -.626E+01 0.751E+01   -.147E+01 0.494E+00 -.132E+01   -.811E-03 -.115E-04 -.534E-03
   -.615E+01 0.382E+01 0.327E+02   0.608E+01 -.316E+01 -.351E+02   0.267E+00 -.158E+01 0.805E+00   0.461E-05 0.259E-03 -.282E-04
   -.172E+02 -.820E+01 0.138E+02   0.172E+02 0.992E+01 -.149E+02   0.297E+00 -.544E+00 0.165E+01   0.688E-04 -.163E-03 -.420E-03
   0.715E+01 -.145E+02 0.815E+01   -.748E+01 0.153E+02 -.851E+01   -.248E-01 -.429E+00 0.451E+00   -.193E-03 0.173E-03 -.587E-03
   -.935E+01 -.137E+02 0.290E+02   0.964E+01 0.149E+02 -.307E+02   0.354E-01 -.160E+01 0.197E+01   0.199E-04 -.184E-03 -.667E-03
   -.201E+02 0.281E+01 0.225E+02   0.214E+02 -.294E+01 -.240E+02   -.137E+01 0.695E+00 0.140E+01   -.374E-03 -.755E-04 -.516E-03
   0.414E+01 0.981E+01 0.120E+02   -.287E+01 -.101E+02 -.132E+02   -.174E+01 -.273E+00 0.140E+01   0.209E-03 -.536E-04 -.457E-03
   -.132E+02 0.141E+02 -.108E+02   0.144E+02 -.145E+02 0.117E+02   -.128E+01 0.280E+00 -.109E+01   -.233E-03 0.283E-03 0.587E-03
 -----------------------------------------------------------------------------------------------
   -.182E+02 -.218E+01 -.140E+01   -.110E-12 -.924E-13 0.746E-13   0.182E+02 0.218E+01 0.140E+01   0.445E-04 0.999E-03 -.139E-02
 
 
 POSITION                                       TOTAL-FORCE (eV/Angst)
 -----------------------------------------------------------------------------------
      0.94877      0.44342      1.48962        -0.681982      0.284954      0.163639
      3.05231     11.11544      4.24124        -0.452610     -0.276031     -0.042420
      6.98750      2.67823      4.24513         0.266657      0.339722      0.060931
      7.02295      6.77012      3.95628        -0.079995      0.591805     -0.463922
      7.21420     10.70413      3.98016         0.613392      0.123493      0.180847
     11.11475      2.59600      4.01354        -0.042973     -0.296073     -0.292344
     11.60256      6.63730      4.14729        -0.176063      0.109169     -0.446397
     11.56498     11.04893      4.53983        -0.403380     -0.123938     -0.426595
      0.89096      1.76816      7.02855        -0.113462      0.064973     -1.531393
      1.01968      5.84122      6.37784        -0.685830      0.335205      0.064125
      1.01174     10.14020      7.01328        -0.735972      0.860574      0.285772
      5.01634      1.50167      7.09835        -0.637738      0.739398     -0.005242
      5.32569      5.94667      6.80525        -0.503260      0.281682     -0.295733
      5.46870     10.00265      6.85546        -1.101932      0.737388     -0.358466
      9.67148      1.71918      6.16802        -0.465208      0.203258     -0.138801
      9.22651      5.96471      6.57290         0.069549     -0.501460      0.628733
      3.13052      6.67639      3.93141        -0.002550      0.438253      1.487002
      3.19449      2.42980      4.49354         0.079258      0.401260     -0.268109
      9.49083     10.03200      6.65750        -0.291013      0.188190      0.623002
     11.38531      7.93360      9.70287        -0.462290      0.319669     -0.416902
     11.34904     12.20673      9.79410        -0.043785     -0.060882     -0.093389
      1.19057      4.45923      1.33418        -1.002035      1.160690      0.079353
      0.93614      9.11770      1.47653        -0.555616     -1.185585     -0.968498
      5.19517      0.20005      1.23808         0.215032      0.197042      0.226760
      5.08519      4.46040      1.21127         0.010554      0.735996      0.464680
      9.07354      0.60589      0.99105         0.638546      0.264699     -0.050990
      9.25930      4.77023      1.48155         0.061157      0.769897      0.105277
      4.85474      9.07497      1.25696         0.198718     -1.024037      0.228205
      3.33814      4.37794      9.26731        -0.911376     -0.352641      1.390649
      2.73096      8.06915      9.61702         0.105747     -0.188147      0.067677
      2.51768      0.48437     10.11025        -0.001177      0.148959     -0.310386
      7.54885      4.00084     10.29180         0.695733     -0.738167     -0.746138
      7.00594      8.39225      9.40335         0.333015      0.043832      0.203237
      7.04098     11.99558      9.37713         0.607904      0.158967      0.403171
     11.28899      4.26049      9.59175        -0.564329     -0.118254      0.024692
      9.55658      9.07545      1.32007        -0.163816     -0.624544      0.239872
     10.95517     12.35232      7.15025         0.540847     -0.313876     -0.416937
      2.52200      4.09523      6.99416         0.923023     -0.831852     -0.764686
      2.68079      8.46081      7.15934         0.843132     -1.058038     -0.277756
      6.91712     12.44678      6.89577         0.452948     -0.432363      0.037794
      7.08608      4.31030      7.06637         0.697367     -0.430554      0.206045
      6.93469      8.03101      6.85170         0.902308      0.078236      0.276641
     11.18576      3.97236      7.08983        -0.095581      0.554618     -0.508281
      9.30850     12.43920      3.65707        -0.240666     -0.021997      0.896421
      0.89101      0.29277      3.99996         0.111643      0.120501     -0.064356
      0.60976      4.09719      3.97903         0.516080      1.025031     -0.001725
      0.80846      8.53677      3.85641         0.226377      0.031916      0.911644
      4.70810      0.44347      3.81686         0.764577     -0.017481     -0.353714
      5.00508      4.48841      3.82653        -0.063770     -0.901744     -0.028163
      4.88309      8.65810      3.89859         0.173562     -0.567816     -0.086996
      2.81562      0.01484      6.82465         0.495266     -0.030264      0.545035
     11.33864      8.43509      6.87533         0.133109     -0.313762      0.612966
     11.42182     10.74527      1.43559        -0.080773      0.099413      0.646969
      2.47405      2.44767      1.38316         1.623961     -0.859571      0.509065
     11.30740      2.30012      1.51214        -0.745686     -0.395193      0.152322
      9.29233      4.44113      4.01591        -0.788271     -0.415760     -0.573846
      0.52092      2.02161      9.32875         0.360782     -0.350684      1.585354
      0.67783      6.23362      9.78879         0.848503     -0.133563     -0.704345
      0.92301     10.62595      9.65006        -0.133209     -0.077921     -0.972266
      4.68204      2.26046      9.63980         0.433985     -0.575890     -0.860658
      4.89857      6.26536      9.30128         0.098579      0.626925      0.231773
      5.06648     10.31698      9.38079         0.049981     -0.289056      0.005856
      9.17880      2.02039      9.67483        -0.538367      0.930954     -0.129396
      9.39320      6.16160      9.15234        -0.367387      0.220132      0.463913
      9.16463     10.22355      9.47779        -0.829279      0.184566     -0.616169
      2.88940      6.57831      1.63079         0.193555     -0.919258     -1.608334
      2.88406     10.62114      1.42823         0.332413      1.176496      0.613918
      7.06369      2.09465      1.63535        -0.354989      0.392312      0.091280
      6.90738      6.45405      1.37930         0.321218     -0.419020      0.308918
      6.89237     10.60045      1.47915        -0.050186      0.566615     -0.140658
     11.05087      6.78948      1.56362        -0.478953     -0.559870      0.199137
      8.90979      8.70222      3.93234        -0.092968     -0.101494     -0.258664
 -----------------------------------------------------------------------------------
    total drift:                                0.000782      0.000216     -0.000196


--------------------------------------------------------------------------------------------------------



  FREE ENERGIE OF THE ION-ELECTRON SYSTEM (eV)
  ---------------------------------------------------
  free  energy   TOTEN  =      -295.26573971 eV

  energy  without entropy=     -295.26573971  energy(sigma->0) =     -295.26573971
 


--------------------------------------------------------------------------------------------------------


    POTLOK:  cpu time      0.7346: real time      0.7371


--------------------------------------------------------------------------------------------------------


     LOOP+:  cpu time    179.6326: real time    180.6246
    4ORBIT:  cpu time      0.0000: real time      0.0000



 total charge

# of ion       s       p       d       tot
------------------------------------------
    1        1.288   0.833   0.072   2.194
    2        1.337   0.735   0.058   2.129
    3        1.348   0.669   0.042   2.058
    4        1.323   0.734   0.050   2.107
    5        1.316   0.777   0.056   2.149
    6        1.244   0.903   0.078   2.225
    7        1.327   0.737   0.052   2.116
    8        1.335   0.707   0.050   2.092
    9        1.322   0.823   0.071   2.215
   10        1.331   0.728   0.053   2.111
   11        1.291   0.839   0.066   2.196
   12        1.285   0.829   0.056   2.170
   13        1.305   0.844   0.067   2.216
   14        1.334   0.766   0.061   2.161
   15        1.327   0.746   0.053   2.126
   16        1.332   0.715   0.052   2.098
   17        1.289   0.848   0.068   2.206
   18        1.357   0.656   0.047   2.059
   19        1.326   0.758   0.054   2.138
   20        1.322   0.757   0.057   2.136
   21        1.338   0.716   0.058   2.112
   22        1.337   0.769   0.062   2.167
   23        1.300   0.872   0.076   2.247
   24        1.329   0.733   0.051   2.113
   25        1.332   0.701   0.047   2.081
   26        1.332   0.725   0.059   2.115
   27        1.289   0.774   0.049   2.112
   28        1.321   0.790   0.064   2.175
   29        1.291   0.894   0.075   2.259
   30        1.327   0.736   0.052   2.115
   31        1.347   0.681   0.052   2.080
   32        1.337   0.671   0.041   2.049
   33        1.344   0.706   0.051   2.100
   34        1.313   0.783   0.056   2.152
   35        1.329   0.750   0.062   2.141
   36        1.333   0.747   0.054   2.133
   37        1.474   2.309   0.036   3.819
   38        1.473   2.348   0.042   3.863
   39        1.475   2.334   0.034   3.843
   40        1.483   2.299   0.035   3.817
   41        1.477   2.294   0.025   3.795
   42        1.479   2.325   0.042   3.847
   43        1.477   2.282   0.029   3.788
   44        1.478   2.271   0.024   3.773
   45        1.480   2.302   0.037   3.820
   46        1.481   2.287   0.031   3.798
   47        1.477   2.314   0.033   3.824
   48        1.474   2.325   0.036   3.835
   49        1.480   2.274   0.031   3.784
   50        1.478   2.274   0.028   3.780
   51        1.481   2.274   0.028   3.784
   52        1.479   2.294   0.030   3.803
   53        1.480   2.305   0.035   3.820
   54        1.478   2.337   0.036   3.850
   55        1.483   2.258   0.029   3.769
   56        1.482   2.279   0.033   3.794
   57        1.477   2.341   0.041   3.858
   58        1.481   2.299   0.034   3.814
   59        1.481   2.277   0.030   3.788
   60        1.486   2.261   0.029   3.776
   61        1.480   2.310   0.036   3.826
   62        1.479   2.299   0.033   3.812
   63        1.480   2.263   0.022   3.765
   64        1.473   2.291   0.028   3.793
   65        1.481   2.250   0.025   3.756
   66        1.480   2.316   0.036   3.832
   67        1.477   2.329   0.040   3.846
   68        1.474   2.298   0.031   3.803
   69        1.481   2.259   0.025   3.765
   70        1.480   2.304   0.038   3.821
   71        1.481   2.260   0.028   3.769
   72        1.477   2.281   0.028   3.786
--------------------------------------------------
tot        100.777 110.071   3.225 214.073



 magnetization (x)

# of ion       s       p       d       tot
------------------------------------------
    1       -0.000   0.000   0.000  -0.000
    2       -0.000   0.000   0.000   0.000
    3       -0.000   0.000   0.000   0.000
    4       -0.000   0.000   0.000   0.000
    5       -0.000   0.000   0.000   0.000
    6       -0.000   0.000  -0.000   0.000
    7       -0.000  -0.000  -0.000  -0.000
    8        0.000  -0.000  -0.000  -0.000
    9       -0.000   0.000   0.000   0.000
   10        0.000  -0.000   0.000  -0.000
   11       -0.000  -0.000  -0.000  -0.000
   12       -0.000   0.000   0.000   0.000
   13       -0.000   0.000   0.000   0.000
   14       -0.000   0.000   0.000   0.000
   15       -0.000   0.000   0.000   0.000
   16       -0.000   0.000   0.000   0.000
   17       -0.000   0.000  -0.000   0.000
   18       -0.000   0.000   0.000   0.000
   19       -0.000   0.000  -0.000   0.000
   20       -0.000  -0.000  -0.000  -0.000
   21       -0.000   0.000  -0.000  -0.000
   22       -0.000   0.000  -0.000  -0.000
   23       -0.000  -0.000  -0.000  -0.000
   24       -0.000   0.000   0.000   0.000
   25       -0.000   0.000   0.000   0.000
   26       -0.000   0.000  -0.000   0.000
   27       -0.000   0.000  -0.000   0.000
   28       -0.000   0.000   0.000   0.000
   29       -0.000   0.000   0.000   0.000
   30       -0.000   0.000  -0.000   0.000
   31       -0.000   0.000   0.000   0.000
   32       -0.000   0.000   0.000   0.000
   33       -0.000   0.000   0.000   0.000
   34       -0.000   0.000   0.000   0.000
   35       -0.000   0.000  -0.000  -0.000
   36       -0.000  -0.000  -0.000  -0.000
   37       -0.000  -0.000   0.000  -0.000
   38       -0.000  -0.000   0.000  -0.000
   39       -0.000  -0.000  -0.000  -0.000
   40       -0.000  -0.000   0.000  -0.000
   41       -0.000  -0.000   0.000  -0.000
   42       -0.000  -0.000   0.000  -0.000
   43       -0.000  -0.000   0.000  -0.000
   44       -0.000  -0.000   0.000  -0.000
   45       -0.000  -0.000   0.000  -0.000
   46       -0.000  -0.000   0.000  -0.000
   47       -0.000  -0.000  -0.000  -0.000
   48       -0.000  -0.000   0.000  -0.000
   49       -0.000  -0.000   0.000  -0.000
   50       -0.000  -0.000   0.000  -0.000
   51       -0.000  -0.000   0.000  -0.000
   52       -0.000  -0.000  -0.000  -0.000
   53       -0.000  -0.000  -0.000  -0.000
   54       -0.000  -0.000   0.000  -0.000
   55       -0.000  -0.000   0.000  -0.000
   56       -0.000  -0.000   0.000  -0.000
   57       -0.000  -0.000   0.000  -0.000
   58       -0.000  -0.000  -0.000  -0.000
   59       -0.000  -0.000  -0.000  -0.000
   60       -0.000  -0.000   0.000  -0.000
   61       -0.000  -0.000   0.000  -0.000
   62       -0.000  -0.000   0.000  -0.000
   63       -0.000  -0.000   0.000  -0.000
   64       -0.000  -0.000  -0.000  -0.000
   65       -0.000  -0.000  -0.000  -0.000
   66       -0.000  -0.000   0.000  -0.000
   67       -0.000  -0.000   0.000  -0.000
   68       -0.000  -0.000   0.000  -0.000
   69       -0.000  -0.000   0.000  -0.000
   70       -0.000  -0.000   0.000  -0.000
   71       -0.000  -0.000  -0.000  -0.000
   72       -0.000  -0.000   0.000  -0.000
--------------------------------------------------
tot         -0.000  -0.000   0.000  -0.000
 

 total amount of memory used by VASP MPI-rank0   110522. kBytes
=======================================================================

   base      :      30000. kBytes
   nonl-proj :      16287. kBytes
   fftplans  :       6177. kBytes
   grid      :      15593. kBytes
   one-center:        146. kBytes
   wavefun   :      42319. kBytes
 
  
  
 General timing and accounting informations for this job:
 ========================================================
  
                  Total CPU time used (sec):      191.357
                            User time (sec):      185.486
                          System time (sec):        5.871
                         Elapsed time (sec):      194.199
  
                   Maximum memory used (kb):      314092.
                   Average memory used (kb):          N/A
  
                          Minor page faults:       103933
                          Major page faults:           46
                 Voluntary context switches:         5606
