 vasp.6.4.2 20Jul23 (build Oct 12 2023 10:31:02) complex                         
 executed on              LinuxNV date 2024.11.01  23:01:49
 running  128 mpi-ranks, with    1 threads/rank, on    2 nodes
 distrk:  each k-point on   64 cores,    2 groups
 distr:  one band on NCORE=   8 cores,    8 groups


--------------------------------------------------------------------------------------------------------


 INCAR:
   ENCUT = 520.000000
   SIGMA = 0.050000
   EDIFF = 1.00e-06
   ALGO = N
   GGA = PE
   PREC = Accurate
   SYSTEM = 01_AOPT
   ICHARG = 0
   ISMEAR = 0
   ISPIN = 2
   ISTART = 1
   ISYM = -1
   KPAR = 2
   LORBIT = 11
   NBANDS = 220
   NELM = 100
   NELMIN = 5
   NPAR = 8
   LASPH = .TRUE.
   LCHARG = .FALSE.
   LWAVE = .FALSE.
   LREAL = .FALSE.

 POTCAR:    PAW_PBE Ge 05Jan2001                  
 POTCAR:    PAW_PBE Se 06Sep2000                  
 -----------------------------------------------------------------------------
|                                                                             |
|           W    W    AA    RRRRR   N    N  II  N    N   GGGG   !!!           |
|           W    W   A  A   R    R  NN   N  II  NN   N  G    G  !!!           |
|           W    W  A    A  R    R  N N  N  II  N N  N  G       !!!           |
|           W WW W  AAAAAA  RRRRR   N  N N  II  N  N N  G  GGG   !            |
|           WW  WW  A    A  R   R   N   NN  II  N   NN  G    G                |
|           W    W  A    A  R    R  N    N  II  N    N   GGGG   !!!           |
|                                                                             |
|     You use a magnetic or noncollinear calculation, but did not specify     |
|     the initial magnetic moment with the MAGMOM tag. Note that a            |
|     default of 1 will be used for all atoms. This ferromagnetic setup       |
|     may break the symmetry of the crystal, in particular it may rule        |
|     out finding an antiferromagnetic solution. Thence, we recommend         |
|     setting the initial magnetic moment manually or verifying carefully     |
|     that this magnetic setup is desired.                                    |
|                                                                             |
 -----------------------------------------------------------------------------

 POTCAR:    PAW_PBE Ge 05Jan2001                  
   VRHFIN =Ge: s2p2                                                                                 
   LEXCH  = PE                                                                                      
   EATOM  =   104.9960 eV,    7.7170 Ry                                                             
                                                                                                    
   TITEL  = PAW_PBE Ge 05Jan2001                                                                    
   LULTRA =        F    use ultrasoft PP ?                                                          
   IUNSCR =        1    unscreen: 0-lin 1-nonlin 2-no                                               
   RPACOR =    2.170    partial core radius                                                         
   POMASS =   72.610; ZVAL   =    4.000    mass and valenz                                          
   RCORE  =    2.300    outmost cutoff radius                                                       
   RWIGS  =    2.300; RWIGS  =    1.217    wigner-seitz radius (au A)                               
   ENMAX  =  173.807; ENMIN  =  130.355 eV                                                          
   ICORE  =        3    local potential                                                             
   LCOR   =        T    correct aug charges                                                         
   LPAW   =        T    paw PP                                                                      
   EAUG   =  385.843                                                                                
   DEXC   =    0.000                                                                                
   RMAX   =    2.342    core radius for proj-oper                                                   
   RAUG   =    1.300    factor for augmentation sphere                                              
   RDEP   =    2.318    radius for radial grids                                                     
   RDEPT  =    2.103    core radius for aug-charge                                                  
                                                                                                    
   Atomic configuration                                                                             
   10 entries                                                                                       
     n  l   j            E        occ.                                                              
     1  0  0.50    -10959.8463   2.0000                                                             
     2  0  0.50     -1371.6056   2.0000                                                             
     2  1  1.50     -1198.4791   6.0000                                                             
     3  0  0.50      -168.4733   2.0000                                                             
     3  1  1.50      -115.6019   6.0000                                                             
     3  2  2.50       -29.3106  10.0000                                                             
     4  0  0.50       -11.7309   2.0000                                                             
     4  1  0.50        -3.8952   2.0000                                                             
     4  2  1.50        -4.0817   0.0000                                                             
     4  3  2.50        -4.0817   0.0000                                                             
   Description                                                                                      
     l       E           TYP  RCUT    TYP  RCUT                                                     
     0    -11.7309493     23  2.300                                                                 
     0     -7.4578696     23  2.300                                                                 
     1     -3.8952261     23  2.300                                                                 
     1      6.1178114     23  2.300                                                                 
     2     -4.0817478     23  2.300                                                                 
     3     -1.3605826      7  2.300                                                                 
  local pseudopotential read in
  partial core-charges read in
  partial kinetic energy density read in
  atomic valenz-charges read in
  non local Contribution for L=            0  read in
    real space projection operators read in
  non local Contribution for L=            0  read in
    real space projection operators read in
  non local Contribution for L=            1  read in
    real space projection operators read in
  non local Contribution for L=            1  read in
    real space projection operators read in
  non local Contribution for L=            2  read in
    real space projection operators read in
    PAW grid and wavefunctions read in
 
   number of l-projection  operators is LMAX  =            5
   number of lm-projection operators is LMMAX =           13
 
 POTCAR:    PAW_PBE Se 06Sep2000                  
   VRHFIN =Se: s2p4                                                                                 
   LEXCH  = PE                                                                                      
   EATOM  =   257.1286 eV,   18.8984 Ry                                                             
                                                                                                    
   TITEL  = PAW_PBE Se 06Sep2000                                                                    
   LULTRA =        F    use ultrasoft PP ?                                                          
   IUNSCR =        1    unscreen: 0-lin 1-nonlin 2-no                                               
   RPACOR =    1.900    partial core radius                                                         
   POMASS =   78.960; ZVAL   =    6.000    mass and valenz                                          
   RCORE  =    2.100    outmost cutoff radius                                                       
   RWIGS  =    2.200; RWIGS  =    1.164    wigner-seitz radius (au A)                               
   ENMAX  =  211.555; ENMIN  =  158.666 eV                                                          
   ICORE  =        3    local potential                                                             
   LCOR   =        T    correct aug charges                                                         
   LPAW   =        T    paw PP                                                                      
   EAUG   =  446.842                                                                                
   DEXC   =    0.000                                                                                
   RMAX   =    2.147    core radius for proj-oper                                                   
   RAUG   =    1.300    factor for augmentation sphere                                              
   RDEP   =    2.177    radius for radial grids                                                     
   RDEPT  =    1.928    core radius for aug-charge                                                  
                                                                                                    
   Atomic configuration                                                                             
   10 entries                                                                                       
     n  l   j            E        occ.                                                              
     1  0  0.50    -12503.4787   2.0000                                                             
     2  0  0.50     -1606.9547   2.0000                                                             
     2  1  1.50     -1413.3140   6.0000                                                             
     3  0  0.50      -213.4885   2.0000                                                             
     3  1  1.50      -152.9538   6.0000                                                             
     3  2  2.50       -53.1221  10.0000                                                             
     4  0  0.50       -17.2865   2.0000                                                             
     4  1  0.50        -6.5110   4.0000                                                             
     4  2  2.50        -6.8029   0.0000                                                             
     4  3  2.50        -6.8029   0.0000                                                             
   Description                                                                                      
     l       E           TYP  RCUT    TYP  RCUT                                                     
     0    -17.2865377     23  2.100                                                                 
     0    -15.3094411     23  2.100                                                                 
     1     -6.5110275     23  2.100                                                                 
     1     -0.0695192     23  2.100                                                                 
     2     -6.8029130     23  2.100                                                                 
     3     -1.3605826      7  2.100                                                                 
  local pseudopotential read in
  partial core-charges read in
  partial kinetic energy density read in
  atomic valenz-charges read in
  non local Contribution for L=            0  read in
    real space projection operators read in
  non local Contribution for L=            0  read in
    real space projection operators read in
  non local Contribution for L=            1  read in
    real space projection operators read in
  non local Contribution for L=            1  read in
    real space projection operators read in
  non local Contribution for L=            2  read in
    real space projection operators read in
    PAW grid and wavefunctions read in
 
   number of l-projection  operators is LMAX  =            5
   number of lm-projection operators is LMMAX =           13
 
 -----------------------------------------------------------------------------
|                                                                             |
|               ----> ADVICE to this user running VASP <----                  |
|                                                                             |
|     You have a (more or less) 'large supercell' and for larger cells it     |
|     might be more efficient to use real-space projection operators.         |
|     Therefore, try LREAL= Auto in the INCAR file.                           |
|     Mind: For very accurate calculation, you might also keep the            |
|     reciprocal projection scheme (i.e. LREAL=.FALSE.).                      |
|                                                                             |
 -----------------------------------------------------------------------------

  PAW_PBE Ge 05Jan2001                  :
 energy of atom  1       EATOM= -104.9960
 kinetic energy error for atom=    0.0002 (will be added to EATOM!!)
  PAW_PBE Se 06Sep2000                  :
 energy of atom  2       EATOM= -257.1286
 kinetic energy error for atom=    0.0007 (will be added to EATOM!!)
 
 
 POSCAR: Ge Se
  positions in cartesian coordinates
  No initial velocities read in
 exchange correlation table for  LEXCH =        8
   RHO(1)=    0.500       N(1)  =     2000
   RHO(2)=  100.500       N(2)  =     4000
 


--------------------------------------------------------------------------------------------------------


 ion  position               nearest neighbor table
   1  0.077  0.041  0.128-  45 2.55  54 2.59  55 2.69
   2  0.217  0.883  0.369-  67 2.51  48 2.57  45 2.62
   3  0.572  0.207  0.381-  49 2.68  68 2.69  56 2.70
   4  0.565  0.548  0.384-  72 2.64  50 2.64  69 2.70
   5  0.583  0.872  0.379-  70 2.59  44 2.66  48 2.83
   6  0.911  0.205  0.370-  46 2.61  55 2.70  56 2.79
   7  0.909  0.529  0.360-  71 2.56  47 2.61  72 2.72
   8  0.898  0.887  0.380-  53 2.57  45 2.66  44 2.72
   9  0.072  0.145  0.628-  37 2.51  57 2.63  51 2.65
  10  0.079  0.491  0.641-  58 2.47  38 2.75
  11  0.076  0.827  0.637-  59 2.59  39 2.63  52 2.84
  12  0.409  0.146  0.638-  60 2.56  40 2.69  51 2.77
  13  0.408  0.490  0.634-  41 2.62  61 2.65  38 2.69
  14  0.426  0.811  0.626-  62 2.55  42 2.60
  15  0.750  0.150  0.614-  63 2.49  37 2.65
  16  0.735  0.474  0.626-  41 2.59  64 2.67  43 2.77
  17  0.250  0.542  0.371-  66 2.50  47 2.65  50 2.71
  18  0.237  0.214  0.345-  46 2.54  49 2.63  54 2.64
  19  0.763  0.809  0.618-  52 2.49  65 2.72  42 2.83
  20  0.911  0.647  0.883-  52 2.62  64 2.64  58 2.71
  21  0.902  0.990  0.875-  37 2.49  65 2.65  59 2.71
  22  0.049  0.385  0.117-  71 2.54  46 2.61  66 2.83
  23  0.052  0.702  0.129-  47 2.54  67 2.75  53 2.80
  24  0.416  0.021  0.121-  48 2.58  68 2.62  54 2.76
  25  0.394  0.369  0.131-  49 2.44  69 2.66  66 2.73
  26  0.736  0.049  0.133-  44 2.51  68 2.59  55 2.66
  27  0.713  0.391  0.108-  69 2.56  71 2.58  56 2.62
  28  0.405  0.696  0.143-  50 2.53  70 2.60
  29  0.243  0.305  0.896-  57 2.63  60 2.63  38 2.84
  30  0.260  0.661  0.870-  39 2.56  61 2.65  62 2.67
  31  0.231  0.993  0.870-  51 2.53  59 2.63
  32  0.577  0.316  0.869-  60 2.55  41 2.62  63 2.68
  33  0.591  0.657  0.864-  42 2.57  64 2.61  61 2.77
  34  0.567  0.979  0.874-  40 2.53  65 2.85
  35  0.919  0.316  0.860-  57 2.51  43 2.58
  36  0.731  0.709  0.142-  72 2.59  70 2.65  53 2.67
  37  0.915  0.021  0.654-  21 2.49   9 2.51  15 2.65
  38  0.247  0.346  0.643-  13 2.69  10 2.75  29 2.84
  39  0.233  0.686  0.642-  30 2.56  11 2.63
  40  0.564  0.996  0.646-  34 2.53  12 2.69
  41  0.567  0.352  0.637-  16 2.59  32 2.62  13 2.62
  42  0.582  0.673  0.633-  33 2.57  14 2.60  19 2.83
  43  0.910  0.336  0.628-  35 2.58  16 2.77
  44  0.731  0.026  0.359-  26 2.51   5 2.66   8 2.72
  45  0.061  0.023  0.357-   1 2.55   2 2.62   8 2.66
  46  0.073  0.335  0.344-  18 2.54  22 2.61   6 2.61
  47  0.073  0.659  0.352-  23 2.54   7 2.61  17 2.65
  48  0.392  0.992  0.350-   2 2.57  24 2.58   5 2.83
  49  0.406  0.341  0.349-  25 2.44  18 2.63   3 2.68
  50  0.409  0.691  0.371-  28 2.53   4 2.64  17 2.71
  51  0.235  0.008  0.641-  31 2.53   9 2.65  12 2.77
  52  0.908  0.673  0.648-  19 2.49  20 2.62  11 2.84
  53  0.889  0.855  0.151-   8 2.57  36 2.67  23 2.80
  54  0.246  0.162  0.115-   1 2.59  18 2.64  24 2.76
  55  0.908  0.176  0.129-  26 2.66   1 2.69   6 2.70
  56  0.736  0.343  0.337-  27 2.62   3 2.70   6 2.79
  57  0.072  0.186  0.861-  35 2.51  29 2.63   9 2.63
  58  0.082  0.514  0.863-  10 2.47  20 2.71
  59  0.072  0.854  0.869-  11 2.59  31 2.63  21 2.71
  60  0.417  0.188  0.865-  32 2.55  12 2.56  29 2.63
  61  0.418  0.518  0.871-  13 2.65  30 2.65  33 2.77
  62  0.397  0.825  0.854-  14 2.55  30 2.67
  63  0.734  0.172  0.837-  15 2.49  32 2.68
  64  0.746  0.516  0.862-  33 2.61  20 2.64  16 2.67
  65  0.750  0.841  0.861-  21 2.65  19 2.72  34 2.85
  66  0.233  0.516  0.148-  17 2.50  25 2.73  22 2.83
  67  0.217  0.848  0.146-   2 2.51  23 2.75
  68  0.566  0.168  0.141-  26 2.59  24 2.62   3 2.69
  69  0.551  0.513  0.144-  27 2.56  25 2.66   4 2.70
  70  0.560  0.836  0.150-   5 2.59  28 2.60  36 2.65
  71  0.884  0.505  0.132-  22 2.54   7 2.56  27 2.58
  72  0.741  0.667  0.371-  36 2.59   4 2.64   7 2.72
 

IMPORTANT INFORMATION: All symmetrisations will be switched off!
NOSYMM: (Re-)initialisation of all symmetry stuff for point group C_1.


----------------------------------------------------------------------------------------

                                     Primitive cell                                     

  volume of cell :    1717.6007

  direct lattice vectors                    reciprocal lattice vectors
    12.409480439 -0.000004686 -0.000002311     0.080583551  0.000000030  0.000000019
    -0.000004725 12.512540847  0.000002337     0.000000030  0.079919819 -0.000000019
    -0.000002652  0.000002660 11.061730973     0.000000017 -0.000000017  0.090401765

  length of vectors
    12.409480439 12.512540847 11.061730973     0.080583551  0.079919819  0.090401765

  position of ions in fractional coordinates (direct lattice)
     0.076741823  0.040982752  0.128364018
     0.217343762  0.882740814  0.369448494
     0.572225832  0.206657397  0.380510335
     0.565349373  0.547712339  0.383791588
     0.583330937  0.872443458  0.378941045
     0.910573391  0.204746029  0.370049647
     0.909367052  0.528668638  0.360265165
     0.897907844  0.886933536  0.380284901
     0.072313545  0.145063067  0.627755134
     0.079173339  0.490881608  0.641480369
     0.075644012  0.826971718  0.637223125
     0.409145398  0.146411330  0.638429180
     0.407584406  0.489705600  0.633851183
     0.426184628  0.811073005  0.626316305
     0.749726668  0.150398479  0.613634967
     0.735362076  0.473821101  0.626143547
     0.249899610  0.542175393  0.370557967
     0.237374967  0.213861759  0.345383289
     0.763359205  0.809400376  0.618224102
     0.911349818  0.647116911  0.883187416
     0.901564681  0.989798678  0.875470286
     0.048958337  0.385110150  0.116918606
     0.051921803  0.701665180  0.128885067
     0.416449073  0.021149871  0.120567965
     0.394249550  0.368888334  0.131215616
     0.736495700  0.048627483  0.133416534
     0.712779279  0.391008857  0.107781817
     0.405276624  0.696057427  0.142597787
     0.243474428  0.305329952  0.896199970
     0.260311887  0.661207316  0.869579211
     0.230756678  0.993461907  0.869522329
     0.577224830  0.315668788  0.869130978
     0.591310464  0.657103421  0.863765526
     0.567198826  0.979433142  0.874384731
     0.918997410  0.316431352  0.859914992
     0.731298474  0.709048622  0.141977014
     0.915013287  0.021256662  0.653928184
     0.246586185  0.346415321  0.643270092
     0.232746922  0.686341128  0.641830944
     0.564146574  0.995916557  0.646421914
     0.567055223  0.352288246  0.636555443
     0.581964283  0.672578189  0.632550021
     0.909991520  0.335817937  0.628350822
     0.730620790  0.025645909  0.358544839
     0.060990705  0.022806146  0.357458810
     0.072736519  0.335050299  0.344013841
     0.072812547  0.659132421  0.352158125
     0.391963232  0.992189978  0.349546782
     0.406232367  0.341142374  0.349303187
     0.408964247  0.690774428  0.370867662
     0.234637233  0.008179260  0.641246754
     0.907690671  0.673195716  0.648318664
     0.888811045  0.854507196  0.151029940
     0.245632467  0.162025411  0.114513700
     0.907981825  0.175989434  0.128534235
     0.736203996  0.343053678  0.337008431
     0.072159685  0.186018528  0.861261505
     0.082104421  0.513917842  0.862811627
     0.072166550  0.854121480  0.869076037
     0.417401418  0.187798320  0.865327508
     0.417921832  0.518260208  0.870824829
     0.396946328  0.825476566  0.853928635
     0.734425908  0.171682942  0.836560397
     0.745719611  0.515513442  0.862205312
     0.749576171  0.841348908  0.860506922
     0.232882045  0.516339969  0.147531946
     0.216673235  0.848090957  0.145798890
     0.565737518  0.167587356  0.141098798
     0.550713662  0.513195427  0.143853086
     0.559818603  0.835714204  0.150170788
     0.884449308  0.504970612  0.132179209
     0.740810738  0.666823486  0.371376677

  ion indices of the primitive-cell ions
   primitive index   ion index
                 1           1
                 2           2
                 3           3
                 4           4
                 5           5
                 6           6
                 7           7
                 8           8
                 9           9
                10          10
                11          11
                12          12
                13          13
                14          14
                15          15
                16          16
                17          17
                18          18
                19          19
                20          20
                21          21
                22          22
                23          23
                24          24
                25          25
                26          26
                27          27
                28          28
                29          29
                30          30
                31          31
                32          32
                33          33
                34          34
                35          35
                36          36
                37          37
                38          38
                39          39
                40          40
                41          41
                42          42
                43          43
                44          44
                45          45
                46          46
                47          47
                48          48
                49          49
                50          50
                51          51
                52          52
                53          53
                54          54
                55          55
                56          56
                57          57
                58          58
                59          59
                60          60
                61          61
                62          62
                63          63
                64          64
                65          65
                66          66
                67          67
                68          68
                69          69
                70          70
                71          71
                72          72

----------------------------------------------------------------------------------------

 
 
 KPOINTS: KPOINTS created by Atomic Simulation Env

Automatic generation of k-mesh.
 Grid dimensions read from file:
 generate k-points for:    2    2    2

 Generating k-lattice:

  Cartesian coordinates                     Fractional coordinates (reciprocal lattice)
     0.040291776  0.000000015  0.000000010     0.500000000 -0.000000000  0.000000000
     0.000000015  0.039959910 -0.000000010     0.000000000  0.500000000 -0.000000000
     0.000000008 -0.000000008  0.045200882    -0.000000000  0.000000000  0.500000000

  Length of vectors
     0.040291776  0.039959910  0.045200882

  Shift w.r.t. Gamma in fractional coordinates (k-lattice)
     0.000000000  0.000000000  0.000000000

 
 Subroutine IBZKPT returns following result:
 ===========================================
 
 Found      8 irreducible k-points:
 
 Following reciprocal coordinates:
            Coordinates               Weight
  0.000000  0.000000  0.000000      1.000000
  0.500000  0.000000  0.000000      1.000000
  0.000000  0.500000  0.000000      1.000000
  0.500000  0.500000  0.000000      1.000000
  0.000000  0.000000  0.500000      1.000000
  0.500000  0.000000  0.500000      1.000000
  0.000000  0.500000  0.500000      1.000000
  0.500000  0.500000  0.500000      1.000000
 
 Following cartesian coordinates:
            Coordinates               Weight
  0.000000  0.000000  0.000000      1.000000
  0.040292  0.000000  0.000000      1.000000
  0.000000  0.039960 -0.000000      1.000000
  0.040292  0.039960  0.000000      1.000000
  0.000000 -0.000000  0.045201      1.000000
  0.040292  0.000000  0.045201      1.000000
  0.000000  0.039960  0.045201      1.000000
  0.040292  0.039960  0.045201      1.000000
 
 -----------------------------------------------------------------------------
|                                                                             |
|           W    W    AA    RRRRR   N    N  II  N    N   GGGG   !!!           |
|           W    W   A  A   R    R  NN   N  II  NN   N  G    G  !!!           |
|           W    W  A    A  R    R  N N  N  II  N N  N  G       !!!           |
|           W WW W  AAAAAA  RRRRR   N  N N  II  N  N N  G  GGG   !            |
|           WW  WW  A    A  R   R   N   NN  II  N   NN  G    G                |
|           W    W  A    A  R    R  N    N  II  N    N   GGGG   !!!           |
|                                                                             |
|     The number of bands has been changed from the values supplied in        |
|     the INCAR file. This is a result of running the parallel version.       |
|     The orbitals not found in the WAVECAR file will be initialized with     |
|     random numbers, which is usually adequate. For correlated               |
|     calculations, however, you should redo the groundstate calculation.     |
|     I found NBANDS = 220. Now, NBANDS = 224.                                |
|                                                                             |
 -----------------------------------------------------------------------------



--------------------------------------------------------------------------------------------------------




 Dimension of arrays:
   k-points           NKPTS =      8   k-points in BZ     NKDIM =      8   number of bands    NBANDS=    224
   number of dos      NEDOS =    301   number of ions     NIONS =     72
   non local maximal  LDIM  =      5   non local SUM 2l+1 LMDIM =     13
   total plane-waves  NPLWV = 774144
   max r-space proj   IRMAX =      1   max aug-charges    IRDMAX=  24693
   dimension x,y,z NGX =    96 NGY =   96 NGZ =   84
   dimension x,y,z NGXF=   192 NGYF=  192 NGZF=  168
   support grid    NGXF=   192 NGYF=  192 NGZF=  168
   ions per type =              36  36
   NGX,Y,Z   is equivalent  to a cutoff of  12.86, 12.75, 12.62 a.u.
   NGXF,Y,Z  is equivalent  to a cutoff of  25.72, 25.51, 25.25 a.u.

 SYSTEM =  01_AOPT                                 
 POSCAR =  Ge Se                                   

 Startparameter for this run:
   NWRITE =      2    write-flag & timer
   PREC   = accura    normal or accurate (medium, high low for compatibility)
   ISTART =      0    job   : 0-new  1-cont  2-samecut
   ICHARG =      2    charge: 1-file 2-atom 10-const
   ISPIN  =      2    spin polarized calculation?
   LNONCOLLINEAR =      F non collinear calculations
   LSORBIT =      F    spin-orbit coupling
   INIWAV =      1    electr: 0-lowe 1-rand  2-diag
   LASPH  =      T    aspherical Exc in radial PAW
 Electronic Relaxation 1
   ENCUT  =  520.0 eV  38.22 Ry    6.18 a.u.  23.07 23.27 20.57*2*pi/ulx,y,z
   ENINI  =  520.0     initial cutoff
   ENAUG  =  446.8 eV  augmentation charge cutoff
   NELM   =    100;   NELMIN=  5; NELMDL=  0     # of ELM steps 
   EDIFF  = 0.1E-05   stopping-criterion for ELM
   LREAL  =      F    real-space projection
   NLSPLINE    = F    spline interpolate recip. space projectors
   LCOMPAT=      F    compatible to vasp.4.4
   GGA_COMPAT  = T    GGA compatible to vasp.4.4-vasp.4.6
   LMAXPAW     = -100 max onsite density
   LMAXMIX     =    2 max onsite mixed and CHGCAR
   VOSKOWN=      0    Vosko Wilk Nusair interpolation
   ROPT   =    0.00000   0.00000
 Ionic relaxation
   EDIFFG = 0.1E-04   stopping-criterion for IOM
   NSW    =      0    number of steps for IOM
   NBLOCK =      1;   KBLOCK =      1    inner block; outer block 
   IBRION =     -1    ionic relax: 0-MD 1-quasi-New 2-CG
   NFREE  =      0    steps in history (QN), initial steepest desc. (CG)
   ISIF   =      2    stress and relaxation
   IWAVPR =     10    prediction:  0-non 1-charg 2-wave 3-comb
   ISYM   =     -1    0-nonsym 1-usesym 2-fastsym
   LCORR  =      T    Harris-Foulkes like correction to forces

   POTIM  = 0.5000    time-step for ionic-motion
   TEIN   =    0.0    initial temperature
   TEBEG  =    0.0;   TEEND  =   0.0 temperature during run
   SMASS  =  -3.00    Nose mass-parameter (am)
   estimated Nose-frequenzy (Omega)   =  0.10E-29 period in steps = 0.13E+47 mass=  -0.352E-26a.u.
   SCALEE = 1.0000    scale energy and forces
   NPACO  =    256;   APACO  = 10.0  distance and # of slots for P.C.
   PSTRESS=    0.0 pullay stress

  Mass of Ions in am
   POMASS =  72.61 78.96
  Ionic Valenz
   ZVAL   =   4.00  6.00
  Atomic Wigner-Seitz radii
   RWIGS  =  -1.00 -1.00
  virtual crystal weights 
   VCA    =   1.00  1.00
   NELECT =     360.0000    total number of electrons
   NUPDOWN=      -1.0000    fix difference up-down

 DOS related values:
   EMIN   =  10.00;   EMAX   =-10.00  energy-range for DOS
   EFERMI =   0.00;   METHOD = LEGACY      
   ISMEAR =     0;   SIGMA  =   0.05  broadening in eV -4-tet -1-fermi 0-gaus

 Electronic relaxation 2 (details)
   IALGO  =     38    algorithm
   LDIAG  =      T    sub-space diagonalisation (order eigenvalues)
   LSUBROT=      F    optimize rotation matrix (better conditioning)
   TURBO    =      0    0=normal 1=particle mesh
   IRESTART =      0    0=no restart 2=restart with 2 vectors
   NREBOOT  =      0    no. of reboots
   NMIN     =      0    reboot dimension
   EREF     =   0.00    reference energy to select bands
   IMIX   =      4    mixing-type and parameters
     AMIX     =   0.40;   BMIX     =  1.00
     AMIX_MAG =   1.60;   BMIX_MAG =  1.00
     AMIN     =   0.10
     WC   =   100.;   INIMIX=   1;  MIXPRE=   1;  MAXMIX= -45

 Intra band minimization:
   WEIMIN = 0.0000     energy-eigenvalue tresh-hold
   EBREAK =  0.11E-08  absolut break condition
   DEPER  =   0.30     relativ break condition  

   TIME   =   0.40     timestep for ELM

  volume/ion in A,a.u.               =      23.86       160.99
  Fermi-wavevector in a.u.,A,eV,Ry     =   0.972452  1.837668 12.866530  0.945663
  Thomas-Fermi vector in A             =   2.102752
 
 Write flags
   LWAVE        =      F    write WAVECAR
   LDOWNSAMPLE  =      F    k-point downsampling of WAVECAR
   LCHARG       =      F    write CHGCAR
   LVTOT        =      F    write LOCPOT, total local potential
   LVHAR        =      F    write LOCPOT, Hartree potential only
   LELF         =      F    write electronic localiz. function (ELF)
   LORBIT       =     11    0 simple, 1 ext, 2 COOP (PROOUT), +10 PAW based schemes


 Dipole corrections
   LMONO  =      F    monopole corrections only (constant potential shift)
   LDIPOL =      F    correct potential (dipole corrections)
   IDIPOL =      0    1-x, 2-y, 3-z, 4-all directions 
   EPSILON=  1.0000000 bulk dielectric constant

 Exchange correlation treatment:
   GGA     =    PE    GGA type
   LEXCH   =     8    internal setting for exchange type
   LIBXC   =     F    Libxc                    
   VOSKOWN =     0    Vosko Wilk Nusair interpolation
   LHFCALC =     F    Hartree Fock is set to
   LHFONE  =     F    Hartree Fock one center treatment
   AEXX    =    0.0000 exact exchange contribution

 Linear response parameters
   LEPSILON=     F    determine dielectric tensor
   LRPA    =     F    only Hartree local field effects (RPA)
   LNABLA  =     F    use nabla operator in PAW spheres
   LVEL    =     F    velocity operator in full k-point grid
   CSHIFT  =0.1000    complex shift for real part using Kramers Kronig
   OMEGAMAX=  -1.0    maximum frequency
   DEG_THRESHOLD= 0.2000000E-02 threshold for treating states as degnerate
   RTIME   =   -0.100 relaxation time in fs
  (WPLASMAI=    0.000 imaginary part of plasma frequency in eV, 0.658/RTIME)
   DFIELD  = 0.0000000 0.0000000 0.0000000 field for delta impulse in time
 
  Optional k-point grid parameters
   LKPOINTS_OPT  =     F    use optional k-point grid
   KPOINTS_OPT_MODE=     1    mode for optional k-point grid
 
 Orbital magnetization related:
   ORBITALMAG=     F  switch on orbital magnetization
   LCHIMAG   =     F  perturbation theory with respect to B field
   DQ        =  0.001000  dq finite difference perturbation B field
   LLRAUG    =     F  two centre corrections for induced B field
   LBONE     =     F  B-component reconstruction in AE one-centre
   LVGVCALC  =     T  calculate vGv susceptibility
   LVGVAPPL  =     F  apply vGv susceptibility instead of pGv for G=0

 Random number generation:
   RANDOM_GENERATOR = DEFAULT
   PCG_SEED         = not used


--------------------------------------------------------------------------------------------------------


 Static calculation
 charge density and potential will be updated during run
 spin polarized calculation
 Variant of blocked Davidson
 Davidson routine will perform the subspace rotation
 perform sub-space diagonalisation
    after iterative eigenvector-optimisation
 modified Broyden-mixing scheme, WC =      100.0
 initial mixing is a Kerker type mixing with AMIX =  0.4000 and BMIX =      1.0000
 Hartree-type preconditioning will be used
 using additional bands            44
 reciprocal scheme for non local part
 use partial core corrections
 calculate Harris-corrections to forces 
   (improved forces if not selfconsistent)
 use gradient corrections 
 use of overlap-Matrix (Vanderbilt PP)
 Gauss-broadening in eV      SIGMA  =   0.05


--------------------------------------------------------------------------------------------------------


  energy-cutoff  :      520.00
  volume of cell :     1717.60
      direct lattice vectors                 reciprocal lattice vectors
    12.409480439 -0.000004686 -0.000002311     0.080583551  0.000000030  0.000000019
    -0.000004725 12.512540847  0.000002337     0.000000030  0.079919819 -0.000000019
    -0.000002652  0.000002660 11.061730973     0.000000017 -0.000000017  0.090401765

  length of vectors
    12.409480439 12.512540847 11.061730973     0.080583551  0.079919819  0.090401765


 
 k-points in units of 2pi/SCALE and weight: KPOINTS created by Atomic Simulation Env
   0.00000000  0.00000000  0.00000000       0.125
   0.04029178  0.00000002  0.00000001       0.125
   0.00000002  0.03995991 -0.00000001       0.125
   0.04029179  0.03995992  0.00000000       0.125
   0.00000001 -0.00000001  0.04520088       0.125
   0.04029178  0.00000001  0.04520089       0.125
   0.00000002  0.03995990  0.04520087       0.125
   0.04029180  0.03995992  0.04520088       0.125
 
 k-points in reciprocal lattice and weights: KPOINTS created by Atomic Simulation Env
   0.00000000  0.00000000  0.00000000       0.125
   0.50000000  0.00000000  0.00000000       0.125
   0.00000000  0.50000000  0.00000000       0.125
   0.50000000  0.50000000  0.00000000       0.125
   0.00000000  0.00000000  0.50000000       0.125
   0.50000000  0.00000000  0.50000000       0.125
   0.00000000  0.50000000  0.50000000       0.125
   0.50000000  0.50000000  0.50000000       0.125
 
 position of ions in fractional coordinates (direct lattice) 
   0.07674182  0.04098275  0.12836402
   0.21734376  0.88274081  0.36944849
   0.57222583  0.20665740  0.38051033
   0.56534937  0.54771234  0.38379159
   0.58333094  0.87244346  0.37894105
   0.91057339  0.20474603  0.37004965
   0.90936705  0.52866864  0.36026516
   0.89790784  0.88693354  0.38028490
   0.07231355  0.14506307  0.62775513
   0.07917334  0.49088161  0.64148037
   0.07564401  0.82697172  0.63722313
   0.40914540  0.14641133  0.63842918
   0.40758441  0.48970560  0.63385118
   0.42618463  0.81107301  0.62631630
   0.74972667  0.15039848  0.61363497
   0.73536208  0.47382110  0.62614355
   0.24989961  0.54217539  0.37055797
   0.23737497  0.21386176  0.34538329
   0.76335920  0.80940038  0.61822410
   0.91134982  0.64711691  0.88318742
   0.90156468  0.98979868  0.87547029
   0.04895834  0.38511015  0.11691861
   0.05192180  0.70166518  0.12888507
   0.41644907  0.02114987  0.12056796
   0.39424955  0.36888833  0.13121562
   0.73649570  0.04862748  0.13341653
   0.71277928  0.39100886  0.10778182
   0.40527662  0.69605743  0.14259779
   0.24347443  0.30532995  0.89619997
   0.26031189  0.66120732  0.86957921
   0.23075668  0.99346191  0.86952233
   0.57722483  0.31566879  0.86913098
   0.59131046  0.65710342  0.86376553
   0.56719883  0.97943314  0.87438473
   0.91899741  0.31643135  0.85991499
   0.73129847  0.70904862  0.14197701
   0.91501329  0.02125666  0.65392818
   0.24658619  0.34641532  0.64327009
   0.23274692  0.68634113  0.64183094
   0.56414657  0.99591656  0.64642191
   0.56705522  0.35228825  0.63655544
   0.58196428  0.67257819  0.63255002
   0.90999152  0.33581794  0.62835082
   0.73062079  0.02564591  0.35854484
   0.06099070  0.02280615  0.35745881
   0.07273652  0.33505030  0.34401384
   0.07281255  0.65913242  0.35215813
   0.39196323  0.99218998  0.34954678
   0.40623237  0.34114237  0.34930319
   0.40896425  0.69077443  0.37086766
   0.23463723  0.00817926  0.64124675
   0.90769067  0.67319572  0.64831866
   0.88881104  0.85450720  0.15102994
   0.24563247  0.16202541  0.11451370
   0.90798182  0.17598943  0.12853424
   0.73620400  0.34305368  0.33700843
   0.07215968  0.18601853  0.86126151
   0.08210442  0.51391784  0.86281163
   0.07216655  0.85412148  0.86907604
   0.41740142  0.18779832  0.86532751
   0.41792183  0.51826021  0.87082483
   0.39694633  0.82547657  0.85392863
   0.73442591  0.17168294  0.83656040
   0.74571961  0.51551344  0.86220531
   0.74957617  0.84134891  0.86050692
   0.23288205  0.51633997  0.14753195
   0.21667324  0.84809096  0.14579889
   0.56573752  0.16758736  0.14109880
   0.55071366  0.51319543  0.14385309
   0.55981860  0.83571420  0.15017079
   0.88444931  0.50497061  0.13217921
   0.74081074  0.66682349  0.37137668
 
 position of ions in cartesian coordinates  (Angst):
   0.95232562  0.51279833  1.41992816
   2.69711801 11.04533046  4.08674141
   7.10102329  2.58580746  4.20910212
   7.01568838  6.85327138  4.24539926
   7.23882873 10.91648268  4.19174459
  11.29974073  2.56188977  4.09338801
  11.28476919  6.61498462  3.98515546
  11.14256463 11.09778890  4.20660926
   0.89737118  1.81510889  6.94405859
   0.98249598  6.14217750  7.09588423
   0.93869729 10.34751874  7.04879254
   5.07727942  1.83197753  7.06213123
   5.05790671  6.12746110  7.01149146
   5.28872431 10.14858378  6.92814338
   9.30371608  1.88186523  6.78786354
   9.12545740  5.92870410  6.92623087
   3.10112078  6.78399157  4.09901323
   2.94569809  2.67595381  3.82053698
   9.47288566 10.12765334  6.83862882
  11.30937233  8.09707486  9.76958100
  11.18794228 12.38489449  9.68421701
   0.60754540  4.81870656  1.29332296
   0.64431894  8.77961433  1.42569346
   5.16791620  0.26463700  1.33368948
   4.89242999  4.61572885  1.45147179
   9.13952840  0.60845027  1.47581622
   8.84521839  4.89251125  1.19225273
   5.02926867  8.70944547  1.57737905
   3.02138734  3.82045474  9.91352312
   3.23032984  8.27338464  9.61905224
   2.86356348 12.43073393  9.61842387
   7.16305644  3.94981821  9.61409246
   7.33785023  8.22203292  9.55474204
   7.03863579 12.25519686  9.67220964
  11.40427661  3.95935820  9.51214691
   9.07503038  8.87199680  1.57051150
  11.35483765  0.26597231  7.23357558
   3.06000310  4.33453641  7.11568094
   2.88826343  8.58787202  7.09976230
   7.00075946 12.46144568  7.15054633
   7.03685735  4.40802010  7.04140457
   7.22186953  8.41566102  6.99709838
  11.29251872  4.20193306  6.95064643
   9.06662333  0.32089302  3.96612492
   0.75686190  0.28536349  3.95411310
   0.90261991  4.19233113  3.80538918
   0.90356183  8.24742194  3.89547981
   4.86405445 12.41481672  3.86659388
   5.04113008  4.26855691  3.86389774
   5.07502958  8.64334232  4.10243897
   2.91172441  0.10234393  7.09329856
  11.26396473  8.42338637  7.17152612
  11.02967884 10.69205243  1.67065251
   3.04817023  2.02734873  1.26671956
  11.26758152  2.20207107  1.42180945
   9.13590657  4.29247060  3.72789570
   0.89546103  2.32756639  9.52704333
   1.01886849  6.43041990  9.54419111
   0.89554305 10.68723188  9.61348715
   5.17973155  2.34983450  9.57201957
   5.18618804  6.48475238  9.63283023
   4.92589152 10.32880966  9.44592984
   9.11384091  2.14818860  9.25380476
   9.25398820  6.45038180  9.53748269
   9.30184458 10.52741136  9.51869631
   2.88994235  6.46072426  1.63195937
   2.68879788 10.61177211  1.61278958
   7.02050749  2.09694136  1.56079603
   6.83406762  6.42137654  1.59126406
   6.94705365 10.45690589  1.66114951
  10.97555365  6.31846162  1.46212999
   9.19307222  8.34365362  4.10806873
 


--------------------------------------------------------------------------------------------------------


 k-point   1 :   0.0000 0.0000 0.0000  plane waves:   46249
 k-point   2 :   0.5000 0.0000 0.0000  plane waves:   46274
 k-point   3 :   0.0000 0.5000 0.0000  plane waves:   46230
 k-point   4 :   0.5000 0.5000 0.0000  plane waves:   46348
 k-point   5 :   0.0000 0.0000 0.5000  plane waves:   46246
 k-point   6 :   0.5000 0.0000 0.5000  plane waves:   46212
 k-point   7 :   0.0000 0.5000 0.5000  plane waves:   46200
 k-point   8 :   0.5000 0.5000 0.5000  plane waves:   46216

 maximum and minimum number of plane-waves per node :      5854     5738

 maximum number of plane-waves:     46348
 maximum index in each direction: 
   IXMAX=   23   IYMAX=   23   IZMAX=   20
   IXMIN=  -23   IYMIN=  -23   IZMIN=  -21


 parallel 3D FFT for wavefunctions:
    minimum data exchange during FFTs selected (reduces bandwidth)
 parallel 3D FFT for charge:
    minimum data exchange during FFTs selected (reduces bandwidth)


 total amount of memory used by VASP MPI-rank0   110524. kBytes
=======================================================================

   base      :      30000. kBytes
   nonl-proj :      16287. kBytes
   fftplans  :       6179. kBytes
   grid      :      15593. kBytes
   one-center:        146. kBytes
   wavefun   :      42319. kBytes
 
     INWAV:  cpu time      0.0000: real time      0.0001
 Broyden mixing: mesh for mixing (old mesh)
   NGX = 47   NGY = 47   NGZ = 41
  (NGX  =192   NGY  =192   NGZ  =168)
  gives a total of  90569 points

 initial charge density was supplied:
 charge density of overlapping atoms calculated
 number of electron     360.0000000 magnetization      72.0000000
 keeping initial charge density in first step


--------------------------------------------------------------------------------------------------------


 Maximum index for augmentation-charges           750 (set IRDMAX)


--------------------------------------------------------------------------------------------------------


 First call to EWALD:  gamma=   0.148
 Maximum number of real-space cells 3x 3x 3
 Maximum number of reciprocal cells 3x 3x 3

    FEWALD:  cpu time      0.0050: real time      0.0050


--------------------------------------- Ionic step        1  -------------------------------------------




--------------------------------------- Iteration      1(   1)  ---------------------------------------


    POTLOK:  cpu time      0.1403: real time      0.1411
    SETDIJ:  cpu time      0.5997: real time      0.6013
     EDDAV:  cpu time      8.6298: real time      8.6752
       DOS:  cpu time      0.0017: real time      0.0017
    --------------------------------------------
      LOOP:  cpu time      9.3715: real time      9.4194

 eigenvalue-minimisations  :  7168
 total energy-change (2. order) : 0.1813860E+04  (-0.1419604E+05)
 number of electron     360.0000000 magnetization      72.0000000
 augmentation part      360.0000000 magnetization      72.0000000

 Free energy of the ion-electron system (eV)
  ---------------------------------------------------
  alpha Z        PSCENC =       799.07985035
  Ewald energy   TEWEN  =    -12904.64717822
  -Hartree energ DENC   =     -1086.48830403
  -exchange      EXHF   =         0.00000000
  -V(xc)+E(xc)   XCENC  =      -293.93406898
  PAW double counting   =     10738.42099860    -9719.93139476
  entropy T*S    EENTRO =        -0.01940671
  eigenvalues    EBANDS =      1244.92777155
  atomic energy  EATOM  =     13036.45147835
  Solvation  Ediel_sol  =         0.00000000
  ---------------------------------------------------
  free energy    TOTEN  =      1813.85974614 eV

  energy without entropy =     1813.87915286  energy(sigma->0) =     1813.86944950


--------------------------------------------------------------------------------------------------------




--------------------------------------- Iteration      1(   2)  ---------------------------------------


     EDDAV:  cpu time      9.7941: real time      9.8429
       DOS:  cpu time      0.0015: real time      0.0015
    --------------------------------------------
      LOOP:  cpu time      9.7956: real time      9.8444

 eigenvalue-minimisations  :  8480
 total energy-change (2. order) :-0.1878346E+04  (-0.1804586E+04)
 number of electron     360.0000000 magnetization      72.0000000
 augmentation part      360.0000000 magnetization      72.0000000

 Free energy of the ion-electron system (eV)
  ---------------------------------------------------
  alpha Z        PSCENC =       799.07985035
  Ewald energy   TEWEN  =    -12904.64717822
  -Hartree energ DENC   =     -1086.48830403
  -exchange      EXHF   =         0.00000000
  -V(xc)+E(xc)   XCENC  =      -293.93406898
  PAW double counting   =     10738.42099860    -9719.93139476
  entropy T*S    EENTRO =        -0.01715826
  eigenvalues    EBANDS =      -633.42042971
  atomic energy  EATOM  =     13036.45147835
  Solvation  Ediel_sol  =         0.00000000
  ---------------------------------------------------
  free energy    TOTEN  =       -64.48620667 eV

  energy without entropy =      -64.46904840  energy(sigma->0) =      -64.47762754


--------------------------------------------------------------------------------------------------------




--------------------------------------- Iteration      1(   3)  ---------------------------------------


     EDDAV:  cpu time      9.8827: real time      9.9381
       DOS:  cpu time      0.0014: real time      0.0014
    --------------------------------------------
      LOOP:  cpu time      9.8841: real time      9.9395

 eigenvalue-minimisations  :  8536
 total energy-change (2. order) :-0.2171879E+03  (-0.2111398E+03)
 number of electron     360.0000000 magnetization      72.0000000
 augmentation part      360.0000000 magnetization      72.0000000

 Free energy of the ion-electron system (eV)
  ---------------------------------------------------
  alpha Z        PSCENC =       799.07985035
  Ewald energy   TEWEN  =    -12904.64717822
  -Hartree energ DENC   =     -1086.48830403
  -exchange      EXHF   =         0.00000000
  -V(xc)+E(xc)   XCENC  =      -293.93406898
  PAW double counting   =     10738.42099860    -9719.93139476
  entropy T*S    EENTRO =        -0.00033937
  eigenvalues    EBANDS =      -850.62511217
  atomic energy  EATOM  =     13036.45147835
  Solvation  Ediel_sol  =         0.00000000
  ---------------------------------------------------
  free energy    TOTEN  =      -281.67407024 eV

  energy without entropy =     -281.67373086  energy(sigma->0) =     -281.67390055


--------------------------------------------------------------------------------------------------------




--------------------------------------- Iteration      1(   4)  ---------------------------------------


     EDDAV:  cpu time     10.1198: real time     10.1687
       DOS:  cpu time      0.0015: real time      0.0015
    --------------------------------------------
      LOOP:  cpu time     10.1213: real time     10.1702

 eigenvalue-minimisations  :  8784
 total energy-change (2. order) :-0.7982668E+01  (-0.7887773E+01)
 number of electron     360.0000000 magnetization      72.0000000
 augmentation part      360.0000000 magnetization      72.0000000

 Free energy of the ion-electron system (eV)
  ---------------------------------------------------
  alpha Z        PSCENC =       799.07985035
  Ewald energy   TEWEN  =    -12904.64717822
  -Hartree energ DENC   =     -1086.48830403
  -exchange      EXHF   =         0.00000000
  -V(xc)+E(xc)   XCENC  =      -293.93406898
  PAW double counting   =     10738.42099860    -9719.93139476
  entropy T*S    EENTRO =        -0.00001299
  eigenvalues    EBANDS =      -858.60810700
  atomic energy  EATOM  =     13036.45147835
  Solvation  Ediel_sol  =         0.00000000
  ---------------------------------------------------
  free energy    TOTEN  =      -289.65673869 eV

  energy without entropy =     -289.65672570  energy(sigma->0) =     -289.65673220


--------------------------------------------------------------------------------------------------------




--------------------------------------- Iteration      1(   5)  ---------------------------------------


     EDDAV:  cpu time     10.2888: real time     10.3389
       DOS:  cpu time      0.0009: real time      0.0009
    CHARGE:  cpu time      0.4432: real time      0.4448
    MIXING:  cpu time      0.0073: real time      0.0074
    --------------------------------------------
      LOOP:  cpu time     10.7401: real time     10.7919

 eigenvalue-minimisations  :  9064
 total energy-change (2. order) :-0.2907223E+00  (-0.2898585E+00)
 number of electron     360.0000001 magnetization      48.8013704
 augmentation part      -66.8383517 magnetization      49.0161781

 Broyden mixing:
  rms(total) = 0.28968E+01    rms(broyden)= 0.28968E+01
  rms(prec ) = 0.30567E+01
  weight for this iteration     100.00

 Free energy of the ion-electron system (eV)
  ---------------------------------------------------
  alpha Z        PSCENC =       799.07985035
  Ewald energy   TEWEN  =    -12904.64717822
  -Hartree energ DENC   =     -1086.48830403
  -exchange      EXHF   =         0.00000000
  -V(xc)+E(xc)   XCENC  =      -293.93406898
  PAW double counting   =     10738.42099860    -9719.93139476
  entropy T*S    EENTRO =        -0.00001168
  eigenvalues    EBANDS =      -858.89883066
  atomic energy  EATOM  =     13036.45147835
  Solvation  Ediel_sol  =         0.00000000
  ---------------------------------------------------
  free energy    TOTEN  =      -289.94746104 eV

  energy without entropy =     -289.94744936  energy(sigma->0) =     -289.94745520


--------------------------------------------------------------------------------------------------------




--------------------------------------- Iteration      1(   6)  ---------------------------------------


    POTLOK:  cpu time      0.1374: real time      0.1386
    SETDIJ:  cpu time      0.6135: real time      0.6157
     EDDAV:  cpu time      9.3462: real time      9.4139
       DOS:  cpu time      0.0011: real time      0.0011
    CHARGE:  cpu time      0.4293: real time      0.4311
    MIXING:  cpu time      0.0083: real time      0.0083
    --------------------------------------------
      LOOP:  cpu time     10.5358: real time     10.6087

 eigenvalue-minimisations  :  8008
 total energy-change (2. order) : 0.5090183E+00  (-0.2718729E+01)
 number of electron     360.0000001 magnetization      28.0457467
 augmentation part      -66.2243676 magnetization      29.2321258

 Broyden mixing:
  rms(total) = 0.17132E+01    rms(broyden)= 0.17132E+01
  rms(prec ) = 0.17489E+01
  weight for this iteration     100.00

 eigenvalues of (default mixing * dielectric matrix)
  average eigenvalue GAMMA=   1.0056
  1.0056

 Free energy of the ion-electron system (eV)
  ---------------------------------------------------
  alpha Z        PSCENC =       799.07985035
  Ewald energy   TEWEN  =    -12904.64717822
  -Hartree energ DENC   =     -1139.80278619
  -exchange      EXHF   =         0.00000000
  -V(xc)+E(xc)   XCENC  =      -287.52091328
  PAW double counting   =     12981.46073467   -11966.42018862
  entropy T*S    EENTRO =        -0.00003434
  eigenvalues    EBANDS =      -808.03940541
  atomic energy  EATOM  =     13036.45147835
  Solvation  Ediel_sol  =         0.00000000
  ---------------------------------------------------
  free energy    TOTEN  =      -289.43844269 eV

  energy without entropy =     -289.43840835  energy(sigma->0) =     -289.43842552


--------------------------------------------------------------------------------------------------------




--------------------------------------- Iteration      1(   7)  ---------------------------------------


    POTLOK:  cpu time      0.1321: real time      0.1328
    SETDIJ:  cpu time      0.6134: real time      0.6154
     EDDAV:  cpu time      9.4490: real time      9.4973
       DOS:  cpu time      0.0009: real time      0.0009
    CHARGE:  cpu time      0.4455: real time      0.4473
    MIXING:  cpu time      0.0081: real time      0.0081
    --------------------------------------------
      LOOP:  cpu time     10.6490: real time     10.7018

 eigenvalue-minimisations  :  8040
 total energy-change (2. order) :-0.7301156E+01  (-0.8545207E+00)
 number of electron     360.0000001 magnetization       9.3128101
 augmentation part      -66.2166651 magnetization       9.9914447

 Broyden mixing:
  rms(total) = 0.90877E+00    rms(broyden)= 0.90877E+00
  rms(prec ) = 0.92451E+00
  weight for this iteration     100.00

 eigenvalues of (default mixing * dielectric matrix)
  average eigenvalue GAMMA=   1.4468
  0.8622  2.0315

 Free energy of the ion-electron system (eV)
  ---------------------------------------------------
  alpha Z        PSCENC =       799.07985035
  Ewald energy   TEWEN  =    -12904.64717822
  -Hartree energ DENC   =     -1155.77390236
  -exchange      EXHF   =         0.00000000
  -V(xc)+E(xc)   XCENC  =      -290.51397925
  PAW double counting   =     15015.82910040   -14002.33918498
  entropy T*S    EENTRO =        -0.00000001
  eigenvalues    EBANDS =      -794.82578263
  atomic energy  EATOM  =     13036.45147835
  Solvation  Ediel_sol  =         0.00000000
  ---------------------------------------------------
  free energy    TOTEN  =      -296.73959835 eV

  energy without entropy =     -296.73959834  energy(sigma->0) =     -296.73959835


--------------------------------------------------------------------------------------------------------




--------------------------------------- Iteration      1(   8)  ---------------------------------------


    POTLOK:  cpu time      0.1315: real time      0.1324
    SETDIJ:  cpu time      0.6130: real time      0.6153
     EDDAV:  cpu time      9.5453: real time      9.5937
       DOS:  cpu time      0.0009: real time      0.0009
    CHARGE:  cpu time      0.4364: real time      0.4381
    MIXING:  cpu time      0.0085: real time      0.0085
    --------------------------------------------
      LOOP:  cpu time     10.7356: real time     10.7888

 eigenvalue-minimisations  :  8120
 total energy-change (2. order) :-0.3263019E+01  (-0.1707995E+00)
 number of electron     360.0000001 magnetization       4.3255376
 augmentation part      -66.2366335 magnetization       4.6378487

 Broyden mixing:
  rms(total) = 0.33251E+00    rms(broyden)= 0.33251E+00
  rms(prec ) = 0.33740E+00
  weight for this iteration     100.00

 eigenvalues of (default mixing * dielectric matrix)
  average eigenvalue GAMMA=   1.3611
  2.5055  0.9254  0.6524

 Free energy of the ion-electron system (eV)
  ---------------------------------------------------
  alpha Z        PSCENC =       799.07985035
  Ewald energy   TEWEN  =    -12904.64717822
  -Hartree energ DENC   =     -1159.56382030
  -exchange      EXHF   =         0.00000000
  -V(xc)+E(xc)   XCENC  =      -290.30298948
  PAW double counting   =     16751.79914339   -15739.19269925
  entropy T*S    EENTRO =        -0.00000000
  eigenvalues    EBANDS =      -793.62640225
  atomic energy  EATOM  =     13036.45147835
  Solvation  Ediel_sol  =         0.00000000
  ---------------------------------------------------
  free energy    TOTEN  =      -300.00261742 eV

  energy without entropy =     -300.00261742  energy(sigma->0) =     -300.00261742


--------------------------------------------------------------------------------------------------------




--------------------------------------- Iteration      1(   9)  ---------------------------------------


    POTLOK:  cpu time      0.1311: real time      0.1318
    SETDIJ:  cpu time      0.6129: real time      0.6153
     EDDAV:  cpu time     10.3151: real time     10.3682
       DOS:  cpu time      0.0007: real time      0.0007
    CHARGE:  cpu time      0.4505: real time      0.4525
    MIXING:  cpu time      0.0102: real time      0.0102
    --------------------------------------------
      LOOP:  cpu time     11.5205: real time     11.5788

 eigenvalue-minimisations  :  9072
 total energy-change (2. order) :-0.3940761E+00  (-0.4426657E-01)
 number of electron     360.0000001 magnetization       2.2672364
 augmentation part      -66.2749744 magnetization       2.4192337

 Broyden mixing:
  rms(total) = 0.14615E+00    rms(broyden)= 0.14615E+00
  rms(prec ) = 0.14769E+00
  weight for this iteration     100.00

 eigenvalues of (default mixing * dielectric matrix)
  average eigenvalue GAMMA=   1.3325
  2.6370  1.2395  0.8337  0.6198

 Free energy of the ion-electron system (eV)
  ---------------------------------------------------
  alpha Z        PSCENC =       799.07985035
  Ewald energy   TEWEN  =    -12904.64717822
  -Hartree energ DENC   =     -1158.56853879
  -exchange      EXHF   =         0.00000000
  -V(xc)+E(xc)   XCENC  =      -290.34295464
  PAW double counting   =     17046.18909824   -16033.92719447
  entropy T*S    EENTRO =        -0.00000000
  eigenvalues    EBANDS =      -794.63125435
  atomic energy  EATOM  =     13036.45147835
  Solvation  Ediel_sol  =         0.00000000
  ---------------------------------------------------
  free energy    TOTEN  =      -300.39669354 eV

  energy without entropy =     -300.39669354  energy(sigma->0) =     -300.39669354


--------------------------------------------------------------------------------------------------------




--------------------------------------- Iteration      1(  10)  ---------------------------------------


    POTLOK:  cpu time      0.1315: real time      0.1322
    SETDIJ:  cpu time      0.6127: real time      0.6148
     EDDAV:  cpu time      9.4623: real time      9.5105
       DOS:  cpu time      0.0009: real time      0.0009
    CHARGE:  cpu time      0.4509: real time      0.4527
    MIXING:  cpu time      0.0077: real time      0.0077
    --------------------------------------------
      LOOP:  cpu time     10.6660: real time     10.7188

 eigenvalue-minimisations  :  8120
 total energy-change (2. order) :-0.1033845E+00  (-0.9314938E-02)
 number of electron     360.0000001 magnetization       0.7017457
 augmentation part      -66.2759348 magnetization       0.7700361

 Broyden mixing:
  rms(total) = 0.72548E-01    rms(broyden)= 0.72548E-01
  rms(prec ) = 0.73604E-01
  weight for this iteration     100.00

 eigenvalues of (default mixing * dielectric matrix)
  average eigenvalue GAMMA=   1.3782
  2.7093  1.7530  0.9772  0.8252  0.6262

 Free energy of the ion-electron system (eV)
  ---------------------------------------------------
  alpha Z        PSCENC =       799.07985035
  Ewald energy   TEWEN  =    -12904.64717822
  -Hartree energ DENC   =     -1158.78890148
  -exchange      EXHF   =         0.00000000
  -V(xc)+E(xc)   XCENC  =      -290.34339980
  PAW double counting   =     17049.96690095   -16037.71658253
  entropy T*S    EENTRO =        -0.00000000
  eigenvalues    EBANDS =      -794.50224566
  atomic energy  EATOM  =     13036.45147835
  Solvation  Ediel_sol  =         0.00000000
  ---------------------------------------------------
  free energy    TOTEN  =      -300.50007804 eV

  energy without entropy =     -300.50007804  energy(sigma->0) =     -300.50007804


--------------------------------------------------------------------------------------------------------




--------------------------------------- Iteration      1(  11)  ---------------------------------------


    POTLOK:  cpu time      0.1308: real time      0.1317
    SETDIJ:  cpu time      0.6125: real time      0.6146
     EDDAV:  cpu time     10.2547: real time     10.3072
       DOS:  cpu time      0.0007: real time      0.0007
    CHARGE:  cpu time      0.4447: real time      0.4464
    MIXING:  cpu time      0.0078: real time      0.0078
    --------------------------------------------
      LOOP:  cpu time     11.4511: real time     11.5085

 eigenvalue-minimisations  :  8984
 total energy-change (2. order) :-0.3099629E-01  (-0.3728440E-02)
 number of electron     360.0000001 magnetization       0.1659287
 augmentation part      -66.2614599 magnetization       0.1839327

 Broyden mixing:
  rms(total) = 0.27665E-01    rms(broyden)= 0.27665E-01
  rms(prec ) = 0.28233E-01
  weight for this iteration     100.00

 eigenvalues of (default mixing * dielectric matrix)
  average eigenvalue GAMMA=   1.4097
  2.9214  2.1845  1.1738  0.8558  0.6983  0.6245

 Free energy of the ion-electron system (eV)
  ---------------------------------------------------
  alpha Z        PSCENC =       799.07985035
  Ewald energy   TEWEN  =    -12904.64717822
  -Hartree energ DENC   =     -1159.89266825
  -exchange      EXHF   =         0.00000000
  -V(xc)+E(xc)   XCENC  =      -290.30800650
  PAW double counting   =     16968.96114371   -15956.68263837
  entropy T*S    EENTRO =        -0.00000000
  eigenvalues    EBANDS =      -793.49305541
  atomic energy  EATOM  =     13036.45147835
  Solvation  Ediel_sol  =         0.00000000
  ---------------------------------------------------
  free energy    TOTEN  =      -300.53107433 eV

  energy without entropy =     -300.53107433  energy(sigma->0) =     -300.53107433


--------------------------------------------------------------------------------------------------------




--------------------------------------- Iteration      1(  12)  ---------------------------------------


    POTLOK:  cpu time      0.1312: real time      0.1330
    SETDIJ:  cpu time      0.6110: real time      0.6133
     EDDAV:  cpu time      9.9482: real time     10.0019
       DOS:  cpu time      0.0010: real time      0.0010
    CHARGE:  cpu time      0.4503: real time      0.4522
    MIXING:  cpu time      0.0079: real time      0.0080
    --------------------------------------------
      LOOP:  cpu time     11.1498: real time     11.2093

 eigenvalue-minimisations  :  8520
 total energy-change (2. order) :-0.3003552E-02  (-0.4425350E-03)
 number of electron     360.0000001 magnetization       0.0520628
 augmentation part      -66.2611685 magnetization       0.0562525

 Broyden mixing:
  rms(total) = 0.99943E-02    rms(broyden)= 0.99943E-02
  rms(prec ) = 0.10739E-01
  weight for this iteration     100.00

 eigenvalues of (default mixing * dielectric matrix)
  average eigenvalue GAMMA=   1.3678
  3.0221  2.3368  1.2033  0.8741  0.8741  0.6076  0.6566

 Free energy of the ion-electron system (eV)
  ---------------------------------------------------
  alpha Z        PSCENC =       799.07985035
  Ewald energy   TEWEN  =    -12904.64717822
  -Hartree energ DENC   =     -1159.95227537
  -exchange      EXHF   =         0.00000000
  -V(xc)+E(xc)   XCENC  =      -290.31476317
  PAW double counting   =     16933.27806714   -15920.97698006
  entropy T*S    EENTRO =        -0.00000000
  eigenvalues    EBANDS =      -793.45227689
  atomic energy  EATOM  =     13036.45147835
  Solvation  Ediel_sol  =         0.00000000
  ---------------------------------------------------
  free energy    TOTEN  =      -300.53407788 eV

  energy without entropy =     -300.53407788  energy(sigma->0) =     -300.53407788


--------------------------------------------------------------------------------------------------------




--------------------------------------- Iteration      1(  13)  ---------------------------------------


    POTLOK:  cpu time      0.1310: real time      0.1318
    SETDIJ:  cpu time      0.6121: real time      0.6144
     EDDAV:  cpu time     11.0571: real time     11.1146
       DOS:  cpu time      0.0008: real time      0.0008
    CHARGE:  cpu time      0.4479: real time      0.4495
    MIXING:  cpu time      0.0086: real time      0.0087
    --------------------------------------------
      LOOP:  cpu time     12.2574: real time     12.3197

 eigenvalue-minimisations  :  9896
 total energy-change (2. order) :-0.8489588E-04  (-0.6361990E-04)
 number of electron     360.0000001 magnetization       0.0135628
 augmentation part      -66.2625431 magnetization       0.0141245

 Broyden mixing:
  rms(total) = 0.40774E-02    rms(broyden)= 0.40774E-02
  rms(prec ) = 0.42852E-02
  weight for this iteration     100.00

 eigenvalues of (default mixing * dielectric matrix)
  average eigenvalue GAMMA=   1.3417
  3.0648  2.4262  1.1432  0.9904  0.9904  0.8567  0.6511  0.6105

 Free energy of the ion-electron system (eV)
  ---------------------------------------------------
  alpha Z        PSCENC =       799.07985035
  Ewald energy   TEWEN  =    -12904.64717822
  -Hartree energ DENC   =     -1159.84867272
  -exchange      EXHF   =         0.00000000
  -V(xc)+E(xc)   XCENC  =      -290.32529623
  PAW double counting   =     16920.64668564   -15908.33514967
  entropy T*S    EENTRO =        -0.00000000
  eigenvalues    EBANDS =      -793.55588027
  atomic energy  EATOM  =     13036.45147835
  Solvation  Ediel_sol  =         0.00000000
  ---------------------------------------------------
  free energy    TOTEN  =      -300.53416278 eV

  energy without entropy =     -300.53416278  energy(sigma->0) =     -300.53416278


--------------------------------------------------------------------------------------------------------




--------------------------------------- Iteration      1(  14)  ---------------------------------------


    POTLOK:  cpu time      0.1311: real time      0.1321
    SETDIJ:  cpu time      0.6115: real time      0.6135
     EDDAV:  cpu time      9.6202: real time      9.6788
       DOS:  cpu time      0.0006: real time      0.0006
    CHARGE:  cpu time      0.4387: real time      0.4404
    MIXING:  cpu time      0.0090: real time      0.0091
    --------------------------------------------
      LOOP:  cpu time     10.8111: real time     10.8746

 eigenvalue-minimisations  :  8224
 total energy-change (2. order) :-0.1333101E-04  (-0.8908958E-05)
 number of electron     360.0000001 magnetization       0.0046668
 augmentation part      -66.2622436 magnetization       0.0048962

 Broyden mixing:
  rms(total) = 0.15843E-02    rms(broyden)= 0.15843E-02
  rms(prec ) = 0.17043E-02
  weight for this iteration     100.00

 eigenvalues of (default mixing * dielectric matrix)
  average eigenvalue GAMMA=   1.3258
  3.0853  2.4589  1.4231  1.1718  0.8746  0.8746  0.7836  0.6160  0.6446

 Free energy of the ion-electron system (eV)
  ---------------------------------------------------
  alpha Z        PSCENC =       799.07985035
  Ewald energy   TEWEN  =    -12904.64717822
  -Hartree energ DENC   =     -1159.84891241
  -exchange      EXHF   =         0.00000000
  -V(xc)+E(xc)   XCENC  =      -290.32599531
  PAW double counting   =     16916.69007480   -15904.37585913
  entropy T*S    EENTRO =        -0.00000000
  eigenvalues    EBANDS =      -793.55763454
  atomic energy  EATOM  =     13036.45147835
  Solvation  Ediel_sol  =         0.00000000
  ---------------------------------------------------
  free energy    TOTEN  =      -300.53417611 eV

  energy without entropy =     -300.53417611  energy(sigma->0) =     -300.53417611


--------------------------------------------------------------------------------------------------------




--------------------------------------- Iteration      1(  15)  ---------------------------------------


    POTLOK:  cpu time      0.1301: real time      0.1311
    SETDIJ:  cpu time      0.6132: real time      0.6152
     EDDAV:  cpu time      9.9734: real time     10.0250
       DOS:  cpu time      0.0008: real time      0.0008
    CHARGE:  cpu time      0.4344: real time      0.4364
    MIXING:  cpu time      0.0087: real time      0.0088
    --------------------------------------------
      LOOP:  cpu time     11.1606: real time     11.2173

 eigenvalue-minimisations  :  8568
 total energy-change (2. order) :-0.1766224E-05  (-0.1311586E-05)
 number of electron     360.0000001 magnetization       0.0016446
 augmentation part      -66.2624432 magnetization       0.0018307

 Broyden mixing:
  rms(total) = 0.72180E-03    rms(broyden)= 0.72180E-03
  rms(prec ) = 0.76539E-03
  weight for this iteration     100.00

 eigenvalues of (default mixing * dielectric matrix)
  average eigenvalue GAMMA=   1.2957
  3.0937  2.4321  1.6239  1.0871  0.9710  0.9710  0.8324  0.7018  0.6222  0.6222

 Free energy of the ion-electron system (eV)
  ---------------------------------------------------
  alpha Z        PSCENC =       799.07985035
  Ewald energy   TEWEN  =    -12904.64717822
  -Hartree energ DENC   =     -1159.83058172
  -exchange      EXHF   =         0.00000000
  -V(xc)+E(xc)   XCENC  =      -290.32675569
  PAW double counting   =     16916.20660624   -15903.89145481
  entropy T*S    EENTRO =        -0.00000000
  eigenvalues    EBANDS =      -793.57614238
  atomic energy  EATOM  =     13036.45147835
  Solvation  Ediel_sol  =         0.00000000
  ---------------------------------------------------
  free energy    TOTEN  =      -300.53417787 eV

  energy without entropy =     -300.53417787  energy(sigma->0) =     -300.53417787


--------------------------------------------------------------------------------------------------------




--------------------------------------- Iteration      1(  16)  ---------------------------------------


    POTLOK:  cpu time      0.1307: real time      0.1314
    SETDIJ:  cpu time      0.6122: real time      0.6146
     EDDAV:  cpu time      6.7095: real time      6.7457
       DOS:  cpu time      0.0011: real time      0.0011
    --------------------------------------------
      LOOP:  cpu time      7.4535: real time      7.4928

 eigenvalue-minimisations  :  4856
 total energy-change (2. order) :-0.6388152E-06  (-0.1415280E-06)
 number of electron     360.0000001 magnetization       0.0016446
 augmentation part      -66.2624432 magnetization       0.0018307

 Free energy of the ion-electron system (eV)
  ---------------------------------------------------
  alpha Z        PSCENC =       799.07985035
  Ewald energy   TEWEN  =    -12904.64717822
  -Hartree energ DENC   =     -1159.82269055
  -exchange      EXHF   =         0.00000000
  -V(xc)+E(xc)   XCENC  =      -290.32711374
  PAW double counting   =     16916.20237202   -15903.88692610
  entropy T*S    EENTRO =        -0.00000000
  eigenvalues    EBANDS =      -793.58397062
  atomic energy  EATOM  =     13036.45147835
  Solvation  Ediel_sol  =         0.00000000
  ---------------------------------------------------
  free energy    TOTEN  =      -300.53417851 eV

  energy without entropy =     -300.53417851  energy(sigma->0) =     -300.53417851


--------------------------------------------------------------------------------------------------------




 average (electrostatic) potential at core
  the test charge radii are     1.1631  1.0808
  (the norm of the test charge is              1.0000)
       1 -33.3273       2 -33.2400       3 -33.5941       4 -33.5113       5 -33.6485
       6 -33.5426       7 -33.4865       8 -33.6058       9 -33.4283      10 -33.3599
      11 -33.4503      12 -33.5225      13 -33.3789      14 -33.3461      15 -33.6047
      16 -33.5325      17 -33.3514      18 -33.4468      19 -33.5269      20 -33.4447
      21 -33.3893      22 -33.5841      23 -33.4593      24 -33.3854      25 -33.3944
      26 -33.3213      27 -33.4401      28 -33.4707      29 -33.5889      30 -33.2817
      31 -33.5747      32 -33.5004      33 -33.3775      34 -33.6396      35 -33.5061
      36 -33.4909      37 -55.0557      38 -54.4279      39 -54.6104      40 -54.7716
      41 -54.9173      42 -54.8829      43 -54.7855      44 -55.0514      45 -55.0264
      46 -54.8944      47 -54.7619      48 -54.6337      49 -54.9374      50 -54.8941
      51 -54.8835      52 -54.7722      53 -54.8253      54 -54.8858      55 -54.6628
      56 -54.5927      57 -54.9668      58 -54.6867      59 -54.7795      60 -54.9586
      61 -54.6406      62 -54.7057      63 -54.7459      64 -54.8302      65 -54.6925
      66 -54.7288      67 -54.5561      68 -54.7884      69 -54.9180      70 -54.9133
      71 -55.1139      72 -54.9120
 
 
 
 E-fermi :   3.5656     XC(G=0):  -9.3961     alpha+bet : -8.8452

 Fermi energy:         3.5656213635

 spin component 1

 k-point     1 :       0.0000    0.0000    0.0000
  band No.  band energies     occupation 
      1     -10.8616      1.00000
      2     -10.5508      1.00000
      3     -10.3872      1.00000
      4     -10.3322      1.00000
      5     -10.2835      1.00000
      6     -10.1749      1.00000
      7     -10.1202      1.00000
      8      -9.9996      1.00000
      9      -9.9301      1.00000
     10      -9.9135      1.00000
     11      -9.8431      1.00000
     12      -9.8079      1.00000
     13      -9.7745      1.00000
     14      -9.7273      1.00000
     15      -9.6304      1.00000
     16      -9.6121      1.00000
     17      -9.5605      1.00000
     18      -9.5446      1.00000
     19      -9.5155      1.00000
     20      -9.4703      1.00000
     21      -9.4068      1.00000
     22      -9.3392      1.00000
     23      -9.3202      1.00000
     24      -9.2654      1.00000
     25      -9.2430      1.00000
     26      -9.1799      1.00000
     27      -9.1566      1.00000
     28      -9.1249      1.00000
     29      -9.0986      1.00000
     30      -9.0738      1.00000
     31      -9.0216      1.00000
     32      -8.9836      1.00000
     33      -8.9724      1.00000
     34      -8.9364      1.00000
     35      -8.8250      1.00000
     36      -8.7556      1.00000
     37      -5.4030      1.00000
     38      -5.3287      1.00000
     39      -5.2897      1.00000
     40      -5.2378      1.00000
     41      -5.0717      1.00000
     42      -5.0549      1.00000
     43      -5.0168      1.00000
     44      -4.9647      1.00000
     45      -4.8288      1.00000
     46      -4.7586      1.00000
     47      -4.5111      1.00000
     48      -4.4766      1.00000
     49      -4.4602      1.00000
     50      -4.4357      1.00000
     51      -4.3904      1.00000
     52      -4.3691      1.00000
     53      -4.3346      1.00000
     54      -4.3177      1.00000
     55      -4.2966      1.00000
     56      -4.2647      1.00000
     57      -4.2304      1.00000
     58      -4.2138      1.00000
     59      -4.1734      1.00000
     60      -4.1239      1.00000
     61      -4.1186      1.00000
     62      -4.0525      1.00000
     63      -3.9931      1.00000
     64      -3.9410      1.00000
     65      -3.8466      1.00000
     66      -3.7801      1.00000
     67      -3.7013      1.00000
     68      -3.6712      1.00000
     69      -3.4714      1.00000
     70      -3.3641      1.00000
     71      -2.4067      1.00000
     72      -2.3553      1.00000
     73      -1.8341      1.00000
     74      -1.6290      1.00000
     75      -1.5538      1.00000
     76      -1.5176      1.00000
     77      -1.4949      1.00000
     78      -1.3663      1.00000
     79      -1.3029      1.00000
     80      -1.2503      1.00000
     81      -1.2372      1.00000
     82      -1.1670      1.00000
     83      -1.0689      1.00000
     84      -1.0285      1.00000
     85      -0.9727      1.00000
     86      -0.8548      1.00000
     87      -0.7923      1.00000
     88      -0.7382      1.00000
     89      -0.6670      1.00000
     90      -0.6208      1.00000
     91      -0.5721      1.00000
     92      -0.4950      1.00000
     93      -0.4450      1.00000
     94      -0.3392      1.00000
     95      -0.1426      1.00000
     96      -0.0570      1.00000
     97      -0.0374      1.00000
     98       0.0283      1.00000
     99       0.0663      1.00000
    100       0.1374      1.00000
    101       0.1421      1.00000
    102       0.1820      1.00000
    103       0.2075      1.00000
    104       0.2627      1.00000
    105       0.3111      1.00000
    106       0.3260      1.00000
    107       0.3584      1.00000
    108       0.3738      1.00000
    109       0.4245      1.00000
    110       0.4891      1.00000
    111       0.5280      1.00000
    112       0.5591      1.00000
    113       0.6246      1.00000
    114       0.6420      1.00000
    115       0.6788      1.00000
    116       0.6985      1.00000
    117       0.7279      1.00000
    118       0.7510      1.00000
    119       0.7903      1.00000
    120       0.8032      1.00000
    121       0.8941      1.00000
    122       0.9104      1.00000
    123       0.9370      1.00000
    124       0.9512      1.00000
    125       0.9794      1.00000
    126       1.0143      1.00000
    127       1.0423      1.00000
    128       1.1020      1.00000
    129       1.1312      1.00000
    130       1.1574      1.00000
    131       1.2137      1.00000
    132       1.2369      1.00000
    133       1.2712      1.00000
    134       1.3304      1.00000
    135       1.3620      1.00000
    136       1.4456      1.00000
    137       1.4548      1.00000
    138       1.4747      1.00000
    139       1.5064      1.00000
    140       1.5377      1.00000
    141       1.6130      1.00000
    142       1.6411      1.00000
    143       1.6984      1.00000
    144       1.7668      1.00000
    145       1.7874      1.00000
    146       1.8159      1.00000
    147       1.8567      1.00000
    148       1.8968      1.00000
    149       1.9228      1.00000
    150       1.9361      1.00000
[...]
   0.124E+02 -.132E+02 -.198E+02   -.136E+02 0.151E+02 0.222E+02   0.558E+00 -.158E+01 -.254E+01   0.604E-04 -.766E-04 -.120E-04
   -.209E+01 0.552E+01 0.223E+02   0.216E+01 -.772E+01 -.250E+02   0.740E-01 0.238E+01 0.271E+01   0.197E-03 0.161E-03 -.563E-04
   0.937E+01 0.179E+02 0.291E+02   -.969E+01 -.194E+02 -.308E+02   -.257E+00 0.916E+00 0.993E+00   -.223E-03 -.411E-03 -.132E-03
   0.296E+01 0.103E+02 0.271E+02   -.314E+01 -.112E+02 -.282E+02   0.114E+00 0.120E+01 0.161E+01   0.351E-04 0.232E-03 -.150E-03
   0.474E+01 0.116E+02 0.317E+02   -.433E+01 -.122E+02 -.336E+02   -.374E+00 0.414E+00 0.183E+01   -.251E-04 0.160E-04 0.207E-04
   -.628E+01 -.414E+01 0.266E+02   0.680E+01 0.395E+01 -.281E+02   -.493E+00 0.629E+00 0.148E+01   0.340E-04 -.804E-04 -.217E-04
   0.288E+01 0.189E+02 0.269E+02   -.292E+01 -.201E+02 -.284E+02   0.159E+00 0.901E+00 0.171E+01   -.734E-04 0.385E-04 -.483E-04
   -.365E+01 0.489E+01 0.153E+02   0.401E+01 -.560E+01 -.169E+02   -.139E-01 0.880E+00 0.177E+01   0.896E-04 0.106E-03 0.802E-04
   -.376E+01 -.953E+01 0.281E+02   0.402E+01 0.952E+01 -.298E+02   -.584E+00 0.301E+00 0.193E+01   -.112E-04 0.896E-04 0.947E-05
   0.379E+01 -.484E+01 -.294E+02   -.393E+01 0.558E+01 0.310E+02   0.352E+00 -.119E+01 -.133E+01   0.149E-03 -.160E-03 -.463E-04
   -.521E+01 -.425E+01 -.294E+02   0.527E+01 0.511E+01 0.312E+02   -.150E+00 -.754E+00 -.158E+01   -.148E-04 -.327E-03 -.478E-04
   -.819E+01 -.161E+02 -.333E+02   0.831E+01 0.176E+02 0.350E+02   -.453E+00 -.878E+00 -.169E+01   0.580E-04 0.168E-03 0.143E-03
   0.295E+01 -.148E+02 -.352E+02   -.308E+01 0.162E+02 0.371E+02   -.199E+00 -.960E+00 -.172E+01   -.403E-04 0.297E-03 -.852E-04
   -.398E+01 -.216E+02 -.355E+02   0.431E+01 0.231E+02 0.372E+02   0.148E+00 -.905E+00 -.156E+01   -.131E-03 0.110E-03 0.348E-04
   0.146E+01 0.134E+01 -.409E+02   -.157E+01 -.347E+00 0.429E+02   -.157E+00 -.934E+00 -.138E+01   -.109E-03 0.142E-03 -.373E-05
   0.152E+02 -.994E+01 -.265E+02   -.156E+02 0.110E+02 0.281E+02   0.109E+00 -.150E+01 -.175E+01   -.122E-03 -.153E-03 0.969E-04
   -.170E+02 0.562E+00 0.331E+02   0.174E+02 -.148E+01 -.348E+02   -.262E+00 0.117E+01 0.175E+01   -.195E-04 -.396E-04 -.176E-03
   -.140E+02 0.143E+02 0.290E+02   0.146E+02 -.154E+02 -.305E+02   -.168E+00 0.124E+01 0.163E+01   -.512E-04 0.386E-03 -.240E-04
   -.320E+01 -.138E+00 0.210E+02   0.336E+01 0.895E+00 -.228E+02   0.436E-01 -.135E+01 0.193E+01   0.154E-03 -.305E-04 -.299E-04
   -.520E+01 -.100E+02 0.751E+01   0.555E+01 0.106E+02 -.887E+01   -.267E+00 -.219E+00 0.198E+01   0.318E-05 -.952E-04 -.825E-04
   0.104E+02 -.138E+02 0.242E+02   -.103E+02 0.148E+02 -.255E+02   -.220E+00 -.718E+00 0.189E+01   0.119E-04 -.330E-03 -.969E-04
   -.259E+00 -.457E+01 -.256E+02   0.551E+00 0.546E+01 0.269E+02   -.597E+00 -.116E+01 -.938E+00   -.674E-04 -.607E-04 0.778E-04
   -.380E+01 0.300E+01 -.140E+02   0.383E+01 -.432E+01 0.157E+02   0.382E+00 0.643E+00 -.187E+01   -.542E-04 -.606E-04 0.125E-03
   -.837E+01 0.373E+01 -.206E+02   0.906E+01 -.408E+01 0.224E+02   -.112E+01 0.197E+00 -.142E+01   -.461E-04 0.214E-03 0.149E-04
   0.220E+01 0.200E+02 -.244E+02   -.237E+01 -.212E+02 0.262E+02   0.326E-01 0.127E+01 -.207E+01   -.308E-03 -.105E-03 0.789E-04
   -.838E+00 0.125E+02 -.987E+01   0.803E+00 -.139E+02 0.117E+02   -.256E+00 0.744E+00 -.197E+01   0.777E-04 -.600E-04 0.921E-04
   0.606E+01 0.139E+02 -.165E+02   -.596E+01 -.149E+02 0.180E+02   -.164E+00 0.110E+01 -.216E+01   -.676E-04 0.580E-04 -.133E-03
   -.476E+01 -.111E+02 -.298E+02   0.492E+01 0.114E+02 0.316E+02   0.191E+00 0.560E+00 -.144E+01   0.681E-04 0.136E-05 -.440E-04
   0.483E+01 0.196E+01 -.302E+02   -.441E+01 -.254E+01 0.319E+02   -.446E+00 0.892E+00 -.115E+01   0.918E-05 0.962E-05 0.742E-04
   -.203E+01 0.156E+02 -.129E+02   0.206E+01 -.167E+02 0.143E+02   -.129E+00 0.882E+00 -.177E+01   0.125E-04 0.126E-03 0.850E-04
   0.880E+01 0.115E+01 -.220E+02   -.910E+01 -.173E+01 0.233E+02   -.465E-01 0.929E+00 -.173E+01   0.984E-04 -.161E-04 -.484E-04
   0.677E+01 -.515E+01 0.280E+02   -.698E+01 0.589E+01 -.299E+02   0.376E+00 -.111E+01 0.152E+01   0.959E-04 -.406E-04 0.104E-03
   -.738E+01 0.891E+01 0.262E+02   0.782E+01 -.868E+01 -.281E+02   -.401E+00 -.854E+00 0.168E+01   -.341E-03 -.541E-04 0.172E-03
   -.143E+01 -.132E+02 0.194E+02   0.145E+01 0.145E+02 -.206E+02   -.738E-01 -.105E+01 0.171E+01   0.692E-04 -.227E-03 -.130E-03
   -.399E+01 -.761E+01 0.179E+02   0.375E+01 0.856E+01 -.192E+02   0.379E+00 -.512E+00 0.161E+01   -.131E-03 -.141E-03 -.417E-04
   -.703E+01 -.119E+02 0.332E+02   0.723E+01 0.128E+02 -.349E+02   0.444E+00 -.732E+00 0.165E+01   0.121E-03 0.231E-03 -.220E-03
   -.131E+01 -.122E+02 0.181E+02   0.126E+01 0.137E+02 -.199E+02   0.362E+00 -.757E+00 0.177E+01   0.174E-03 0.337E-03 -.253E-03
   -.147E+02 -.746E+01 -.195E+02   0.150E+02 0.832E+01 0.211E+02   -.332E+00 -.557E+00 -.199E+01   0.124E-03 0.280E-03 0.162E-03
 -----------------------------------------------------------------------------------------------
   -.321E+01 -.199E+01 -.100E+01   0.995E-13 0.124E-13 -.117E-12   0.321E+01 0.199E+01 0.100E+01   -.277E-03 0.103E-03 -.248E-03
 
 
 POSITION                                       TOTAL-FORCE (eV/Angst)
 -----------------------------------------------------------------------------------
      0.95233      0.51280      1.41993        -0.291113     -0.271384     -0.299518
      2.69712     11.04533      4.08674         0.251174     -0.527099      0.060945
      7.10102      2.58581      4.20910         0.231552      0.251556     -0.604870
      7.01569      6.85327      4.24540         0.050737     -0.197892     -0.210674
      7.23883     10.91648      4.19174        -0.496953      0.052568     -0.224982
     11.29974      2.56189      4.09339        -0.228105      0.223484     -0.748452
     11.28477      6.61498      3.98516        -0.121689     -0.109698      0.309923
     11.14256     11.09779      4.20661        -0.053096      0.015867     -0.283252
      0.89737      1.81511      6.94406         0.571685      0.627448      0.035576
      0.98250      6.14218      7.09588         0.427923     -0.304752     -0.370722
      0.93870     10.34752      7.04879         0.041583     -0.423603      0.169910
      5.07728      1.83198      7.06213        -0.091776     -0.126928     -0.178905
      5.05791      6.12746      7.01149        -0.338911     -0.152034      0.451709
      5.28872     10.14858      6.92814        -0.353892      0.187022      0.048308
      9.30372      1.88187      6.78786        -0.034850      0.026105      0.100361
      9.12546      5.92870      6.92623         0.359517      0.131378      0.173924
      3.10112      6.78399      4.09901        -0.121919     -0.072249      0.333524
      2.94570      2.67595      3.82054         0.314276     -0.578807      0.052767
      9.47289     10.12765      6.83863        -0.536100      0.001930      0.519166
     11.30937      8.09707      9.76958         0.089257     -0.040438     -0.322359
     11.18794     12.38489      9.68422         0.009152     -0.278555      0.624745
      0.60755      4.81871      1.29332         0.516582     -0.498977      0.053573
      0.64432      8.77961      1.42569         0.326582      0.656261      0.029076
      5.16792      0.26464      1.33369        -0.248938      0.087230      0.149515
      4.89243      4.61573      1.45147        -0.130231      0.269917     -0.613137
      9.13953      0.60845      1.47582         0.222740     -0.181356     -0.477400
      8.84522      4.89251      1.19225         0.019306     -0.779245      0.154970
      5.02927      8.70945      1.57738        -0.377853      0.245043     -0.038069
      3.02139      3.82045      9.91352         0.040540      0.493203     -0.648995
      3.23033      8.27338      9.61905        -0.171077     -0.233850      0.008963
      2.86356     12.43073      9.61842         0.138142     -0.584088     -0.089134
      7.16306      3.94982      9.61409         0.317058      0.138494     -0.239588
      7.33785      8.22203      9.55474        -0.293303     -0.138415      0.031167
      7.03864     12.25520      9.67221         0.363112     -0.383047     -0.180420
     11.40428      3.95936      9.51215        -0.569810      0.330846     -0.171965
      9.07503      8.87200      1.57051         0.145243      0.175531      0.031817
     11.35484      0.26597      7.23358        -0.572687     -0.556126     -0.735271
      3.06000      4.33454      7.11568        -0.067791      0.270300      0.477202
      2.88826      8.58787      7.09976         0.038808     -0.217239     -0.127542
      7.00076     12.46145      7.15055         0.025644      0.442193     -0.018904
      7.03686      4.40802      7.04140         0.116598     -0.321016      0.207759
      7.22187      8.41566      6.99710         0.347569      0.170863      0.214175
     11.29252      4.20193      6.95065        -0.319532      0.290886      0.215329
      9.06662      0.32089      3.96612         0.206421     -0.444699      0.312263
      0.75686      0.28536      3.95411        -0.095577      0.104646      0.238269
      0.90262      4.19233      3.80539        -0.331197      0.617230      0.013225
      0.90356      8.24742      3.89548        -0.329340      0.459538      0.217959
      4.86405     12.41482      3.86659         0.480790      0.566183      0.128792
      5.04113      4.26856      3.86390        -0.273238      0.054650      0.679381
      5.07503      8.64334      4.10244        -0.251929     -0.436646     -0.134956
      2.91172      0.10234      7.09330         0.212937      0.245882      0.053036
     11.26396      8.42339      7.17153         0.490734      0.073514      0.110415
     11.02968     10.69205      1.67065         0.199996     -0.596220      0.201279
      3.04817      2.02735      1.26672         0.088677      0.364046      0.617690
     11.26758      2.20207      1.42181        -0.187497      0.254777      0.566234
      9.13591      4.29247      3.72790        -0.305803     -0.269153      0.307307
      0.89546      2.32757      9.52704         0.418401     -0.674013     -0.236851
      1.01887      6.43042      9.54419        -0.439011     -0.145462      0.322405
      0.89554     10.68723      9.61349        -0.135158      0.055807     -0.298001
      5.17973      2.34983      9.57202        -0.291383     -0.674157     -0.170758
      5.18619      6.48475      9.63283        -0.061881      0.066268     -0.664226
      4.92589     10.32881      9.44593         0.352084      0.957200      0.295463
      9.11384      2.14819      9.25380        -0.027104      0.310726      0.580971
      9.25399      6.45038      9.53748        -0.100289     -0.272318     -0.387649
      9.30184     10.52741      9.51870        -0.344474      0.355197     -0.412422
      2.88994      6.46072      1.63196         0.171545     -0.368133     -0.359318
      2.68880     10.61177      1.61279         0.039557     -0.616043     -0.210069
      7.02051      2.09694      1.56080        -0.052284      0.309174      0.448520
      6.83407      6.42138      1.59126         0.133798      0.440642      0.278126
      6.94705     10.45691      1.66115         0.648966      0.165965     -0.056426
     10.97555      6.31846      1.46213         0.312851      0.688236      0.026981
      9.19307      8.34365      4.10807        -0.075746      0.295837     -0.337880
 -----------------------------------------------------------------------------------
    total drift:                                0.000458      0.000932     -0.000363


--------------------------------------------------------------------------------------------------------



  FREE ENERGIE OF THE ION-ELECTRON SYSTEM (eV)
  ---------------------------------------------------
  free  energy   TOTEN  =      -300.53417851 eV

  energy  without entropy=     -300.53417851  energy(sigma->0) =     -300.53417851
 


--------------------------------------------------------------------------------------------------------


    POTLOK:  cpu time      0.7471: real time      0.7503


--------------------------------------------------------------------------------------------------------


     LOOP+:  cpu time    182.6738: real time    183.6305
    4ORBIT:  cpu time      0.0000: real time      0.0000



 total charge

# of ion       s       p       d       tot
------------------------------------------
    1        1.326   0.773   0.060   2.160
    2        1.311   0.807   0.060   2.178
    3        1.329   0.720   0.049   2.098
    4        1.330   0.739   0.052   2.121
    5        1.332   0.726   0.051   2.109
    6        1.325   0.734   0.053   2.112
    7        1.330   0.755   0.055   2.140
    8        1.317   0.759   0.050   2.126
    9        1.324   0.776   0.060   2.160
   10        1.327   0.746   0.052   2.125
   11        1.325   0.743   0.053   2.120
   12        1.331   0.733   0.048   2.112
   13        1.319   0.751   0.052   2.122
   14        1.330   0.755   0.057   2.142
   15        1.324   0.747   0.054   2.125
   16        1.331   0.732   0.049   2.113
   17        1.324   0.771   0.056   2.151
   18        1.326   0.768   0.054   2.148
   19        1.318   0.752   0.052   2.123
   20        1.327   0.741   0.054   2.122
   21        1.326   0.768   0.058   2.153
   22        1.326   0.750   0.054   2.130
   23        1.325   0.739   0.049   2.113
   24        1.323   0.759   0.056   2.137
   25        1.314   0.795   0.061   2.170
   26        1.316   0.795   0.059   2.170
   27        1.321   0.778   0.060   2.159
   28        1.331   0.747   0.057   2.134
   29        1.337   0.709   0.052   2.098
   30        1.324   0.762   0.059   2.145
   31        1.328   0.739   0.052   2.119
   32        1.319   0.766   0.057   2.142
   33        1.328   0.752   0.055   2.135
   34        1.331   0.709   0.046   2.086
   35        1.324   0.755   0.055   2.135
   36        1.322   0.759   0.052   2.133
   37        1.472   2.340   0.038   3.851
   38        1.476   2.264   0.021   3.761
   39        1.475   2.292   0.029   3.796
   40        1.478   2.286   0.028   3.793
   41        1.475   2.304   0.032   3.811
   42        1.477   2.295   0.033   3.805
   43        1.480   2.271   0.028   3.779
   44        1.478   2.305   0.035   3.817
   45        1.476   2.309   0.036   3.821
   46        1.476   2.310   0.033   3.818
   47        1.476   2.306   0.031   3.813
   48        1.473   2.296   0.027   3.796
   49        1.478   2.315   0.035   3.829
   50        1.480   2.295   0.034   3.809
   51        1.477   2.294   0.031   3.802
   52        1.475   2.302   0.031   3.808
   53        1.479   2.277   0.029   3.786
   54        1.479   2.287   0.033   3.799
   55        1.479   2.277   0.027   3.782
   56        1.474   2.284   0.025   3.783
   57        1.475   2.318   0.036   3.829
   58        1.478   2.296   0.030   3.804
   59        1.477   2.289   0.030   3.796
   60        1.476   2.314   0.035   3.825
   61        1.479   2.275   0.027   3.781
   62        1.475   2.293   0.030   3.798
   63        1.475   2.296   0.029   3.800
   64        1.476   2.298   0.031   3.805
   65        1.478   2.270   0.026   3.773
   66        1.478   2.290   0.030   3.798
   67        1.477   2.283   0.027   3.787
   68        1.477   2.295   0.030   3.802
   69        1.476   2.303   0.033   3.812
   70        1.476   2.306   0.034   3.816
   71        1.478   2.320   0.039   3.837
   72        1.478   2.287   0.030   3.795
--------------------------------------------------
tot        100.864 109.750   3.069 213.683



 magnetization (x)

# of ion       s       p       d       tot
------------------------------------------
    1       -0.000   0.000  -0.000   0.000
    2       -0.000   0.000  -0.000  -0.000
    3       -0.000   0.000   0.000   0.000
    4       -0.000   0.000   0.000   0.000
    5       -0.000   0.000   0.000   0.000
    6       -0.000   0.000   0.000   0.000
    7       -0.000   0.000   0.000   0.000
    8       -0.000   0.000   0.000   0.000
    9       -0.000   0.000   0.000   0.000
   10       -0.000   0.000  -0.000   0.000
   11       -0.000   0.000  -0.000   0.000
   12       -0.000   0.000  -0.000  -0.000
   13       -0.000   0.000   0.000   0.000
   14       -0.000   0.000   0.000   0.000
   15       -0.000   0.000   0.000   0.000
   16       -0.000   0.000   0.000   0.000
   17       -0.000   0.000  -0.000  -0.000
   18       -0.000   0.000  -0.000   0.000
   19       -0.000   0.000   0.000   0.000
   20       -0.000   0.000   0.000   0.000
   21       -0.000   0.000   0.000   0.000
   22       -0.000  -0.000  -0.000  -0.000
   23       -0.000  -0.000  -0.000  -0.000
   24       -0.000  -0.000  -0.000  -0.000
   25       -0.000   0.000  -0.000  -0.000
   26       -0.000   0.000   0.000   0.000
   27       -0.000   0.000   0.000   0.000
   28       -0.000  -0.000  -0.000  -0.000
   29       -0.000  -0.000  -0.000  -0.000
   30       -0.000  -0.000  -0.000  -0.000
   31       -0.000  -0.000  -0.000  -0.000
   32       -0.000   0.000   0.000   0.000
   33       -0.000   0.000   0.000   0.000
   34       -0.000   0.000   0.000   0.000
   35       -0.000   0.000   0.000   0.000
   36       -0.000   0.000   0.000   0.000
   37       -0.000  -0.000   0.000  -0.000
   38       -0.000  -0.000  -0.000  -0.000
   39       -0.000  -0.000  -0.000  -0.000
   40       -0.000  -0.000   0.000  -0.000
   41       -0.000  -0.000   0.000  -0.000
   42       -0.000  -0.000   0.000  -0.000
   43       -0.000  -0.000   0.000  -0.000
   44       -0.000  -0.000   0.000  -0.000
   45       -0.000  -0.000   0.000  -0.000
   46       -0.000  -0.000   0.000  -0.000
   47       -0.000  -0.000  -0.000  -0.000
   48       -0.000  -0.000  -0.000  -0.000
   49       -0.000  -0.000  -0.000  -0.000
   50       -0.000  -0.000   0.000  -0.000
   51       -0.000  -0.000  -0.000  -0.000
   52       -0.000  -0.000   0.000  -0.000
   53       -0.000  -0.000   0.000  -0.000
   54       -0.000  -0.000  -0.000  -0.000
   55       -0.000  -0.000   0.000  -0.000
   56       -0.000  -0.000   0.000  -0.000
   57       -0.000  -0.000   0.000  -0.000
   58       -0.000  -0.000  -0.000  -0.000
   59       -0.000  -0.000   0.000  -0.000
   60       -0.000  -0.000  -0.000  -0.000
   61       -0.000  -0.000  -0.000  -0.000
   62       -0.000  -0.000  -0.000  -0.000
   63       -0.000  -0.000   0.000  -0.000
   64       -0.000  -0.000   0.000  -0.000
   65       -0.000  -0.000   0.000  -0.000
   66       -0.000  -0.000  -0.000  -0.000
   67       -0.000  -0.000  -0.000  -0.000
   68       -0.000  -0.000   0.000  -0.000
   69       -0.000  -0.000   0.000  -0.000
   70       -0.000  -0.000   0.000  -0.000
   71       -0.000  -0.000   0.000  -0.000
   72       -0.000  -0.000   0.000  -0.000
--------------------------------------------------
tot         -0.000  -0.000   0.000  -0.000
 

 total amount of memory used by VASP MPI-rank0   110524. kBytes
=======================================================================

   base      :      30000. kBytes
   nonl-proj :      16287. kBytes
   fftplans  :       6179. kBytes
   grid      :      15593. kBytes
   one-center:        146. kBytes
   wavefun   :      42319. kBytes
 
  
  
 General timing and accounting informations for this job:
 ========================================================
  
                  Total CPU time used (sec):      194.373
                            User time (sec):      188.401
                          System time (sec):        5.973
                         Elapsed time (sec):      197.087
  
                   Maximum memory used (kb):      318204.
                   Average memory used (kb):          N/A
  
                          Minor page faults:        95498
                          Major page faults:           44
                 Voluntary context switches:         8832
