 running  128 mpi-ranks, with    1 threads/rank, on    2 nodes
 distrk:  each k-point on   64 cores,    2 groups
 distr:  one band on    8 cores,    8 groups
 vasp.6.4.2 20Jul23 (build Oct 12 2023 10:31:02) complex                         
 POSCAR found type information on POSCAR GeSe
 POSCAR found :  2 types and      72 ions
 Reading from existing POTCAR
 -----------------------------------------------------------------------------
|                                                                             |
|           W    W    AA    RRRRR   N    N  II  N    N   GGGG   !!!           |
|           W    W   A  A   R    R  NN   N  II  NN   N  G    G  !!!           |
|           W    W  A    A  R    R  N N  N  II  N N  N  G       !!!           |
|           W WW W  AAAAAA  RRRRR   N  N N  II  N  N N  G  GGG   !            |
|           WW  WW  A    A  R   R   N   NN  II  N   NN  G    G                |
|           W    W  A    A  R    R  N    N  II  N    N   GGGG   !!!           |
|                                                                             |
|     You use a magnetic or noncollinear calculation, but did not specify     |
|     the initial magnetic moment with the MAGMOM tag. Note that a            |
|     default of 1 will be used for all atoms. This ferromagnetic setup       |
|     may break the symmetry of the crystal, in particular it may rule        |
|     out finding an antiferromagnetic solution. Thence, we recommend         |
|     setting the initial magnetic moment manually or verifying carefully     |
|     that this magnetic setup is desired.                                    |
|                                                                             |
 -----------------------------------------------------------------------------

 scaLAPACK will be used
 Reading from existing POTCAR
 -----------------------------------------------------------------------------
|                                                                             |
|               ----> ADVICE to this user running VASP <----                  |
|                                                                             |
|     You have a (more or less) 'large supercell' and for larger cells it     |
|     might be more efficient to use real-space projection operators.         |
|     Therefore, try LREAL= Auto in the INCAR file.                           |
|     Mind: For very accurate calculation, you might also keep the            |
|     reciprocal projection scheme (i.e. LREAL=.FALSE.).                      |
|                                                                             |
 -----------------------------------------------------------------------------

 LDA part: xc-table for Pade appr. of Perdew
 -----------------------------------------------------------------------------
|                                                                             |
|           W    W    AA    RRRRR   N    N  II  N    N   GGGG   !!!           |
|           W    W   A  A   R    R  NN   N  II  NN   N  G    G  !!!           |
|           W    W  A    A  R    R  N N  N  II  N N  N  G       !!!           |
|           W WW W  AAAAAA  RRRRR   N  N N  II  N  N N  G  GGG   !            |
|           WW  WW  A    A  R   R   N   NN  II  N   NN  G    G                |
|           W    W  A    A  R    R  N    N  II  N    N   GGGG   !!!           |
|                                                                             |
|     The number of bands has been changed from the values supplied in        |
|     the INCAR file. This is a result of running the parallel version.       |
|     The orbitals not found in the WAVECAR file will be initialized with     |
|     random numbers, which is usually adequate. For correlated               |
|     calculations, however, you should redo the groundstate calculation.     |
|     I found NBANDS = 220. Now, NBANDS = 224.                                |
|                                                                             |
 -----------------------------------------------------------------------------

 POSCAR, INCAR and KPOINTS ok, starting setup
 FFT: planning ... GRIDC
 FFT: planning ... GRID_SOFT
 FFT: planning ... GRID
 WAVECAR not read
 WARNING: random wavefunctions but no delay for mixing, default for NELMDL
 entering main loop
       N       E                     dE             d eps       ncg     rms          rms(c)
DAV:   1     0.181647077577E+04    0.18165E+04   -0.14174E+05  7168   0.135E+03
DAV:   2    -0.648987088628E+02   -0.18814E+04   -0.18073E+04  8472   0.205E+02
DAV:   3    -0.281564609853E+03   -0.21667E+03   -0.21087E+03  8568   0.690E+01
DAV:   4    -0.289524334258E+03   -0.79597E+01   -0.78678E+01  8768   0.130E+01
DAV:   5    -0.289813483193E+03   -0.28915E+00   -0.28836E+00  9032   0.212E+00    0.294E+01
DAV:   6    -0.289803024005E+03    0.10459E-01   -0.26002E+01  7960   0.756E+00    0.174E+01
DAV:   7    -0.296954990157E+03   -0.71520E+01   -0.85819E+00  8000   0.450E+00    0.913E+00
DAV:   8    -0.300136490200E+03   -0.31815E+01   -0.17410E+00  8184   0.225E+00    0.324E+00
DAV:   9    -0.300490115843E+03   -0.35363E+00   -0.40731E-01  9040   0.100E+00    0.146E+00
DAV:  10    -0.300593507501E+03   -0.10339E+00   -0.93661E-02  8104   0.462E-01    0.725E-01
DAV:  11    -0.300624905868E+03   -0.31398E-01   -0.34549E-02  9008   0.276E-01    0.291E-01
DAV:  12    -0.300628433867E+03   -0.35280E-02   -0.46526E-03  8472   0.118E-01    0.105E-01
DAV:  13    -0.300628548697E+03   -0.11483E-03   -0.58428E-04  9880   0.377E-02    0.440E-02
DAV:  14    -0.300628565355E+03   -0.16658E-04   -0.94022E-05  8256   0.188E-02    0.166E-02
DAV:  15    -0.300628568755E+03   -0.33999E-05   -0.15274E-05  8584   0.861E-03    0.746E-03
DAV:  16    -0.300628569493E+03   -0.73749E-06   -0.15405E-06  4944   0.268E-03
   1 F= -.30062857E+03 E0= -.30062857E+03  d E =-.910339E-15  mag=     0.0004
