 vasp.6.4.2 20Jul23 (build Oct 12 2023 10:31:02) complex                         
 executed on              LinuxNV date 2025.05.17  12:17:27
 running  160 mpi-ranks, with    1 threads/rank, on   10 nodes
 distrk:  each k-point on   80 cores,    2 groups
 distr:  one band on NCORE=   5 cores,   16 groups


--------------------------------------------------------------------------------------------------------


 INCAR:
   ENCUT = 360.000000
   SIGMA = 0.050000
   EDIFF = 1.00e-06
   ALGO = Normal
   GGA = PE
   PREC = Normal
   SYSTEM = ./
   ICHARG = 2
   ISMEAR = 0
   ISPIN = 1
   ISTART = 0
   ISYM = 0
   KPAR = 2
   LMAXMIX = 4
   NELM = 100
   NPAR = 16
   LASPH = .TRUE.
   LCHARG = .FALSE.
   LWAVE = .FALSE.

 POTCAR:    PAW_PBE Ge 05Jan2001                  
 POTCAR:    PAW_PBE Se 06Sep2000                  
 POTCAR:    PAW_PBE Ge 05Jan2001                  
   VRHFIN =Ge: s2p2                                                                                 
   LEXCH  = PE                                                                                      
   EATOM  =   104.9960 eV,    7.7170 Ry                                                             
                                                                                                    
   TITEL  = PAW_PBE Ge 05Jan2001                                                                    
   LULTRA =        F    use ultrasoft PP ?                                                          
   IUNSCR =        1    unscreen: 0-lin 1-nonlin 2-no                                               
   RPACOR =    2.170    partial core radius                                                         
   POMASS =   72.610; ZVAL   =    4.000    mass and valenz                                          
   RCORE  =    2.300    outmost cutoff radius                                                       
   RWIGS  =    2.300; RWIGS  =    1.217    wigner-seitz radius (au A)                               
   ENMAX  =  173.807; ENMIN  =  130.355 eV                                                          
   ICORE  =        3    local potential                                                             
   LCOR   =        T    correct aug charges                                                         
   LPAW   =        T    paw PP                                                                      
   EAUG   =  385.843                                                                                
   DEXC   =    0.000                                                                                
   RMAX   =    2.342    core radius for proj-oper                                                   
   RAUG   =    1.300    factor for augmentation sphere                                              
   RDEP   =    2.318    radius for radial grids                                                     
   RDEPT  =    2.103    core radius for aug-charge                                                  
                                                                                                    
   Atomic configuration                                                                             
   10 entries                                                                                       
     n  l   j            E        occ.                                                              
     1  0  0.50    -10959.8463   2.0000                                                             
     2  0  0.50     -1371.6056   2.0000                                                             
     2  1  1.50     -1198.4791   6.0000                                                             
     3  0  0.50      -168.4733   2.0000                                                             
     3  1  1.50      -115.6019   6.0000                                                             
     3  2  2.50       -29.3106  10.0000                                                             
     4  0  0.50       -11.7309   2.0000                                                             
     4  1  0.50        -3.8952   2.0000                                                             
     4  2  1.50        -4.0817   0.0000                                                             
     4  3  2.50        -4.0817   0.0000                                                             
   Description                                                                                      
     l       E           TYP  RCUT    TYP  RCUT                                                     
     0    -11.7309493     23  2.300                                                                 
     0     -7.4578696     23  2.300                                                                 
     1     -3.8952261     23  2.300                                                                 
     1      6.1178114     23  2.300                                                                 
     2     -4.0817478     23  2.300                                                                 
     3     -1.3605826      7  2.300                                                                 
  local pseudopotential read in
  partial core-charges read in
  partial kinetic energy density read in
  atomic valenz-charges read in
  non local Contribution for L=            0  read in
    real space projection operators read in
  non local Contribution for L=            0  read in
    real space projection operators read in
  non local Contribution for L=            1  read in
    real space projection operators read in
  non local Contribution for L=            1  read in
    real space projection operators read in
  non local Contribution for L=            2  read in
    real space projection operators read in
    PAW grid and wavefunctions read in
 
   number of l-projection  operators is LMAX  =            5
   number of lm-projection operators is LMMAX =           13
 
 POTCAR:    PAW_PBE Se 06Sep2000                  
   VRHFIN =Se: s2p4                                                                                 
   LEXCH  = PE                                                                                      
   EATOM  =   257.1286 eV,   18.8984 Ry                                                             
                                                                                                    
   TITEL  = PAW_PBE Se 06Sep2000                                                                    
   LULTRA =        F    use ultrasoft PP ?                                                          
   IUNSCR =        1    unscreen: 0-lin 1-nonlin 2-no                                               
   RPACOR =    1.900    partial core radius                                                         
   POMASS =   78.960; ZVAL   =    6.000    mass and valenz                                          
   RCORE  =    2.100    outmost cutoff radius                                                       
   RWIGS  =    2.200; RWIGS  =    1.164    wigner-seitz radius (au A)                               
   ENMAX  =  211.555; ENMIN  =  158.666 eV                                                          
   ICORE  =        3    local potential                                                             
   LCOR   =        T    correct aug charges                                                         
   LPAW   =        T    paw PP                                                                      
   EAUG   =  446.842                                                                                
   DEXC   =    0.000                                                                                
   RMAX   =    2.147    core radius for proj-oper                                                   
   RAUG   =    1.300    factor for augmentation sphere                                              
   RDEP   =    2.177    radius for radial grids                                                     
   RDEPT  =    1.928    core radius for aug-charge                                                  
                                                                                                    
   Atomic configuration                                                                             
   10 entries                                                                                       
     n  l   j            E        occ.                                                              
     1  0  0.50    -12503.4787   2.0000                                                             
     2  0  0.50     -1606.9547   2.0000                                                             
     2  1  1.50     -1413.3140   6.0000                                                             
     3  0  0.50      -213.4885   2.0000                                                             
     3  1  1.50      -152.9538   6.0000                                                             
     3  2  2.50       -53.1221  10.0000                                                             
     4  0  0.50       -17.2865   2.0000                                                             
     4  1  0.50        -6.5110   4.0000                                                             
     4  2  2.50        -6.8029   0.0000                                                             
     4  3  2.50        -6.8029   0.0000                                                             
   Description                                                                                      
     l       E           TYP  RCUT    TYP  RCUT                                                     
     0    -17.2865377     23  2.100                                                                 
     0    -15.3094411     23  2.100                                                                 
     1     -6.5110275     23  2.100                                                                 
     1     -0.0695192     23  2.100                                                                 
     2     -6.8029130     23  2.100                                                                 
     3     -1.3605826      7  2.100                                                                 
  local pseudopotential read in
  partial core-charges read in
  partial kinetic energy density read in
  atomic valenz-charges read in
  non local Contribution for L=            0  read in
    real space projection operators read in
  non local Contribution for L=            0  read in
    real space projection operators read in
  non local Contribution for L=            1  read in
    real space projection operators read in
  non local Contribution for L=            1  read in
    real space projection operators read in
  non local Contribution for L=            2  read in
    real space projection operators read in
    PAW grid and wavefunctions read in
 
   number of l-projection  operators is LMAX  =            5
   number of lm-projection operators is LMMAX =           13
 
  PAW_PBE Ge 05Jan2001                  :
 energy of atom  1       EATOM= -104.9960
 kinetic energy error for atom=    0.0005 (will be added to EATOM!!)
  PAW_PBE Se 06Sep2000                  :
 energy of atom  2       EATOM= -257.1286
 kinetic energy error for atom=    0.0030 (will be added to EATOM!!)
 
 
 POSCAR: Ge Se
  positions in cartesian coordinates
  No initial velocities read in
 exchange correlation table for  LEXCH =        8
   RHO(1)=    0.500       N(1)  =     2000
   RHO(2)=  100.500       N(2)  =     4000
 


--------------------------------------------------------------------------------------------------------


 ion  position               nearest neighbor table
   1  0.750  0.308  0.116-   5 2.58   6 2.59   6 2.59
   2  0.250  0.808  0.384-   6 2.58   5 2.59   5 2.59
   3  0.750  0.881  0.884-   7 2.58   8 2.59   8 2.59
   4  0.250  0.381  0.616-   8 2.58   7 2.59   7 2.59
   5  0.750  0.183  0.355-   1 2.58   2 2.59   2 2.59
   6  0.250  0.683  0.145-   2 2.58   1 2.59   1 2.59
   7  0.750  0.005  0.645-   3 2.58   4 2.59   4 2.59
   8  0.250  0.505  0.855-   4 2.58   3 2.59   3 2.59
 

IMPORTANT INFORMATION: All symmetrisations will be switched off!
NOSYMM: (Re-)initialisation of all symmetry stuff for point group C_1.


----------------------------------------------------------------------------------------

                                     Primitive cell                                     

  volume of cell :     184.8593

  direct lattice vectors                    reciprocal lattice vectors
     3.858100176  0.000000000  0.000000000     0.259194929  0.000000000  0.000000000
     0.000000000  4.526575088  0.000000000     0.000000000  0.220917577  0.000000000
     0.000000000  0.000000000 10.585176468     0.000000000  0.000000000  0.094471736

  length of vectors
     3.858100176  4.526575088 10.585176468     0.259194929  0.220917577  0.094471736

  position of ions in fractional coordinates (direct lattice)
     0.749999685  0.307601920  0.116293234
     0.249999733  0.807601945  0.383706663
     0.749999529  0.880803548  0.883706698
     0.249998913  0.380803590  0.616293301
     0.749999757  0.183347007  0.354521754
     0.249999636  0.683347108  0.145478256
     0.749999119  0.005058363  0.645478205
     0.249999423  0.505058446  0.854521738

  ion indices of the primitive-cell ions
   primitive index   ion index
                 1           1
                 2           2
                 3           3
                 4           4
                 5           5
                 6           6
                 7           7
                 8           8

----------------------------------------------------------------------------------------

 
 
 KPOINTS: KPOINTS created by Atomic Simulation Env

Automatic generation of k-mesh.
 Grid dimensions read from file:
 generate k-points for:    6    6    2

 Generating k-lattice:

  Cartesian coordinates                     Fractional coordinates (reciprocal lattice)
     0.043199155  0.000000000  0.000000000     0.166666667  0.000000000  0.000000000
     0.000000000  0.036819596  0.000000000     0.000000000  0.166666667  0.000000000
     0.000000000  0.000000000  0.047235868     0.000000000  0.000000000  0.500000000

  Length of vectors
     0.043199155  0.036819596  0.047235868

  Shift w.r.t. Gamma in fractional coordinates (k-lattice)
     0.000000000  0.000000000  0.000000000

 
 Subroutine IBZKPT returns following result:
 ===========================================
 
 Found     40 irreducible k-points:
 
 Following reciprocal coordinates:
            Coordinates               Weight
  0.000000  0.000000  0.000000      1.000000
  0.166667  0.000000  0.000000      2.000000
  0.333333  0.000000  0.000000      2.000000
  0.500000  0.000000  0.000000      1.000000
  0.000000  0.166667  0.000000      2.000000
  0.166667  0.166667  0.000000      2.000000
  0.166667 -0.166667  0.000000      2.000000
  0.333333  0.166667  0.000000      2.000000
  0.333333 -0.166667  0.000000      2.000000
  0.500000  0.166667  0.000000      2.000000
  0.000000  0.333333  0.000000      2.000000
  0.166667  0.333333  0.000000      2.000000
  0.166667 -0.333333  0.000000      2.000000
  0.333333  0.333333  0.000000      2.000000
  0.333333 -0.333333  0.000000      2.000000
  0.500000  0.333333  0.000000      2.000000
  0.000000  0.500000  0.000000      1.000000
  0.166667  0.500000  0.000000      2.000000
  0.333333  0.500000  0.000000      2.000000
  0.500000  0.500000  0.000000      1.000000
  0.000000  0.000000  0.500000      1.000000
  0.166667  0.000000  0.500000      2.000000
  0.333333  0.000000  0.500000      2.000000
  0.500000  0.000000  0.500000      1.000000
  0.000000  0.166667  0.500000      2.000000
  0.166667  0.166667  0.500000      2.000000
  0.166667 -0.166667  0.500000      2.000000
  0.333333  0.166667  0.500000      2.000000
  0.333333 -0.166667  0.500000      2.000000
  0.500000  0.166667  0.500000      2.000000
  0.000000  0.333333  0.500000      2.000000
  0.166667  0.333333  0.500000      2.000000
  0.166667 -0.333333  0.500000      2.000000
  0.333333  0.333333  0.500000      2.000000
  0.333333 -0.333333  0.500000      2.000000
  0.500000  0.333333  0.500000      2.000000
  0.000000  0.500000  0.500000      1.000000
  0.166667  0.500000  0.500000      2.000000
  0.333333  0.500000  0.500000      2.000000
  0.500000  0.500000  0.500000      1.000000
 
 Following cartesian coordinates:
            Coordinates               Weight
  0.000000  0.000000  0.000000      1.000000
  0.043199  0.000000  0.000000      2.000000
  0.086398  0.000000  0.000000      2.000000
  0.129597  0.000000  0.000000      1.000000
  0.000000  0.036820  0.000000      2.000000
  0.043199  0.036820  0.000000      2.000000
  0.043199 -0.036820  0.000000      2.000000
  0.086398  0.036820  0.000000      2.000000
  0.086398 -0.036820  0.000000      2.000000
  0.129597  0.036820  0.000000      2.000000
  0.000000  0.073639  0.000000      2.000000
  0.043199  0.073639  0.000000      2.000000
  0.043199 -0.073639  0.000000      2.000000
  0.086398  0.073639  0.000000      2.000000
  0.086398 -0.073639  0.000000      2.000000
  0.129597  0.073639  0.000000      2.000000
  0.000000  0.110459  0.000000      1.000000
  0.043199  0.110459  0.000000      2.000000
  0.086398  0.110459  0.000000      2.000000
  0.129597  0.110459  0.000000      1.000000
  0.000000  0.000000  0.047236      1.000000
  0.043199  0.000000  0.047236      2.000000
  0.086398  0.000000  0.047236      2.000000
  0.129597  0.000000  0.047236      1.000000
  0.000000  0.036820  0.047236      2.000000
  0.043199  0.036820  0.047236      2.000000
  0.043199 -0.036820  0.047236      2.000000
  0.086398  0.036820  0.047236      2.000000
  0.086398 -0.036820  0.047236      2.000000
  0.129597  0.036820  0.047236      2.000000
  0.000000  0.073639  0.047236      2.000000
  0.043199  0.073639  0.047236      2.000000
  0.043199 -0.073639  0.047236      2.000000
  0.086398  0.073639  0.047236      2.000000
  0.086398 -0.073639  0.047236      2.000000
  0.129597  0.073639  0.047236      2.000000
  0.000000  0.110459  0.047236      1.000000
  0.043199  0.110459  0.047236      2.000000
  0.086398  0.110459  0.047236      2.000000
  0.129597  0.110459  0.047236      1.000000
 


--------------------------------------------------------------------------------------------------------




 Dimension of arrays:
   k-points           NKPTS =     40   k-points in BZ     NKDIM =     40   number of bands    NBANDS=     32
   number of dos      NEDOS =    301   number of ions     NIONS =      8
   non local maximal  LDIM  =      5   non local SUM 2l+1 LMDIM =     13
   total plane-waves  NPLWV =  21600
   max r-space proj   IRMAX =      1   max aug-charges    IRDMAX=   6549
   dimension x,y,z NGX =    18 NGY =   24 NGZ =   50
   dimension x,y,z NGXF=    36 NGYF=   48 NGZF=  100
   support grid    NGXF=    36 NGYF=   48 NGZF=  100
   ions per type =               4   4
   NGX,Y,Z   is equivalent  to a cutoff of   7.76,  8.81,  7.85 a.u.
   NGXF,Y,Z  is equivalent  to a cutoff of  15.51, 17.63, 15.71 a.u.

 SYSTEM =  ./                                      
 POSCAR =  Ge Se                                   

 Startparameter for this run:
   NWRITE =      2    write-flag & timer
   PREC   = normal    normal or accurate (medium, high low for compatibility)
   ISTART =      0    job   : 0-new  1-cont  2-samecut
   ICHARG =      2    charge: 1-file 2-atom 10-const
   ISPIN  =      1    spin polarized calculation?
   LNONCOLLINEAR =      F non collinear calculations
   LSORBIT =      F    spin-orbit coupling
   INIWAV =      1    electr: 0-lowe 1-rand  2-diag
   LASPH  =      T    aspherical Exc in radial PAW
 Electronic Relaxation 1
   ENCUT  =  360.0 eV  26.46 Ry    5.14 a.u.   5.97  7.00 16.38*2*pi/ulx,y,z
   ENINI  =  360.0     initial cutoff
   ENAUG  =  446.8 eV  augmentation charge cutoff
   NELM   =    100;   NELMIN=  2; NELMDL= -5     # of ELM steps 
   EDIFF  = 0.1E-05   stopping-criterion for ELM
   LREAL  =      F    real-space projection
   NLSPLINE    = F    spline interpolate recip. space projectors
   LCOMPAT=      F    compatible to vasp.4.4
   GGA_COMPAT  = T    GGA compatible to vasp.4.4-vasp.4.6
   LMAXPAW     = -100 max onsite density
   LMAXMIX     =    4 max onsite mixed and CHGCAR
   VOSKOWN=      0    Vosko Wilk Nusair interpolation
   ROPT   =    0.00000   0.00000
 Ionic relaxation
   EDIFFG = 0.1E-04   stopping-criterion for IOM
   NSW    =      0    number of steps for IOM
   NBLOCK =      1;   KBLOCK =      1    inner block; outer block 
   IBRION =     -1    ionic relax: 0-MD 1-quasi-New 2-CG
   NFREE  =      0    steps in history (QN), initial steepest desc. (CG)
   ISIF   =      2    stress and relaxation
   IWAVPR =     10    prediction:  0-non 1-charg 2-wave 3-comb
   ISYM   =      0    0-nonsym 1-usesym 2-fastsym
   LCORR  =      T    Harris-Foulkes like correction to forces

   POTIM  = 0.5000    time-step for ionic-motion
   TEIN   =    0.0    initial temperature
   TEBEG  =    0.0;   TEEND  =   0.0 temperature during run
   SMASS  =  -3.00    Nose mass-parameter (am)
   estimated Nose-frequenzy (Omega)   =  0.10E-29 period in steps = 0.13E+47 mass=  -0.340E-27a.u.
   SCALEE = 1.0000    scale energy and forces
   NPACO  =    256;   APACO  = 10.0  distance and # of slots for P.C.
   PSTRESS=    0.0 pullay stress

  Mass of Ions in am
   POMASS =  72.61 78.96
  Ionic Valenz
   ZVAL   =   4.00  6.00
  Atomic Wigner-Seitz radii
   RWIGS  =  -1.00 -1.00
  virtual crystal weights 
   VCA    =   1.00  1.00
   NELECT =      40.0000    total number of electrons
   NUPDOWN=      -1.0000    fix difference up-down

 DOS related values:
   EMIN   =  10.00;   EMAX   =-10.00  energy-range for DOS
   EFERMI =   0.00;   METHOD = LEGACY      
   ISMEAR =     0;   SIGMA  =   0.05  broadening in eV -4-tet -1-fermi 0-gaus

 Electronic relaxation 2 (details)
   IALGO  =     38    algorithm
   LDIAG  =      T    sub-space diagonalisation (order eigenvalues)
   LSUBROT=      F    optimize rotation matrix (better conditioning)
   TURBO    =      0    0=normal 1=particle mesh
   IRESTART =      0    0=no restart 2=restart with 2 vectors
   NREBOOT  =      0    no. of reboots
   NMIN     =      0    reboot dimension
   EREF     =   0.00    reference energy to select bands
   IMIX   =      4    mixing-type and parameters
     AMIX     =   0.40;   BMIX     =  1.00
     AMIX_MAG =   1.60;   BMIX_MAG =  1.00
     AMIN     =   0.10
     WC   =   100.;   INIMIX=   1;  MIXPRE=   1;  MAXMIX= -45

 Intra band minimization:
   WEIMIN = 0.0000     energy-eigenvalue tresh-hold
   EBREAK =  0.78E-08  absolut break condition
   DEPER  =   0.30     relativ break condition  

   TIME   =   0.40     timestep for ELM

  volume/ion in A,a.u.               =      23.11       155.94
  Fermi-wavevector in a.u.,A,eV,Ry     =   0.982836  1.857291 13.142773  0.965967
  Thomas-Fermi vector in A             =   2.113949
 
 Write flags
   LWAVE        =      F    write WAVECAR
   LDOWNSAMPLE  =      F    k-point downsampling of WAVECAR
   LCHARG       =      F    write CHGCAR
   LVTOT        =      F    write LOCPOT, total local potential
   LVHAR        =      F    write LOCPOT, Hartree potential only
   LELF         =      F    write electronic localiz. function (ELF)
   LORBIT       =      0    0 simple, 1 ext, 2 COOP (PROOUT), +10 PAW based schemes


 Dipole corrections
   LMONO  =      F    monopole corrections only (constant potential shift)
   LDIPOL =      F    correct potential (dipole corrections)
   IDIPOL =      0    1-x, 2-y, 3-z, 4-all directions 
   EPSILON=  1.0000000 bulk dielectric constant

 Exchange correlation treatment:
   GGA     =    PE    GGA type
   LEXCH   =     8    internal setting for exchange type
   LIBXC   =     F    Libxc                    
   VOSKOWN =     0    Vosko Wilk Nusair interpolation
   LHFCALC =     F    Hartree Fock is set to
   LHFONE  =     F    Hartree Fock one center treatment
   AEXX    =    0.0000 exact exchange contribution

 Linear response parameters
   LEPSILON=     F    determine dielectric tensor
   LRPA    =     F    only Hartree local field effects (RPA)
   LNABLA  =     F    use nabla operator in PAW spheres
   LVEL    =     F    velocity operator in full k-point grid
   CSHIFT  =0.1000    complex shift for real part using Kramers Kronig
   OMEGAMAX=  -1.0    maximum frequency
   DEG_THRESHOLD= 0.2000000E-02 threshold for treating states as degnerate
   RTIME   =   -0.100 relaxation time in fs
  (WPLASMAI=    0.000 imaginary part of plasma frequency in eV, 0.658/RTIME)
   DFIELD  = 0.0000000 0.0000000 0.0000000 field for delta impulse in time
 
  Optional k-point grid parameters
   LKPOINTS_OPT  =     F    use optional k-point grid
   KPOINTS_OPT_MODE=     1    mode for optional k-point grid
 
 Orbital magnetization related:
   ORBITALMAG=     F  switch on orbital magnetization
   LCHIMAG   =     F  perturbation theory with respect to B field
   DQ        =  0.001000  dq finite difference perturbation B field
   LLRAUG    =     F  two centre corrections for induced B field
   LBONE     =     F  B-component reconstruction in AE one-centre
   LVGVCALC  =     T  calculate vGv susceptibility
   LVGVAPPL  =     F  apply vGv susceptibility instead of pGv for G=0

 Random number generation:
   RANDOM_GENERATOR = DEFAULT
   PCG_SEED         = not used


--------------------------------------------------------------------------------------------------------


 Static calculation
 charge density and potential will be updated during run
 non-spin polarized calculation
 Variant of blocked Davidson
 Davidson routine will perform the subspace rotation
 perform sub-space diagonalisation
    after iterative eigenvector-optimisation
 modified Broyden-mixing scheme, WC =      100.0
 initial mixing is a Kerker type mixing with AMIX =  0.4000 and BMIX =      1.0000
 Hartree-type preconditioning will be used
 using additional bands            12
 reciprocal scheme for non local part
 use partial core corrections
 calculate Harris-corrections to forces 
   (improved forces if not selfconsistent)
 use gradient corrections 
 use of overlap-Matrix (Vanderbilt PP)
 Gauss-broadening in eV      SIGMA  =   0.05


--------------------------------------------------------------------------------------------------------


  energy-cutoff  :      360.00
  volume of cell :      184.86
      direct lattice vectors                 reciprocal lattice vectors
     3.858100176  0.000000000  0.000000000     0.259194929  0.000000000  0.000000000
     0.000000000  4.526575088  0.000000000     0.000000000  0.220917577  0.000000000
     0.000000000  0.000000000 10.585176468     0.000000000  0.000000000  0.094471736

  length of vectors
     3.858100176  4.526575088 10.585176468     0.259194929  0.220917577  0.094471736


 
 k-points in units of 2pi/SCALE and weight: KPOINTS created by Atomic Simulation Env
   0.00000000  0.00000000  0.00000000       0.014
   0.04319915  0.00000000  0.00000000       0.028
   0.08639831  0.00000000  0.00000000       0.028
   0.12959746  0.00000000  0.00000000       0.014
   0.00000000  0.03681960  0.00000000       0.028
   0.04319915  0.03681960  0.00000000       0.028
   0.04319915 -0.03681960  0.00000000       0.028
   0.08639831  0.03681960  0.00000000       0.028
   0.08639831 -0.03681960  0.00000000       0.028
   0.12959746  0.03681960  0.00000000       0.028
   0.00000000  0.07363919  0.00000000       0.028
   0.04319915  0.07363919  0.00000000       0.028
   0.04319915 -0.07363919  0.00000000       0.028
   0.08639831  0.07363919  0.00000000       0.028
   0.08639831 -0.07363919  0.00000000       0.028
   0.12959746  0.07363919  0.00000000       0.028
   0.00000000  0.11045879  0.00000000       0.014
   0.04319915  0.11045879  0.00000000       0.028
   0.08639831  0.11045879  0.00000000       0.028
   0.12959746  0.11045879  0.00000000       0.014
   0.00000000  0.00000000  0.04723587       0.014
   0.04319915  0.00000000  0.04723587       0.028
   0.08639831  0.00000000  0.04723587       0.028
   0.12959746  0.00000000  0.04723587       0.014
   0.00000000  0.03681960  0.04723587       0.028
   0.04319915  0.03681960  0.04723587       0.028
   0.04319915 -0.03681960  0.04723587       0.028
   0.08639831  0.03681960  0.04723587       0.028
   0.08639831 -0.03681960  0.04723587       0.028
   0.12959746  0.03681960  0.04723587       0.028
   0.00000000  0.07363919  0.04723587       0.028
   0.04319915  0.07363919  0.04723587       0.028
   0.04319915 -0.07363919  0.04723587       0.028
   0.08639831  0.07363919  0.04723587       0.028
   0.08639831 -0.07363919  0.04723587       0.028
   0.12959746  0.07363919  0.04723587       0.028
   0.00000000  0.11045879  0.04723587       0.014
   0.04319915  0.11045879  0.04723587       0.028
   0.08639831  0.11045879  0.04723587       0.028
   0.12959746  0.11045879  0.04723587       0.014
 
 k-points in reciprocal lattice and weights: KPOINTS created by Atomic Simulation Env
   0.00000000  0.00000000  0.00000000       0.014
   0.16666667  0.00000000  0.00000000       0.028
   0.33333333  0.00000000  0.00000000       0.028
   0.50000000  0.00000000  0.00000000       0.014
   0.00000000  0.16666667  0.00000000       0.028
   0.16666667  0.16666667  0.00000000       0.028
   0.16666667 -0.16666667  0.00000000       0.028
   0.33333333  0.16666667  0.00000000       0.028
   0.33333333 -0.16666667  0.00000000       0.028
   0.50000000  0.16666667  0.00000000       0.028
   0.00000000  0.33333333  0.00000000       0.028
   0.16666667  0.33333333  0.00000000       0.028
   0.16666667 -0.33333333  0.00000000       0.028
   0.33333333  0.33333333  0.00000000       0.028
   0.33333333 -0.33333333  0.00000000       0.028
   0.50000000  0.33333333  0.00000000       0.028
   0.00000000  0.50000000  0.00000000       0.014
   0.16666667  0.50000000  0.00000000       0.028
   0.33333333  0.50000000  0.00000000       0.028
   0.50000000  0.50000000  0.00000000       0.014
   0.00000000  0.00000000  0.50000000       0.014
   0.16666667  0.00000000  0.50000000       0.028
   0.33333333  0.00000000  0.50000000       0.028
   0.50000000  0.00000000  0.50000000       0.014
   0.00000000  0.16666667  0.50000000       0.028
   0.16666667  0.16666667  0.50000000       0.028
   0.16666667 -0.16666667  0.50000000       0.028
   0.33333333  0.16666667  0.50000000       0.028
   0.33333333 -0.16666667  0.50000000       0.028
   0.50000000  0.16666667  0.50000000       0.028
   0.00000000  0.33333333  0.50000000       0.028
   0.16666667  0.33333333  0.50000000       0.028
   0.16666667 -0.33333333  0.50000000       0.028
   0.33333333  0.33333333  0.50000000       0.028
   0.33333333 -0.33333333  0.50000000       0.028
   0.50000000  0.33333333  0.50000000       0.028
   0.00000000  0.50000000  0.50000000       0.014
   0.16666667  0.50000000  0.50000000       0.028
   0.33333333  0.50000000  0.50000000       0.028
   0.50000000  0.50000000  0.50000000       0.014
 
 position of ions in fractional coordinates (direct lattice) 
   0.74999969  0.30760192  0.11629323
   0.24999973  0.80760195  0.38370666
   0.74999953  0.88080355  0.88370670
   0.24999891  0.38080359  0.61629330
   0.74999976  0.18334701  0.35452175
   0.24999964  0.68334711  0.14547826
   0.74999912  0.00505836  0.64547820
   0.24999942  0.50505845  0.85452174
 
 position of ions in cartesian coordinates  (Angst):
   2.89357392  1.39238319  1.23098441
   0.96452401  3.65567085  4.06160274
   2.89357331  3.98702340  9.35419135
   0.96452085  1.72373604  6.52357335
   2.89357419  0.82993400  3.75267533
   0.96452364  3.09322200  1.53991301
   2.89357173  0.02289706  6.83250071
   0.96452282  2.28618498  9.04526339
 


--------------------------------------------------------------------------------------------------------


 k-point   1 :   0.0000 0.0000 0.0000  plane waves:    2825
 k-point   2 :   0.1667 0.0000 0.0000  plane waves:    2856
 k-point   3 :   0.3333 0.0000 0.0000  plane waves:    2864
 k-point   4 :   0.5000 0.0000 0.0000  plane waves:    2880
 k-point   5 :   0.0000 0.1667 0.0000  plane waves:    2850
 k-point   6 :   0.1667 0.1667 0.0000  plane waves:    2853
 k-point   7 :   0.1667-0.1667 0.0000  plane waves:    2853
 k-point   8 :   0.3333 0.1667 0.0000  plane waves:    2873
 k-point   9 :   0.3333-0.1667 0.0000  plane waves:    2873
 k-point  10 :   0.5000 0.1667 0.0000  plane waves:    2866
 k-point  11 :   0.0000 0.3333 0.0000  plane waves:    2864
 k-point  12 :   0.1667 0.3333 0.0000  plane waves:    2871
 k-point  13 :   0.1667-0.3333 0.0000  plane waves:    2871
 k-point  14 :   0.3333 0.3333 0.0000  plane waves:    2883
 k-point  15 :   0.3333-0.3333 0.0000  plane waves:    2883
 k-point  16 :   0.5000 0.3333 0.0000  plane waves:    2880
 k-point  17 :   0.0000 0.5000 0.0000  plane waves:    2874
 k-point  18 :   0.1667 0.5000 0.0000  plane waves:    2880
 k-point  19 :   0.3333 0.5000 0.0000  plane waves:    2888
 k-point  20 :   0.5000 0.5000 0.0000  plane waves:    2896
 k-point  21 :   0.0000 0.0000 0.5000  plane waves:    2828
 k-point  22 :   0.1667 0.0000 0.5000  plane waves:    2838
 k-point  23 :   0.3333 0.0000 0.5000  plane waves:    2868
 k-point  24 :   0.5000 0.0000 0.5000  plane waves:    2852
 k-point  25 :   0.0000 0.1667 0.5000  plane waves:    2846
 k-point  26 :   0.1667 0.1667 0.5000  plane waves:    2868
 k-point  27 :   0.1667-0.1667 0.5000  plane waves:    2868
 k-point  28 :   0.3333 0.1667 0.5000  plane waves:    2866
 k-point  29 :   0.3333-0.1667 0.5000  plane waves:    2866
 k-point  30 :   0.5000 0.1667 0.5000  plane waves:    2884
 k-point  31 :   0.0000 0.3333 0.5000  plane waves:    2852
 k-point  32 :   0.1667 0.3333 0.5000  plane waves:    2862
 k-point  33 :   0.1667-0.3333 0.5000  plane waves:    2862
 k-point  34 :   0.3333 0.3333 0.5000  plane waves:    2874
 k-point  35 :   0.3333-0.3333 0.5000  plane waves:    2874
 k-point  36 :   0.5000 0.3333 0.5000  plane waves:    2892
 k-point  37 :   0.0000 0.5000 0.5000  plane waves:    2872
 k-point  38 :   0.1667 0.5000 0.5000  plane waves:    2856
 k-point  39 :   0.3333 0.5000 0.5000  plane waves:    2876
 k-point  40 :   0.5000 0.5000 0.5000  plane waves:    2872

 maximum and minimum number of plane-waves per node :       592      553

 maximum number of plane-waves:      2896
 maximum index in each direction: 
   IXMAX=    5   IYMAX=    7   IZMAX=   16
   IXMIN=   -6   IYMIN=   -7   IZMIN=  -16


 parallel 3D FFT for wavefunctions:
    minimum data exchange during FFTs selected (reduces bandwidth)
 parallel 3D FFT for charge:
    minimum data exchange during FFTs selected (reduces bandwidth)


 total amount of memory used by VASP MPI-rank0    36587. kBytes
=======================================================================

   base      :      30000. kBytes
   nonl-proj :       5001. kBytes
   fftplans  :        306. kBytes
   grid      :        466. kBytes
   one-center:         16. kBytes
   wavefun   :        798. kBytes
 
     INWAV:  cpu time      0.0000: real time      0.0001
 Broyden mixing: mesh for mixing (old mesh)
   NGX = 11   NGY = 15   NGZ = 33
  (NGX  = 36   NGY  = 48   NGZ  =100)
  gives a total of   5445 points

 initial charge density was supplied:
 charge density of overlapping atoms calculated
 number of electron      40.0000000 magnetization 
 keeping initial charge density in first step


--------------------------------------------------------------------------------------------------------


 Maximum index for augmentation-charges           134 (set IRDMAX)


--------------------------------------------------------------------------------------------------------


 First call to EWALD:  gamma=   0.311
 Maximum number of real-space cells 4x 3x 2
 Maximum number of reciprocal cells 2x 2x 5

    FEWALD:  cpu time      0.0010: real time      0.0011


--------------------------------------- Ionic step        1  -------------------------------------------




--------------------------------------- Iteration      1(   1)  ---------------------------------------


    POTLOK:  cpu time      0.0079: real time      0.0080
    SETDIJ:  cpu time      0.2182: real time      0.2187
     EDDAV:  cpu time      0.3060: real time      0.3078
       DOS:  cpu time      0.0010: real time      0.0010
    --------------------------------------------
      LOOP:  cpu time      0.5332: real time      0.5355

 eigenvalue-minimisations  :  2560
 total energy-change (2. order) : 0.1313204E+03  (-0.1299508E+04)
 number of electron      40.0000000 magnetization 
 augmentation part       40.0000000 magnetization 

 Free energy of the ion-electron system (eV)
  ---------------------------------------------------
  alpha Z        PSCENC =        91.66130333
  Ewald energy   TEWEN  =     -1446.23323522
  -Hartree energ DENC   =      -118.75714667
  -exchange      EXHF   =         0.00000000
  -V(xc)+E(xc)   XCENC  =       -32.81159503
  PAW double counting   =      1193.78262552    -1080.73714043
  entropy T*S    EENTRO =        -0.00290762
  eigenvalues    EBANDS =        75.93387953
  atomic energy  EATOM  =      1448.48460880
  Solvation  Ediel_sol  =         0.00000000
  ---------------------------------------------------
  free energy    TOTEN  =       131.32039220 eV

  energy without entropy =      131.32329982  energy(sigma->0) =      131.32184601


--------------------------------------------------------------------------------------------------------




--------------------------------------- Iteration      1(   2)  ---------------------------------------


     EDDAV:  cpu time      0.4317: real time      0.4354
       DOS:  cpu time      0.0006: real time      0.0006
    --------------------------------------------
      LOOP:  cpu time      0.4323: real time      0.4360

 eigenvalue-minimisations  :  3760
 total energy-change (2. order) :-0.1564769E+03  (-0.1518997E+03)
 number of electron      40.0000000 magnetization 
 augmentation part       40.0000000 magnetization 

 Free energy of the ion-electron system (eV)
  ---------------------------------------------------
  alpha Z        PSCENC =        91.66130333
  Ewald energy   TEWEN  =     -1446.23323522
  -Hartree energ DENC   =      -118.75714667
  -exchange      EXHF   =         0.00000000
  -V(xc)+E(xc)   XCENC  =       -32.81159503
  PAW double counting   =      1193.78262552    -1080.73714043
  entropy T*S    EENTRO =        -0.00000000
  eigenvalues    EBANDS =       -80.54593349
  atomic energy  EATOM  =      1448.48460880
  Solvation  Ediel_sol  =         0.00000000
  ---------------------------------------------------
  free energy    TOTEN  =       -25.15651320 eV

  energy without entropy =      -25.15651320  energy(sigma->0) =      -25.15651320


--------------------------------------------------------------------------------------------------------




--------------------------------------- Iteration      1(   3)  ---------------------------------------


     EDDAV:  cpu time      0.3668: real time      0.3684
       DOS:  cpu time      0.0005: real time      0.0005
    --------------------------------------------
      LOOP:  cpu time      0.3673: real time      0.3690

 eigenvalue-minimisations  :  3232
 total energy-change (2. order) :-0.8393301E+01  (-0.8377410E+01)
 number of electron      40.0000000 magnetization 
 augmentation part       40.0000000 magnetization 

 Free energy of the ion-electron system (eV)
  ---------------------------------------------------
  alpha Z        PSCENC =        91.66130333
  Ewald energy   TEWEN  =     -1446.23323522
  -Hartree energ DENC   =      -118.75714667
  -exchange      EXHF   =         0.00000000
  -V(xc)+E(xc)   XCENC  =       -32.81159503
  PAW double counting   =      1193.78262552    -1080.73714043
  entropy T*S    EENTRO =        -0.00000000
  eigenvalues    EBANDS =       -88.93923484
  atomic energy  EATOM  =      1448.48460880
  Solvation  Ediel_sol  =         0.00000000
  ---------------------------------------------------
  free energy    TOTEN  =       -33.54981455 eV

  energy without entropy =      -33.54981455  energy(sigma->0) =      -33.54981455


--------------------------------------------------------------------------------------------------------




--------------------------------------- Iteration      1(   4)  ---------------------------------------


     EDDAV:  cpu time      0.3815: real time      0.3836
       DOS:  cpu time      0.0005: real time      0.0005
    --------------------------------------------
      LOOP:  cpu time      0.3820: real time      0.3841

 eigenvalue-minimisations  :  3264
 total energy-change (2. order) :-0.5137936E-01  (-0.5137298E-01)
 number of electron      40.0000000 magnetization 
 augmentation part       40.0000000 magnetization 

 Free energy of the ion-electron system (eV)
  ---------------------------------------------------
  alpha Z        PSCENC =        91.66130333
  Ewald energy   TEWEN  =     -1446.23323522
  -Hartree energ DENC   =      -118.75714667
  -exchange      EXHF   =         0.00000000
  -V(xc)+E(xc)   XCENC  =       -32.81159503
  PAW double counting   =      1193.78262552    -1080.73714043
  entropy T*S    EENTRO =        -0.00000000
  eigenvalues    EBANDS =       -88.99061420
  atomic energy  EATOM  =      1448.48460880
  Solvation  Ediel_sol  =         0.00000000
  ---------------------------------------------------
  free energy    TOTEN  =       -33.60119391 eV

  energy without entropy =      -33.60119391  energy(sigma->0) =      -33.60119391


--------------------------------------------------------------------------------------------------------




--------------------------------------- Iteration      1(   5)  ---------------------------------------


     EDDAV:  cpu time      0.3684: real time      0.3712
       DOS:  cpu time      0.0005: real time      0.0005
    CHARGE:  cpu time      0.0053: real time      0.0054
    MIXING:  cpu time      0.0004: real time      0.0004
    --------------------------------------------
      LOOP:  cpu time      0.3746: real time      0.3775

 eigenvalue-minimisations  :  3216
 total energy-change (2. order) :-0.2934388E-03  (-0.2934367E-03)
 number of electron      40.0000031 magnetization 
 augmentation part       -7.4375823 magnetization 

 Broyden mixing:
  rms(total) = 0.68089E+00    rms(broyden)= 0.68088E+00
  rms(prec ) = 0.76268E+00
  weight for this iteration     100.00

 Free energy of the ion-electron system (eV)
  ---------------------------------------------------
  alpha Z        PSCENC =        91.66130333
  Ewald energy   TEWEN  =     -1446.23323522
  -Hartree energ DENC   =      -118.75714667
  -exchange      EXHF   =         0.00000000
  -V(xc)+E(xc)   XCENC  =       -32.81159503
  PAW double counting   =      1193.78262552    -1080.73714043
  entropy T*S    EENTRO =        -0.00000000
  eigenvalues    EBANDS =       -88.99090764
  atomic energy  EATOM  =      1448.48460880
  Solvation  Ediel_sol  =         0.00000000
  ---------------------------------------------------
  free energy    TOTEN  =       -33.60148735 eV

  energy without entropy =      -33.60148735  energy(sigma->0) =      -33.60148735


--------------------------------------------------------------------------------------------------------




--------------------------------------- Iteration      1(   6)  ---------------------------------------


    POTLOK:  cpu time      0.0074: real time      0.0075
    SETDIJ:  cpu time      0.2155: real time      0.2160
     EDDAV:  cpu time      0.3577: real time      0.3594
       DOS:  cpu time      0.0005: real time      0.0005
    CHARGE:  cpu time      0.0052: real time      0.0052
    MIXING:  cpu time      0.0004: real time      0.0004
    --------------------------------------------
      LOOP:  cpu time      0.5867: real time      0.5890

 eigenvalue-minimisations  :  3104
 total energy-change (2. order) : 0.3521494E+00  (-0.6910617E-01)
 number of electron      40.0000031 magnetization 
 augmentation part       -7.3851775 magnetization 

 Broyden mixing:
  rms(total) = 0.42638E+00    rms(broyden)= 0.42638E+00
  rms(prec ) = 0.44898E+00
  weight for this iteration     100.00

 eigenvalues of (default mixing * dielectric matrix)
  average eigenvalue GAMMA=   2.2819
  2.2819

 Free energy of the ion-electron system (eV)
  ---------------------------------------------------
  alpha Z        PSCENC =        91.66130333
  Ewald energy   TEWEN  =     -1446.23323522
  -Hartree energ DENC   =      -124.45819469
  -exchange      EXHF   =         0.00000000
  -V(xc)+E(xc)   XCENC  =       -32.23572234
  PAW double counting   =      1472.80182561    -1360.08485777
  entropy T*S    EENTRO =        -0.00000000
  eigenvalues    EBANDS =       -83.18506562
  atomic energy  EATOM  =      1448.48460880
  Solvation  Ediel_sol  =         0.00000000
  ---------------------------------------------------
  free energy    TOTEN  =       -33.24933790 eV

  energy without entropy =      -33.24933790  energy(sigma->0) =      -33.24933790


--------------------------------------------------------------------------------------------------------




--------------------------------------- Iteration      1(   7)  ---------------------------------------


    POTLOK:  cpu time      0.0087: real time      0.0089
    SETDIJ:  cpu time      0.2145: real time      0.2155
     EDDAV:  cpu time      0.3488: real time      0.3506
       DOS:  cpu time      0.0005: real time      0.0005
    CHARGE:  cpu time      0.0051: real time      0.0051
    MIXING:  cpu time      0.0004: real time      0.0004
    --------------------------------------------
      LOOP:  cpu time      0.5781: real time      0.5810

 eigenvalue-minimisations  :  3072
 total energy-change (2. order) : 0.1782765E-01  (-0.2218743E-01)
 number of electron      40.0000031 magnetization 
 augmentation part       -7.3684241 magnetization 

 Broyden mixing:
  rms(total) = 0.12336E+00    rms(broyden)= 0.12336E+00
  rms(prec ) = 0.13213E+00
  weight for this iteration     100.00

 eigenvalues of (default mixing * dielectric matrix)
  average eigenvalue GAMMA=   1.8149
  1.2033  2.4265

 Free energy of the ion-electron system (eV)
  ---------------------------------------------------
  alpha Z        PSCENC =        91.66130333
  Ewald energy   TEWEN  =     -1446.23323522
  -Hartree energ DENC   =      -127.30923131
  -exchange      EXHF   =         0.00000000
  -V(xc)+E(xc)   XCENC  =       -31.75634320
  PAW double counting   =      1836.90782891    -1724.45934322
  entropy T*S    EENTRO =        -0.00000000
  eigenvalues    EBANDS =       -80.52709834
  atomic energy  EATOM  =      1448.48460880
  Solvation  Ediel_sol  =         0.00000000
  ---------------------------------------------------
  free energy    TOTEN  =       -33.23151026 eV

  energy without entropy =      -33.23151026  energy(sigma->0) =      -33.23151026


--------------------------------------------------------------------------------------------------------




--------------------------------------- Iteration      1(   8)  ---------------------------------------


    POTLOK:  cpu time      0.0072: real time      0.0073
    SETDIJ:  cpu time      0.2155: real time      0.2160
     EDDAV:  cpu time      0.3864: real time      0.3887
       DOS:  cpu time      0.0006: real time      0.0006
    CHARGE:  cpu time      0.0053: real time      0.0054
    MIXING:  cpu time      0.0005: real time      0.0005
    --------------------------------------------
      LOOP:  cpu time      0.6156: real time      0.6185

 eigenvalue-minimisations  :  2960
 total energy-change (2. order) : 0.1906425E-02  (-0.2165260E-02)
 number of electron      40.0000031 magnetization 
 augmentation part       -7.3770920 magnetization 

 Broyden mixing:
  rms(total) = 0.16821E-01    rms(broyden)= 0.16821E-01
  rms(prec ) = 0.20821E-01
  weight for this iteration     100.00

 eigenvalues of (default mixing * dielectric matrix)
  average eigenvalue GAMMA=   1.7096
  2.4965  1.3161  1.3161

 Free energy of the ion-electron system (eV)
  ---------------------------------------------------
  alpha Z        PSCENC =        91.66130333
  Ewald energy   TEWEN  =     -1446.23323522
  -Hartree energ DENC   =      -127.33322682
  -exchange      EXHF   =         0.00000000
  -V(xc)+E(xc)   XCENC  =       -31.63816944
  PAW double counting   =      1972.85189395    -1860.46170126
  entropy T*S    EENTRO =        -0.00000000
  eigenvalues    EBANDS =       -80.56107718
  atomic energy  EATOM  =      1448.48460880
  Solvation  Ediel_sol  =         0.00000000
  ---------------------------------------------------
  free energy    TOTEN  =       -33.22960383 eV

  energy without entropy =      -33.22960383  energy(sigma->0) =      -33.22960383


--------------------------------------------------------------------------------------------------------




--------------------------------------- Iteration      1(   9)  ---------------------------------------


    POTLOK:  cpu time      0.0074: real time      0.0077
    SETDIJ:  cpu time      0.2156: real time      0.2160
     EDDAV:  cpu time      0.3612: real time      0.3628
       DOS:  cpu time      0.0005: real time      0.0006
    CHARGE:  cpu time      0.0053: real time      0.0053
    MIXING:  cpu time      0.0005: real time      0.0005
    --------------------------------------------
      LOOP:  cpu time      0.5904: real time      0.5928

 eigenvalue-minimisations  :  3056
 total energy-change (2. order) :-0.2160193E-03  (-0.3211673E-03)
 number of electron      40.0000031 magnetization 
 augmentation part       -7.3756990 magnetization 

 Broyden mixing:
  rms(total) = 0.59049E-02    rms(broyden)= 0.59049E-02
  rms(prec ) = 0.67821E-02
  weight for this iteration     100.00

 eigenvalues of (default mixing * dielectric matrix)
  average eigenvalue GAMMA=   1.6998
  2.2331  2.2331  1.1665  1.1665

 Free energy of the ion-electron system (eV)
  ---------------------------------------------------
  alpha Z        PSCENC =        91.66130333
  Ewald energy   TEWEN  =     -1446.23323522
  -Hartree energ DENC   =      -127.63960144
  -exchange      EXHF   =         0.00000000
  -V(xc)+E(xc)   XCENC  =       -31.60645613
  PAW double counting   =      1983.27777023    -1870.89428963
  entropy T*S    EENTRO =        -0.00000000
  eigenvalues    EBANDS =       -80.27991978
  atomic energy  EATOM  =      1448.48460880
  Solvation  Ediel_sol  =         0.00000000
  ---------------------------------------------------
  free energy    TOTEN  =       -33.22981985 eV

  energy without entropy =      -33.22981985  energy(sigma->0) =      -33.22981985


--------------------------------------------------------------------------------------------------------




--------------------------------------- Iteration      1(  10)  ---------------------------------------


    POTLOK:  cpu time      0.0073: real time      0.0074
    SETDIJ:  cpu time      0.2155: real time      0.2160
     EDDAV:  cpu time      0.3710: real time      0.3732
       DOS:  cpu time      0.0005: real time      0.0005
    CHARGE:  cpu time      0.0052: real time      0.0053
    MIXING:  cpu time      0.0005: real time      0.0005
    --------------------------------------------
      LOOP:  cpu time      0.6000: real time      0.6029

 eigenvalue-minimisations  :  3168
 total energy-change (2. order) :-0.8787737E-04  (-0.2413922E-04)
 number of electron      40.0000031 magnetization 
 augmentation part       -7.3757170 magnetization 

 Broyden mixing:
  rms(total) = 0.22107E-02    rms(broyden)= 0.22107E-02
  rms(prec ) = 0.27898E-02
  weight for this iteration     100.00

 eigenvalues of (default mixing * dielectric matrix)
  average eigenvalue GAMMA=   1.7575
  2.6278  2.5243  1.0745  1.2804  1.2804

 Free energy of the ion-electron system (eV)
  ---------------------------------------------------
  alpha Z        PSCENC =        91.66130333
  Ewald energy   TEWEN  =     -1446.23323522
  -Hartree energ DENC   =      -127.67140040
  -exchange      EXHF   =         0.00000000
  -V(xc)+E(xc)   XCENC  =       -31.60319449
  PAW double counting   =      1978.29520006    -1865.90745901
  entropy T*S    EENTRO =        -0.00000000
  eigenvalues    EBANDS =       -80.25573080
  atomic energy  EATOM  =      1448.48460880
  Solvation  Ediel_sol  =         0.00000000
  ---------------------------------------------------
  free energy    TOTEN  =       -33.22990773 eV

  energy without entropy =      -33.22990773  energy(sigma->0) =      -33.22990773


--------------------------------------------------------------------------------------------------------




--------------------------------------- Iteration      1(  11)  ---------------------------------------


    POTLOK:  cpu time      0.0072: real time      0.0074
    SETDIJ:  cpu time      0.2156: real time      0.2160
     EDDAV:  cpu time      0.3206: real time      0.3222
       DOS:  cpu time      0.0005: real time      0.0005
    CHARGE:  cpu time      0.0051: real time      0.0051
    MIXING:  cpu time      0.0005: real time      0.0005
    --------------------------------------------
      LOOP:  cpu time      0.5495: real time      0.5517

 eigenvalue-minimisations  :  2784
 total energy-change (2. order) :-0.2735988E-04  (-0.3959205E-05)
 number of electron      40.0000031 magnetization 
 augmentation part       -7.3759564 magnetization 

 Broyden mixing:
  rms(total) = 0.10807E-02    rms(broyden)= 0.10807E-02
  rms(prec ) = 0.12553E-02
  weight for this iteration     100.00

 eigenvalues of (default mixing * dielectric matrix)
  average eigenvalue GAMMA=   1.7311
  2.5479  2.5479  1.9920  0.9470  1.1760  1.1760

 Free energy of the ion-electron system (eV)
  ---------------------------------------------------
  alpha Z        PSCENC =        91.66130333
  Ewald energy   TEWEN  =     -1446.23323522
  -Hartree energ DENC   =      -127.69257046
  -exchange      EXHF   =         0.00000000
  -V(xc)+E(xc)   XCENC  =       -31.59806650
  PAW double counting   =      1979.15274659    -1866.76479288
  entropy T*S    EENTRO =        -0.00000000
  eigenvalues    EBANDS =       -80.23992874
  atomic energy  EATOM  =      1448.48460880
  Solvation  Ediel_sol  =         0.00000000
  ---------------------------------------------------
  free energy    TOTEN  =       -33.22993509 eV

  energy without entropy =      -33.22993509  energy(sigma->0) =      -33.22993509


--------------------------------------------------------------------------------------------------------




--------------------------------------- Iteration      1(  12)  ---------------------------------------


    POTLOK:  cpu time      0.0072: real time      0.0074
    SETDIJ:  cpu time      0.2198: real time      0.2204
     EDDAV:  cpu time      0.3846: real time      0.3863
       DOS:  cpu time      0.0024: real time      0.0024
    --------------------------------------------
      LOOP:  cpu time      0.6140: real time      0.6165

 eigenvalue-minimisations  :  3392
 total energy-change (2. order) :-0.4431991E-06  (-0.5823280E-06)
 number of electron      40.0000031 magnetization 
 augmentation part       -7.3759564 magnetization 

 Free energy of the ion-electron system (eV)
  ---------------------------------------------------
  alpha Z        PSCENC =        91.66130333
  Ewald energy   TEWEN  =     -1446.23323522
  -Hartree energ DENC   =      -127.70780204
  -exchange      EXHF   =         0.00000000
  -V(xc)+E(xc)   XCENC  =       -31.59701030
  PAW double counting   =      1978.44140638    -1866.05328482
  entropy T*S    EENTRO =        -0.00000000
  eigenvalues    EBANDS =       -80.22592167
  atomic energy  EATOM  =      1448.48460880
  Solvation  Ediel_sol  =         0.00000000
  ---------------------------------------------------
  free energy    TOTEN  =       -33.22993553 eV

  energy without entropy =      -33.22993553  energy(sigma->0) =      -33.22993553


--------------------------------------------------------------------------------------------------------




 average (electrostatic) potential at core
  the test charge radii are     1.1631  1.0808
  (the norm of the test charge is              1.0000)
       1 -33.0212       2 -33.0212       3 -33.0212       4 -33.0212       5 -54.5894
       6 -54.5894       7 -54.5894       8 -54.5894
 
 
 
 E-fermi :   4.1060     XC(G=0):  -9.5054     alpha+bet : -9.1315

 Fermi energy:         4.1060415480

 k-point     1 :       0.0000    0.0000    0.0000
  band No.  band energies     occupation 
      1     -10.7938      2.00000
      2     -10.2137      2.00000
      3      -9.5634      2.00000
      4      -8.6760      2.00000
      5      -4.4773      2.00000
      6      -3.7805      2.00000
      7      -2.3174      2.00000
      8      -1.8922      2.00000
      9      -1.8384      2.00000
     10      -0.2379      2.00000
     11       0.3168      2.00000
     12       0.4654      2.00000
     13       0.7804      2.00000
     14       0.9633      2.00000
     15       1.5011      2.00000
     16       1.5157      2.00000
     17       2.4516      2.00000
     18       2.5142      2.00000
     19       3.1214      2.00000
     20       3.8444      2.00000
     21       4.3642      0.00000
     22       5.6992      0.00000
     23       5.7928      0.00000
     24       6.5743      0.00000
     25       7.3108      0.00000
     26       7.4005      0.00000
     27       7.4539      0.00000
     28       7.6487      0.00000
     29       8.2759      0.00000
     30       8.3849      0.00000
     31       8.8737      0.00000
     32       8.9755      0.00000

 k-point     2 :       0.1667    0.0000    0.0000
  band No.  band energies     occupation 
      1     -10.6032      2.00000
      2     -10.0341      2.00000
      3      -9.4465      2.00000
      4      -8.6210      2.00000
      5      -4.7840      2.00000
      6      -3.9065      2.00000
      7      -2.9023      2.00000
      8      -2.1716      2.00000
      9      -1.7115      2.00000
     10      -0.0290      2.00000
     11       0.0449      2.00000
     12       0.2027      2.00000
     13       0.8440      2.00000
     14       1.0770      2.00000
     15       1.4297      2.00000
     16       1.7618      2.00000
     17       1.9319      2.00000
     18       2.3992      2.00000
     19       3.3430      2.00000
     20       3.8056      2.00000
     21       4.4722      0.00000
     22       6.0168      0.00000
     23       6.1612      0.00000
     24       6.2166      0.00000
     25       6.5832      0.00000
     26       7.0322      0.00000
     27       7.6603      0.00000
     28       7.8456      0.00000
     29       7.8527      0.00000
     30       8.0111      0.00000
     31       8.4003      0.00000
     32       8.9521      0.00000

 k-point     3 :       0.3333    0.0000    0.0000
  band No.  band energies     occupation 
      1     -10.0875      2.00000
      2      -9.5482      2.00000
      3      -9.2658      2.00000
      4      -8.6131      2.00000
      5      -5.3598      2.00000
      6      -4.2271      2.00000
      7      -4.1374      2.00000
      8      -3.0229      2.00000
      9      -1.1344      2.00000
     10      -0.1088      2.00000
     11       0.1626      2.00000
     12       0.6505      2.00000
     13       0.9554      2.00000
     14       1.5062      2.00000
     15       1.7088      2.00000
     16       1.8457      2.00000
     17       1.8583      2.00000
     18       1.9137      2.00000
     19       2.9705      2.00000
     20       3.5032      2.00000
     21       4.4901      0.00000
     22       4.7751      0.00000
     23       5.5480      0.00000
     24       5.6263      0.00000
     25       5.8695      0.00000
     26       5.9885      0.00000
     27       6.4702      0.00000
     28       6.7743      0.00000
     29       7.4455      0.00000
     30       7.7647      0.00000
     31       8.6679      0.00000
     32       9.6945      0.00000

 k-point     4 :       0.5000    0.0000    0.0000
  band No.  band energies     occupation 
      1      -9.4840      2.00000
      2      -9.4840      2.00000
      3      -8.9554      2.00000
      4      -8.9554      2.00000
      5      -5.2633      2.00000
      6      -5.2633      2.00000
      7      -3.8881      2.00000
      8      -3.8881      2.00000
      9      -0.3823      2.00000
     10      -0.3823      2.00000
     11       0.7059      2.00000
     12       0.7059      2.00000
     13       1.5004      2.00000
     14       1.5004      2.00000
     15       1.6464      2.00000
     16       1.6464      2.00000
     17       1.8618      2.00000
     18       1.8618      2.00000
     19       2.8942      2.00000
     20       2.8942      2.00000
     21       4.3408      0.00000
     22       4.3408      0.00000
     23       5.4180      0.00000
     24       5.4180      0.00000
     25       5.5192      0.00000
     26       5.5192      0.00000
     27       6.4347      0.00000
     28       6.4347      0.00000
     29       6.4697      0.00000
     30       6.4697      0.00000
     31       9.3453      0.00000
     32       9.3453      0.00000

 k-point     5 :       0.0000    0.1667    0.0000
  band No.  band energies     occupation 
      1     -10.6814      2.00000
      2     -10.1016      2.00000
      3      -9.5768      2.00000
      4      -8.7441      2.00000
      5      -4.7706      2.00000
      6      -3.8818      2.00000
      7      -3.0373      2.00000
      8      -2.3745      2.00000
      9      -1.4843      2.00000
     10       0.2102      2.00000
     11       0.4527      2.00000
     12       0.7391      2.00000
     13       1.0949      2.00000
     14       1.1746      2.00000
     15       1.5352      2.00000
     16       2.0873      2.00000
     17       2.1105      2.00000
     18       2.4326      2.00000
     19       3.3702      2.00000
     20       3.8581      2.00000
     21       4.6886      0.00000
     22       5.2041      0.00000
     23       5.6727      0.00000
     24       6.6340      0.00000
     25       6.7138      0.00000
     26       6.7248      0.00000
     27       7.4380      0.00000
     28       7.8674      0.00000
     29       7.8900      0.00000
     30       7.9399      0.00000
     31       8.8105      0.00000
     32       9.2256      0.00000

 k-point     6 :       0.1667    0.1667    0.0000
  band No.  band energies     occupation 
      1     -10.4961      2.00000
      2      -9.9280      2.00000
      3      -9.4609      2.00000
      4      -8.6823      2.00000
      5      -4.8864      2.00000
      6      -3.9810      2.00000
      7      -3.2391      2.00000
      8      -2.6170      2.00000
      9      -1.4135      2.00000
     10      -0.3892      2.00000
     11      -0.2921      2.00000
     12       0.5489      2.00000
     13       0.9887      2.00000
     14       1.4235      2.00000
     15       1.5853      2.00000
     16       1.8726      2.00000
     17       2.2429      2.00000
     18       2.2908      2.00000
     19       3.3330      2.00000
     20       3.6632      2.00000
     21       4.8114      0.00000
     22       5.5649      0.00000
     23       5.8583      0.00000
     24       5.9077      0.00000
     25       6.7326      0.00000
     26       7.1795      0.00000
     27       7.3620      0.00000
     28       7.8318      0.00000
     29       8.0370      0.00000
     30       8.2067      0.00000
     31       8.2232      0.00000
     32       8.8874      0.00000

 k-point     7 :       0.1667   -0.1667    0.0000
  band No.  band energies     occupation 
      1     -10.4961      2.00000
      2      -9.9280      2.00000
      3      -9.4609      2.00000
      4      -8.6823      2.00000
      5      -4.8864      2.00000
      6      -3.9810      2.00000
      7      -3.2391      2.00000
      8      -2.6170      2.00000
      9      -1.4135      2.00000
     10      -0.3892      2.00000
     11      -0.2921      2.00000
     12       0.5489      2.00000
     13       0.9887      2.00000
     14       1.4235      2.00000
     15       1.5853      2.00000
     16       1.8726      2.00000
     17       2.2429      2.00000
     18       2.2908      2.00000
     19       3.3330      2.00000
     20       3.6632      2.00000
     21       4.8114      0.00000
     22       5.5649      0.00000
     23       5.8583      0.00000
     24       5.9077      0.00000
     25       6.7326      0.00000
     26       7.1795      0.00000
     27       7.3620      0.00000
     28       7.8318      0.00000
     29       8.0370      0.00000
     30       8.2067      0.00000
     31       8.2232      0.00000
     32       8.8874      0.00000

 k-point     8 :       0.3333    0.1667    0.0000
  band No.  band energies     occupation 
      1     -10.0008      2.00000
      2      -9.4645      2.00000
      3      -9.2714      2.00000
      4      -8.6419      2.00000
      5      -5.2402      2.00000
      6      -4.2023      2.00000
      7      -4.1243      2.00000
      8      -3.1968      2.00000
      9      -0.9752      2.00000
     10      -0.7790      2.00000
     11      -0.4631      2.00000
     12       0.3022      2.00000
     13       1.0455      2.00000
     14       1.1287      2.00000
     15       1.2931      2.00000
     16       1.7299      2.00000
     17       1.7688      2.00000
     18       2.2943      2.00000
     19       3.1172      2.00000
     20       3.2190      2.00000
     21       4.9333      0.00000
     22       5.2628      0.00000
     23       5.3311      0.00000
     24       6.0493      0.00000
     25       6.0814      0.00000
     26       6.4950      0.00000
     27       7.2624      0.00000
     28       7.6008      0.00000
     29       7.7089      0.00000
     30       7.7730      0.00000
     31       9.0429      0.00000
     32       9.1997      0.00000

 k-point     9 :       0.3333   -0.1667    0.0000
  band No.  band energies     occupation 
      1     -10.0008      2.00000
      2      -9.4645      2.00000
      3      -9.2714      2.00000
      4      -8.6419      2.00000
      5      -5.2402      2.00000
      6      -4.2023      2.00000
      7      -4.1243      2.00000
      8      -3.1968      2.00000
      9      -0.9752      2.00000
     10      -0.7790      2.00000
     11      -0.4631      2.00000
     12       0.3022      2.00000
     13       1.0455      2.00000
     14       1.1287      2.00000
     15       1.2931      2.00000
     16       1.7299      2.00000
     17       1.7688      2.00000
     18       2.2943      2.00000
     19       3.1172      2.00000
     20       3.2190      2.00000
     21       4.9333      0.00000
     22       5.2628      0.00000
     23       5.3311      0.00000
     24       6.0493      0.00000
     25       6.0814      0.00000
     26       6.4950      0.00000
     27       7.2624      0.00000
     28       7.6008      0.00000
     29       7.7089      0.00000
     30       7.7730      0.00000
     31       9.0429      0.00000
     32       9.1997      0.00000

 k-point    10 :       0.5000    0.1667    0.0000
  band No.  band energies     occupation 
      1      -9.4431      2.00000
      2      -9.4431      2.00000
      3      -8.9212      2.00000
      4      -8.9212      2.00000
      5      -5.1345      2.00000
      6      -5.1345      2.00000
      7      -3.8877      2.00000
      8      -3.8877      2.00000
      9      -0.4499      2.00000
     10      -0.4499      2.00000
     11      -0.0673      2.00000
     12      -0.0673      2.00000
     13       0.7260      2.00000
     14       0.7260      2.00000
     15       1.2481      2.00000
     16       1.2481      2.00000
     17       1.8518      2.00000
     18       1.8518      2.00000
     19       3.2785      2.00000
     20       3.2785      2.00000
     21       4.8012      0.00000
     22       4.8012      0.00000
     23       5.8019      0.00000
     24       5.8019      0.00000
     25       6.4440      0.00000
     26       6.4440      0.00000
     27       6.5409      0.00000
     28       6.5409      0.00000
     29       7.5814      0.00000
     30       7.5814      0.00000
     31       8.8166      0.00000
     32       8.8166      0.00000

 k-point    11 :       0.0000    0.3333    0.0000
  band No.  band energies     occupation 
      1     -10.3761      2.00000
      2      -9.7914      2.00000
      3      -9.6882      2.00000
      4      -8.9776      2.00000
      5      -5.1048      2.00000
      6      -4.1579      2.00000
      7      -3.9592      2.00000
      8      -3.0291      2.00000
      9      -1.0966      2.00000
     10       0.4813      2.00000
     11       0.8191      2.00000
     12       1.2787      2.00000
     13       1.4547      2.00000
     14       1.5256      2.00000
     15       1.9855      2.00000
     16       2.1276      2.00000
     17       2.2896      2.00000
     18       2.9765      2.00000
     19       3.5648      2.00000
     20       3.6140      2.00000
     21       4.5195      0.00000
     22       5.2899      0.00000
     23       5.5272      0.00000
     24       5.6411      0.00000
     25       5.9163      0.00000
     26       6.7262      0.00000
     27       6.7792      0.00000
     28       7.1196      0.00000
     29       7.4593      0.00000
     30       7.9938      0.00000
     31       8.5343      0.00000
     32       9.4797      0.00000

 k-point    12 :       0.1667    0.3333    0.0000
  band No.  band energies     occupation 
      1     -10.2073      2.00000
      2      -9.6367      2.00000
      3      -9.5668      2.00000
      4      -8.8917      2.00000
      5      -5.0080      2.00000
      6      -4.0786      2.00000
      7      -3.9895      2.00000
      8      -3.1800      2.00000
      9      -0.9211      2.00000
     10      -0.4706      2.00000
     11      -0.1523      2.00000
     12       0.2885      2.00000
     13       0.7592      2.00000
     14       1.0563      2.00000
     15       1.9341      2.00000
     16       2.1270      2.00000
     17       2.4342      2.00000
     18       2.7686      2.00000
     19       3.3950      2.00000
     20       3.4476      2.00000
     21       5.2229      0.00000
     22       5.5075      0.00000
     23       5.8456      0.00000
     24       6.1379      0.00000
     25       6.4387      0.00000
     26       6.9102      0.00000
     27       7.1984      0.00000
     28       7.4083      0.00000
     29       8.0380      0.00000
     30       8.3085      0.00000
     31       8.5336      0.00000
     32       8.7738      0.00000

 k-point    13 :       0.1667   -0.3333    0.0000
  band No.  band energies     occupation 
      1     -10.2073      2.00000
      2      -9.6367      2.00000
      3      -9.5668      2.00000
      4      -8.8917      2.00000
      5      -5.0080      2.00000
      6      -4.0786      2.00000
      7      -3.9895      2.00000
      8      -3.1800      2.00000
      9      -0.9211      2.00000
     10      -0.4706      2.00000
     11      -0.1523      2.00000
     12       0.2885      2.00000
     13       0.7592      2.00000
     14       1.0563      2.00000
     15       1.9341      2.00000
     16       2.1270      2.00000
     17       2.4342      2.00000
     18       2.7686      2.00000
     19       3.3950      2.00000
     20       3.4476      2.00000
     21       5.2229      0.00000
     22       5.5075      0.00000
     23       5.8456      0.00000
     24       6.1379      0.00000
     25       6.4387      0.00000
     26       6.9102      0.00000
     27       7.1984      0.00000
     28       7.4083      0.00000
     29       8.0380      0.00000
     30       8.3085      0.00000
     31       8.5336      0.00000
     32       8.7738      0.00000

 k-point    14 :       0.3333    0.3333    0.0000
  band No.  band energies     occupation 
      1      -9.7750      2.00000
      2      -9.3315      2.00000
      3      -9.2435      2.00000
      4      -8.7533      2.00000
      5      -4.9056      2.00000
      6      -4.2010      2.00000
      7      -4.1142      2.00000
      8      -3.6582      2.00000
      9      -1.1683      2.00000
     10      -0.9826      2.00000
     11      -0.5430      2.00000
     12      -0.4725      2.00000
     13       0.0797      2.00000
     14       0.5680      2.00000
     15       0.7224      2.00000
     16       1.1844      2.00000
     17       1.5454      2.00000
     18       2.2773      2.00000
     19       3.2643      2.00000
     20       3.4626      2.00000
     21       5.0894      0.00000
     22       6.2655      0.00000
     23       6.7063      0.00000
     24       6.7228      0.00000
     25       7.0440      0.00000
     26       7.2165      0.00000
     27       7.3060      0.00000
     28       7.8830      0.00000
     29       8.3385      0.00000
     30       8.8535      0.00000
     31       9.3268      0.00000
     32       9.9479      0.00000

 k-point    15 :       0.3333   -0.3333    0.0000
  band No.  band energies     occupation 
      1      -9.7750      2.00000
      2      -9.3315      2.00000
      3      -9.2435      2.00000
      4      -8.7533      2.00000
      5      -4.9056      2.00000
      6      -4.2010      2.00000
      7      -4.1142      2.00000
      8      -3.6582      2.00000
      9      -1.1683      2.00000
     10      -0.9826      2.00000
     11      -0.5430      2.00000
     12      -0.4725      2.00000
     13       0.0796      2.00000
     14       0.5680      2.00000
     15       0.7224      2.00000
     16       1.1844      2.00000
     17       1.5454      2.00000
     18       2.2773      2.00000
     19       3.2643      2.00000
     20       3.4626      2.00000
     21       5.0894      0.00000
     22       6.2655      0.00000
     23       6.7063      0.00000
     24       6.7228      0.00000
     25       7.0440      0.00000
     26       7.2165      0.00000
     27       7.3060      0.00000
     28       7.8830      0.00000
     29       8.3385      0.00000
     30       8.8535      0.00000
     31       9.3268      0.00000
     32       9.9480      0.00000

 k-point    16 :       0.5000    0.3333    0.0000
  band No.  band energies     occupation 
      1      -9.3574      2.00000
      2      -9.3574      2.00000
      3      -8.8507      2.00000
      4      -8.8507      2.00000
      5      -4.7841      2.00000
      6      -4.7841      2.00000
      7      -3.9886      2.00000
      8      -3.9886      2.00000
      9      -0.9521      2.00000
     10      -0.9521      2.00000
     11      -0.5604      2.00000
     12      -0.5604      2.00000
     13      -0.1647      2.00000
     14      -0.1647      2.00000
     15       0.6083      2.00000
     16       0.6083      2.00000
     17       1.3608      2.00000
     18       1.3608      2.00000
     19       3.3433      2.00000
     20       3.3433      2.00000
     21       5.7491      0.00000
     22       5.7491      0.00000
     23       6.9482      0.00000
     24       6.9482      0.00000
     25       7.3731      0.00000
     26       7.3731      0.00000
     27       7.7575      0.00000
     28       7.7575      0.00000
     29       8.4612      0.00000
     30       8.4612      0.00000
     31       9.7465      0.00000
     32       9.7465      0.00000

 k-point    17 :       0.0000    0.5000    0.0000
  band No.  band energies     occupation 
      1      -9.9862      2.00000
      2      -9.9862      2.00000
      3      -9.3686      2.00000
      4      -9.3686      2.00000
      5      -4.9198      2.00000
      6      -4.9198      2.00000
      7      -3.6733      2.00000
      8      -3.6733      2.00000
      9      -0.3675      2.00000
     10      -0.3675      2.00000
     11       1.2634      2.00000
     12       1.2634      2.00000
     13       1.9220      2.00000
     14       1.9220      2.00000
     15       2.4422      2.00000
     16       2.4422      2.00000
     17       2.5723      2.00000
     18       2.5723      2.00000
     19       3.2589      2.00000
     20       3.2589      2.00000
     21       4.9317      0.00000
     22       4.9317      0.00000
     23       5.7068      0.00000
     24       5.7068      0.00000
     25       5.9354      0.00000
     26       5.9354      0.00000
     27       6.6242      0.00000
     28       6.6242      0.00000
     29       7.2863      0.00000
     30       7.2863      0.00000
     31       9.1992      0.00000
     32       9.1992      0.00000

 k-point    18 :       0.1667    0.5000    0.0000
  band No.  band energies     occupation 
      1      -9.8430      2.00000
      2      -9.8430      2.00000
      3      -9.2461      2.00000
      4      -9.2461      2.00000
      5      -4.7686      2.00000
      6      -4.7686      2.00000
      7      -3.7075      2.00000
      8      -3.7075      2.00000
      9      -0.2755      2.00000
     10      -0.2755      2.00000
     11      -0.0513      2.00000
     12      -0.0513      2.00000
     13       0.4911      2.00000
     14       0.4911      2.00000
     15       2.0197      2.00000
     16       2.0197      2.00000
     17       2.7385      2.00000
     18       2.7385      2.00000
     19       3.5638      2.00000
     20       3.5638      2.00000
     21       5.3073      0.00000
     22       5.3073      0.00000
     23       6.1043      0.00000
     24       6.1043      0.00000
     25       7.0104      0.00000
     26       7.0104      0.00000
     27       7.1423      0.00000
     28       7.1423      0.00000
     29       7.9817      0.00000
     30       7.9817      0.00000
     31       8.5502      0.00000
     32       8.5502      0.00000

 k-point    19 :       0.3333    0.5000    0.0000
  band No.  band energies     occupation 
      1      -9.5110      2.00000
      2      -9.5110      2.00000
      3      -8.9711      2.00000
      4      -8.9711      2.00000
      5      -4.4468      2.00000
      6      -4.4468      2.00000
      7      -4.0420      2.00000
      8      -4.0420      2.00000
      9      -1.0326      2.00000
     10      -1.0326      2.00000
     11      -0.7339      2.00000
     12      -0.7339      2.00000
     13       0.1297      2.00000
     14       0.1297      2.00000
     15       0.4894      2.00000
     16       0.4894      2.00000
     17       1.8006      2.00000
     18       1.8006      2.00000
     19       3.4026      2.00000
     20       3.4026      2.00000
     21       6.0460      0.00000
     22       6.0460      0.00000
     23       6.8888      0.00000
     24       6.8888      0.00000
     25       7.5820      0.00000
     26       7.5820      0.00000
     27       8.1574      0.00000
     28       8.1574      0.00000
     29       8.9991      0.00000
     30       8.9991      0.00000
     31       9.6748      0.00000
     32       9.6748      0.00000

 k-point    20 :       0.5000    0.5000    0.0000
  band No.  band energies     occupation 
      1      -9.3123      2.00000
      2      -9.3123      2.00000
      3      -8.8145      2.00000
      4      -8.8145      2.00000
      5      -4.3749      2.00000
      6      -4.3749      2.00000
      7      -4.2849      2.00000
      8      -4.2849      2.00000
      9      -1.1133      2.00000
     10      -1.1133      2.00000
     11      -0.9815      2.00000
     12      -0.9815      2.00000
     13      -0.0427      2.00000
     14      -0.0427      2.00000
     15       0.0010      2.00000
     16       0.0010      2.00000
     17       1.2394      2.00000
     18       1.2394      2.00000
[...]
     32       8.4944      0.00000

 k-point    32 :       0.1667    0.3333    0.5000
  band No.  band energies     occupation 
      1     -10.0381      2.00000
      2     -10.0381      2.00000
      3      -9.1161      2.00000
      4      -9.1161      2.00000
      5      -4.6211      2.00000
      6      -4.6211      2.00000
      7      -3.6062      2.00000
      8      -3.6062      2.00000
      9      -0.6130      2.00000
     10      -0.6130      2.00000
     11       0.4359      2.00000
     12       0.4359      2.00000
     13       0.7934      2.00000
     14       0.7934      2.00000
     15       2.0010      2.00000
     16       2.0010      2.00000
     17       2.3198      2.00000
     18       2.3198      2.00000
     19       3.1429      2.00000
     20       3.1429      2.00000
     21       5.4946      0.00000
     22       5.4946      0.00000
     23       6.1684      0.00000
     24       6.1684      0.00000
     25       6.8517      0.00000
     26       6.8517      0.00000
     27       7.6183      0.00000
     28       7.6183      0.00000
     29       8.0538      0.00000
     30       8.0538      0.00000
     31       8.4808      0.00000
     32       8.4808      0.00000

 k-point    33 :       0.1667   -0.3333    0.5000
  band No.  band energies     occupation 
      1     -10.0381      2.00000
      2     -10.0381      2.00000
      3      -9.1161      2.00000
      4      -9.1161      2.00000
      5      -4.6211      2.00000
      6      -4.6211      2.00000
      7      -3.6062      2.00000
      8      -3.6062      2.00000
      9      -0.6130      2.00000
     10      -0.6130      2.00000
     11       0.4359      2.00000
     12       0.4359      2.00000
     13       0.7934      2.00000
     14       0.7934      2.00000
     15       2.0010      2.00000
     16       2.0010      2.00000
     17       2.3198      2.00000
     18       2.3198      2.00000
     19       3.1429      2.00000
     20       3.1429      2.00000
     21       5.4946      0.00000
     22       5.4946      0.00000
     23       6.1684      0.00000
     24       6.1684      0.00000
     25       6.8517      0.00000
     26       6.8517      0.00000
     27       7.6183      0.00000
     28       7.6183      0.00000
     29       8.0538      0.00000
     30       8.0538      0.00000
     31       8.4808      0.00000
     32       8.4808      0.00000

 k-point    34 :       0.3333    0.3333    0.5000
  band No.  band energies     occupation 
      1      -9.6359      2.00000
      2      -9.6359      2.00000
      3      -8.9181      2.00000
      4      -8.9181      2.00000
      5      -4.5983      2.00000
      6      -4.5983      2.00000
      7      -3.8611      2.00000
      8      -3.8611      2.00000
      9      -1.2251      2.00000
     10      -1.2251      2.00000
     11      -0.4641      2.00000
     12      -0.4641      2.00000
     13       0.5306      2.00000
     14       0.5306      2.00000
     15       1.1935      2.00000
     16       1.1935      2.00000
     17       1.8068      2.00000
     18       1.8068      2.00000
     19       2.8652      2.00000
     20       2.8652      2.00000
     21       5.8196      0.00000
     22       5.8196      0.00000
     23       6.4515      0.00000
     24       6.4515      0.00000
     25       7.5268      0.00000
     26       7.5268      0.00000
     27       7.9574      0.00000
     28       7.9574      0.00000
     29       8.5270      0.00000
     30       8.5270      0.00000
     31       9.5578      0.00000
     32       9.5578      0.00000

 k-point    35 :       0.3333   -0.3333    0.5000
  band No.  band energies     occupation 
      1      -9.6359      2.00000
      2      -9.6359      2.00000
      3      -8.9181      2.00000
      4      -8.9181      2.00000
      5      -4.5983      2.00000
      6      -4.5983      2.00000
      7      -3.8611      2.00000
      8      -3.8611      2.00000
      9      -1.2251      2.00000
     10      -1.2251      2.00000
     11      -0.4641      2.00000
     12      -0.4641      2.00000
     13       0.5306      2.00000
     14       0.5306      2.00000
     15       1.1935      2.00000
     16       1.1935      2.00000
     17       1.8068      2.00000
     18       1.8068      2.00000
     19       2.8652      2.00000
     20       2.8652      2.00000
     21       5.8196      0.00000
     22       5.8196      0.00000
     23       6.4515      0.00000
     24       6.4515      0.00000
     25       7.5268      0.00000
     26       7.5268      0.00000
     27       7.9574      0.00000
     28       7.9574      0.00000
     29       8.5270      0.00000
     30       8.5270      0.00000
     31       9.5578      0.00000
     32       9.5578      0.00000

 k-point    36 :       0.5000    0.3333    0.5000
  band No.  band energies     occupation 
      1      -9.3529      2.00000
      2      -9.3529      2.00000
      3      -8.8582      2.00000
      4      -8.8582      2.00000
      5      -4.7214      2.00000
      6      -4.7214      2.00000
      7      -4.0529      2.00000
      8      -4.0529      2.00000
      9      -1.1021      2.00000
     10      -1.1021      2.00000
     11      -0.5862      2.00000
     12      -0.5862      2.00000
     13      -0.0634      2.00000
     14      -0.0634      2.00000
     15       0.6610      2.00000
     16       0.6610      2.00000
     17       1.8727      2.00000
     18       1.8727      2.00000
     19       2.6838      2.00000
     20       2.6838      2.00000
     21       5.6771      0.00000
     22       5.6771      0.00000
     23       6.9322      0.00000
     24       6.9322      0.00000
     25       7.5455      0.00000
     26       7.5455      0.00000
     27       8.0693      0.00000
     28       8.0693      0.00000
     29       8.7069      0.00000
     30       8.7069      0.00000
     31       9.4660      0.00000
     32       9.4660      0.00000

 k-point    37 :       0.0000    0.5000    0.5000
  band No.  band energies     occupation 
      1      -9.9804      2.00000
      2      -9.9804      2.00000
      3      -9.3795      2.00000
      4      -9.3795      2.00000
      5      -4.6867      2.00000
      6      -4.6867      2.00000
      7      -4.0611      2.00000
      8      -4.0611      2.00000
      9       0.4509      2.00000
     10       0.4509      2.00000
     11       1.2695      2.00000
     12       1.2695      2.00000
     13       1.3430      2.00000
     14       1.3430      2.00000
     15       1.9103      2.00000
     16       1.9103      2.00000
     17       2.8520      2.00000
     18       2.8520      2.00000
     19       3.1016      2.00000
     20       3.1016      2.00000
     21       5.1376      0.00000
     22       5.1376      0.00000
     23       5.3420      0.00000
     24       5.3420      0.00000
     25       6.0360      0.00000
     26       6.0360      0.00000
     27       7.1278      0.00000
     28       7.1278      0.00000
     29       8.1453      0.00000
     30       8.1453      0.00000
     31       8.3274      0.00000
     32       8.3274      0.00000

 k-point    38 :       0.1667    0.5000    0.5000
  band No.  band energies     occupation 
      1      -9.8376      2.00000
      2      -9.8376      2.00000
      3      -9.2560      2.00000
      4      -9.2559      2.00000
      5      -4.5394      2.00000
      6      -4.5394      2.00000
      7      -4.0457      2.00000
      8      -4.0457      2.00000
      9      -0.3729      2.00000
     10      -0.3729      2.00000
     11       0.3019      2.00000
     12       0.3019      2.00000
     13       0.9917      2.00000
     14       0.9917      2.00000
     15       1.6269      2.00000
     16       1.6269      2.00000
     17       2.4080      2.00000
     18       2.4080      2.00000
     19       3.1551      2.00000
     20       3.1551      2.00000
     21       5.7915      0.00000
     22       5.7915      0.00000
     23       5.8419      0.00000
     24       5.8419      0.00000
     25       7.3572      0.00000
     26       7.3572      0.00000
     27       7.5147      0.00000
     28       7.5147      0.00000
     29       8.1365      0.00000
     30       8.1365      0.00000
     31       8.3478      0.00000
     32       8.3478      0.00000

 k-point    39 :       0.3333    0.5000    0.5000
  band No.  band energies     occupation 
      1      -9.5070      2.00000
      2      -9.5070      2.00000
      3      -8.9779      2.00000
      4      -8.9779      2.00000
      5      -4.2450      2.00000
      6      -4.2450      2.00000
      7      -4.2308      2.00000
      8      -4.2308      2.00000
      9      -1.1128      2.00000
     10      -1.1128      2.00000
     11      -1.0590      2.00000
     12      -1.0590      2.00000
     13       0.5753      2.00000
     14       0.5753      2.00000
     15       0.8633      2.00000
     16       0.8633      2.00000
     17       1.8867      2.00000
     18       1.8867      2.00000
     19       2.5876      2.00000
     20       2.5876      2.00000
     21       6.0751      0.00000
     22       6.0751      0.00000
     23       7.0713      0.00000
     24       7.0713      0.00000
     25       7.9528      0.00000
     26       7.9528      0.00000
     27       8.2978      0.00000
     28       8.2978      0.00000
     29       9.0433      0.00000
     30       9.0433      0.00000
     31       9.4850      0.00000
     32       9.4850      0.00000

 k-point    40 :       0.5000    0.5000    0.5000
  band No.  band energies     occupation 
      1      -9.3097      2.00000
      2      -9.3097      2.00000
      3      -8.8184      2.00000
      4      -8.8184      2.00000
      5      -4.5061      2.00000
      6      -4.5061      2.00000
      7      -4.0958      2.00000
      8      -4.0958      2.00000
      9      -1.4318      2.00000
     10      -1.4318      2.00000
     11      -0.8634      2.00000
     12      -0.8634      2.00000
     13      -0.1680      2.00000
     14      -0.1680      2.00000
     15       0.0748      2.00000
     16       0.0748      2.00000
     17       2.0350      2.00000
     18       2.0350      2.00000
     19       2.6578      2.00000
     20       2.6578      2.00000
     21       5.5216      0.00000
     22       5.5216      0.00000
     23       7.7457      0.00000
     24       7.7457      0.00000
     25       8.0216      0.00000
     26       8.0216      0.00000
     27       8.5423      0.00000
     28       8.5423      0.00000
     29       9.2609      0.00000
     30       9.2609      0.00000
     31      10.5425      0.00000
     32      10.5457      0.00000


--------------------------------------------------------------------------------------------------------


 soft charge-density along one line, spin component            1
         0         1         2         3         4         5         6         7         8         9
 total charge-density along one line
 
 pseudopotential strength for first ion, spin component:            1
 14.382  17.939   0.036   0.042   0.000   0.065   0.076   0.000
 17.939  22.390   0.046   0.053   0.000   0.082   0.096   0.000
  0.036   0.046   3.203  -0.002  -0.000   5.451  -0.003  -0.000
  0.042   0.053  -0.002   3.200  -0.000  -0.003   5.445  -0.000
  0.000   0.000  -0.000  -0.000   3.204  -0.000  -0.000   5.453
  0.065   0.082   5.451  -0.003  -0.000   9.334  -0.005  -0.000
  0.076   0.096  -0.003   5.445  -0.000  -0.005   9.323  -0.000
  0.000   0.000  -0.000  -0.000   5.453  -0.000  -0.000   9.337
 -0.000  -0.000   0.000   0.000   0.005   0.000   0.000   0.011
 -0.004  -0.005   0.011   0.012   0.000   0.020   0.021   0.000
 -0.005  -0.007  -0.003   0.011  -0.000  -0.005   0.020  -0.000
 -0.000  -0.000   0.000   0.000   0.011   0.000   0.000   0.019
  0.001   0.001  -0.011  -0.000   0.000  -0.020  -0.000   0.000
 total augmentation occupancy for first ion, spin component:            1
  2.828  -0.784   0.315   0.352   0.000  -0.062  -0.063  -0.000   0.000   0.003  -0.000   0.000   0.004
 -0.784   0.743  -0.391  -0.459  -0.000   0.065   0.070   0.000  -0.000  -0.010  -0.001  -0.000  -0.001
  0.315  -0.391   1.255   0.061   0.000  -0.213  -0.004  -0.000   0.000   0.040  -0.103  -0.000   0.007
  0.352  -0.459   0.061   1.384   0.000  -0.005  -0.226  -0.000   0.000  -0.026   0.098   0.000   0.002
  0.000  -0.000   0.000   0.000   1.251  -0.000   0.000  -0.220   0.146   0.000  -0.000   0.044   0.000
 -0.062   0.065  -0.213  -0.005  -0.000   0.040  -0.000   0.000  -0.000  -0.006   0.018   0.000  -0.001
 -0.063   0.070  -0.004  -0.226   0.000  -0.000   0.043  -0.000   0.000   0.005  -0.017  -0.000  -0.000
 -0.000   0.000  -0.000  -0.000  -0.220   0.000  -0.000   0.043  -0.026  -0.000   0.000  -0.007  -0.000
  0.000  -0.000   0.000   0.000   0.146  -0.000   0.000  -0.026   0.031   0.000  -0.000   0.004  -0.000
  0.003  -0.010   0.040  -0.026   0.000  -0.006   0.005  -0.000   0.000   0.015  -0.007   0.000   0.000
 -0.000  -0.001  -0.103   0.098  -0.000   0.018  -0.017   0.000  -0.000  -0.007   0.031  -0.000  -0.003
  0.000  -0.000  -0.000   0.000   0.044   0.000  -0.000  -0.007   0.004   0.000  -0.000   0.011  -0.000
  0.004  -0.001   0.007   0.002   0.000  -0.001  -0.000  -0.000  -0.000   0.000  -0.003  -0.000   0.009


------------------------ aborting loop because EDIFF is reached ----------------------------------------


    CHARGE:  cpu time      0.0066: real time      0.0066
    FORLOC:  cpu time      0.0002: real time      0.0002
    FORNL :  cpu time      0.0254: real time      0.0255
    STRESS:  cpu time      0.2505: real time      0.2515
    FORCOR:  cpu time      0.0066: real time      0.0067
    FORHAR:  cpu time      0.0016: real time      0.0017
    MIXING:  cpu time      0.0006: real time      0.0006
    OFIELD:  cpu time      0.0000: real time      0.0000

  FORCE on cell =-STRESS in cart. coord.  units (eV):
  Direction    XX          YY          ZZ          XY          YZ          ZX
  --------------------------------------------------------------------------------------
  Alpha Z    91.66130    91.66130    91.66130
  Ewald    -461.12407  -529.63913  -455.47221     0.00006     0.00007     0.00005
  Hartree    53.74046    20.79975    53.17427     0.00002     0.00001     0.00001
  E(xc)    -141.79884  -141.83963  -141.82312     0.00000    -0.00000     0.00000
  Local    -162.31743   -66.91894  -175.76077    -0.00008    -0.00008    -0.00005
  n-local   241.66368   241.23056   242.90326     0.00000     0.00000     0.00000
  augment   -11.30892   -11.74576   -11.95380    -0.00000     0.00000     0.00000
  Kinetic   392.21710   399.29624   403.64183     0.00000    -0.00001    -0.00002
  Fock        0.00000     0.00000     0.00000     0.00000     0.00000     0.00000
  -------------------------------------------------------------------------------------
  Total       2.73330     2.84438     6.37075     0.00001     0.00000    -0.00001
  in kB      23.68950    24.65229    55.21533     0.00005     0.00001    -0.00008
  external pressure =       34.52 kB  Pullay stress =        0.00 kB


 VOLUME and BASIS-vectors are now :
 -----------------------------------------------------------------------------
  energy-cutoff  :      360.00
  volume of cell :      184.86
      direct lattice vectors                 reciprocal lattice vectors
     3.858100176  0.000000000  0.000000000     0.259194929  0.000000000  0.000000000
     0.000000000  4.526575088  0.000000000     0.000000000  0.220917577  0.000000000
     0.000000000  0.000000000 10.585176468     0.000000000  0.000000000  0.094471736

  length of vectors
     3.858100176  4.526575088 10.585176468     0.259194929  0.220917577  0.094471736


 FORCES acting on ions
    electron-ion (+dipol)            ewald-force                    non-local-force                 convergence-correction
 -----------------------------------------------------------------------------------------------
   0.129E-04 0.178E+02 0.199E+02   -.127E-04 -.200E+02 -.225E+02   -.284E-06 0.208E+01 0.279E+01   -.358E-06 -.344E-03 -.825E-03
   -.489E-05 0.178E+02 -.199E+02   0.524E-05 -.200E+02 0.225E+02   -.612E-07 0.208E+01 -.279E+01   0.127E-06 -.346E-03 0.826E-03
   0.270E-05 -.178E+02 -.199E+02   -.608E-05 0.200E+02 0.225E+02   0.122E-05 -.208E+01 -.279E+01   0.297E-06 0.345E-03 0.820E-03
   -.201E-04 -.178E+02 0.199E+02   0.237E-04 0.200E+02 -.225E+02   -.619E-06 -.208E+01 0.279E+01   0.245E-06 0.345E-03 -.823E-03
   0.989E-05 -.182E+02 -.112E+02   -.964E-05 0.197E+02 0.125E+02   -.155E-06 -.116E+01 -.160E+01   -.966E-06 0.822E-03 0.168E-02
   -.968E-05 -.182E+02 0.112E+02   0.101E-04 0.197E+02 -.125E+02   0.477E-06 -.116E+01 0.160E+01   0.131E-06 0.824E-03 -.168E-02
   0.331E-04 0.182E+02 0.112E+02   -.355E-04 -.197E+02 -.125E+02   0.511E-06 0.116E+01 0.160E+01   0.528E-06 -.826E-03 -.168E-02
   -.241E-04 0.182E+02 -.112E+02   0.249E-04 -.197E+02 0.125E+02   -.984E-06 0.116E+01 -.160E+01   0.130E-06 -.823E-03 0.168E-02
 -----------------------------------------------------------------------------------------------
   -.138E-06 0.416E-05 0.225E-05   0.353E-14 0.107E-13 -.249E-13   0.104E-06 0.109E-03 -.208E-05   0.135E-06 -.368E-05 -.759E-06
 
 
 POSITION                                       TOTAL-FORCE (eV/Angst)
 -----------------------------------------------------------------------------------
      2.89357      1.39238      1.23098        -0.000000     -0.091522      0.239350
      0.96452      3.65567      4.06160         0.000000     -0.091526     -0.239342
      2.89357      3.98702      9.35419        -0.000002      0.091508     -0.239337
      0.96452      1.72374      6.52357         0.000003      0.091506      0.239331
      2.89357      0.82993      3.75268        -0.000001      0.324745     -0.349159
      0.96452      3.09322      1.53991         0.000001      0.324740      0.349152
      2.89357      0.02290      6.83250        -0.000001     -0.324724      0.349172
      0.96452      2.28618      9.04526        -0.000000     -0.324727     -0.349168
 -----------------------------------------------------------------------------------
    total drift:                                0.000000      0.000110     -0.000001


--------------------------------------------------------------------------------------------------------



  FREE ENERGIE OF THE ION-ELECTRON SYSTEM (eV)
  ---------------------------------------------------
  free  energy   TOTEN  =       -33.22993553 eV

  energy  without entropy=      -33.22993553  energy(sigma->0) =      -33.22993553
 


--------------------------------------------------------------------------------------------------------


    POTLOK:  cpu time      0.2239: real time      0.2249


--------------------------------------------------------------------------------------------------------


     LOOP+:  cpu time      6.9545: real time      6.9902
    4ORBIT:  cpu time      0.0000: real time      0.0000

 total amount of memory used by VASP MPI-rank0    36587. kBytes
=======================================================================

   base      :      30000. kBytes
   nonl-proj :       5001. kBytes
   fftplans  :        306. kBytes
   grid      :        466. kBytes
   one-center:         16. kBytes
   wavefun   :        798. kBytes
 
  
  
 General timing and accounting informations for this job:
 ========================================================
  
                  Total CPU time used (sec):        8.539
                            User time (sec):        8.293
                          System time (sec):        0.245
                         Elapsed time (sec):        8.941
  
                   Maximum memory used (kb):      174692.
                   Average memory used (kb):          N/A
  
                          Minor page faults:        16543
                          Major page faults:           30
                 Voluntary context switches:         1580
