72
Lattice="12.414682438525968 2.474919981e-07 1.2079662441e-06 2.492398851e-07 12.502370699969589 5.764229081e-06 1.3854479887e-06 6.5647815628e-06 11.061187053248846" Properties=species:S:1:pos:R:3:forces:R:3:magmoms:R:1 energy=-300.46002727 stress="0.009833140457469344 0.001631071622237967 -0.0004898800979932511 0.001631071622237967 -0.001829132226718359 9.230787547389982e-05 -0.0004898800979932511 9.230787547389982e-05 -0.0056734069215548" dipole="_JSON [[0.0, 0.0, 0.0]]" magmom=0.0018539 free_energy=-300.46002727 pbc="T T T"
Ge       0.94885837       0.53479275       1.51660029      -0.39515034      -0.44550986      -0.18664169       0.00000000
Ge       3.13434661      10.91984872       4.16901939      -0.23047770      -0.30730147      -0.51736467       0.00000000
Ge       7.22923778       2.31164564       4.01353357      -0.02157650       0.37024572      -0.44104888       0.00000000
Ge       7.14488513       6.53635074       4.07018389      -0.01604866       0.27983625      -0.61589286      -0.00000000
Ge       6.97312414      10.98121854       4.21508449       0.33099573      -0.21164765      -0.30790603       0.00000000
Ge      11.32067114       2.57067913       4.07113786      -0.26922137       0.27904684      -0.12987053       0.00000000
Ge      11.03591396       6.84336300       4.40587499       0.20914563       0.19109729      -0.48416870       0.00000000
Ge      11.33941784      10.95379245       4.18464005      -0.06475854      -0.02751429       0.15057003       0.00000000
Ge       1.14061672       1.97692407       6.76362042      -0.41253465       0.08298739       0.20277476       0.00000000
Ge       0.90296242       6.11203611       6.86004329      -0.14446880      -0.28836949       0.00572110       0.00000000
Ge       1.03778459      10.13505829       6.90535991      -0.25442326       0.20016692       0.28361656       0.00000000
Ge       4.98468029       1.88283040       6.90120955      -0.04206599      -0.09894107       0.20476723       0.00000000
Ge       5.11538304       6.12364399       7.00728778      -0.11089799      -0.26638258       0.50935501      -0.00000000
Ge       4.97967858      10.13266586       7.06158690      -0.09210983      -0.00791214       0.47043850      -0.00000000
Ge       9.19749725       1.73037777       6.96344296       0.07512484       0.10980711      -0.29070111       0.00000000
Ge       8.93637093       6.18906789       7.17000087       0.41154938      -0.44688896      -0.70421216      -0.00000000
Ge       2.81296483       6.89206529       3.94941732       0.28939296      -0.27751468      -0.11969938      -0.00000000
Ge       2.85326045       2.66463115       4.13627017       0.07658423       0.05259529       0.03930517       0.00000000
Ge       9.20594759      10.14996132       6.81898706      -0.14690861       0.18385325       0.57777376       0.00000000
Ge      11.18720187       8.08661213       9.71334008      -0.01819049      -0.03118756      -0.48320703      -0.00000000
Ge      11.29586943      12.43010092       9.57583981      -0.11370114      -0.56188080       0.40444855       0.00000000
Ge       0.68789498       4.76980392       1.49609130       0.13193879       0.40025203      -0.30725704       0.00000000
Ge       0.65657814       8.85291996       1.38989588       0.43390686       0.22219551       0.17330515      -0.00000000
Ge       4.80400762       0.35924643       1.20324285       0.64043290      -0.42681532       0.31464929       0.00000000
Ge       4.82360222       4.44062457       1.69683834       0.38818956       0.53560403      -0.13805939      -0.00000000
Ge       9.23675908       0.52224387       1.53387365      -0.33119765      -0.45853886       0.04683168       0.00000000
Ge       9.26451231       4.60055332       1.36161451      -0.13810874       0.37908386      -0.05204090       0.00000000
Ge       5.17383590       8.62909299       1.53836786      -0.15431044       0.25695626      -0.51950056      -0.00000000
Ge       3.02587837       4.08644838       9.57799295       0.12465978       0.33832068       0.38815628       0.00000000
Ge       2.83439710       8.02289300       9.73866074       0.11179969       0.01221993      -0.34437492      -0.00000000
Ge       2.55678357      12.56654876       9.70010912       0.13971954      -0.59262969      -0.56034231       0.00000000
Ge       7.11883098       3.84289002       9.58377610      -0.26899321       0.19836344       0.57778572       0.00000000
Ge       7.24229012       8.15294719       9.78324284      -0.40908341       0.09997995      -0.01115410      -0.00000000
Ge       6.94552805      12.10640458       9.59593142       0.31488202      -0.07021213       0.58554753       0.00000000
Ge      11.22712280       3.91966658       9.51160599      -0.04835068       0.22747115      -0.44244064       0.00000000
Ge       9.18849741       9.09594832       1.41860046       0.07229990      -0.20609747       0.15539025      -0.00000000
Se      11.41276999       0.23658569       7.15131425      -0.39856158      -0.00246940      -0.56105351      -0.00000000
Se       2.93287572       4.35787734       7.10707699       0.09862147       0.26857339      -0.44430384      -0.00000000
Se       2.82773089       8.29625536       7.07343110       0.48257112       0.41069118       0.27181380      -0.00000000
Se       6.89040961       0.10193467       7.16359374       0.29926950       0.03841454      -0.60618419      -0.00000000
Se       7.11596789       4.25846129       7.15348847      -0.20843444       0.44382554      -0.63134942      -0.00000000
Se       7.04434716       8.51738900       7.23604646       0.20618101      -0.29029475      -0.21800060      -0.00000000
Se      11.16044284       4.43942113       6.94791378      -0.14300212      -0.14535000       0.46765238      -0.00000000
Se       9.15611805       0.18619424       4.14188872      -0.08446623      -0.05307716      -0.30138089      -0.00000000
Se       0.94400537       0.06398301       4.00434297       0.01770930       0.40153491       0.10385994      -0.00000000
Se       0.86154627       4.40867579       3.97897012       0.04285445      -0.26887771      -0.01110329      -0.00000000
Se       0.80637650       8.51742965       3.93341182      -0.27430790       0.08419976       0.05341634      -0.00000000
Se       5.06037751       0.12933011       3.84206508      -0.22008020       0.21318297      -0.15643289      -0.00000000
Se       4.89523061       4.26632090       4.22323427       0.17445820      -0.06020387      -0.53493400      -0.00000000
Se       5.01216926       8.44239710       3.96857991       0.02767394      -0.12502237       0.65307141      -0.00000000
Se       2.92576397       0.16284227       6.96899091       0.19449514      -0.12237254       0.79982145      -0.00000000
Se      11.24551411       8.64026889       7.03418662       0.00407208      -0.62428717       0.37896074      -0.00000000
Se      11.35843754      10.80084448       1.69205972      -0.60405797      -0.47135018      -0.37627398      -0.00000000
Se       2.98929837       2.05402475       1.56174575      -0.21399737       1.00832867       0.21741114      -0.00000000
Se      11.10510841       2.26589127       1.49444998       0.72962195       0.13328922       0.25312936      -0.00000000
Se       9.11741150       4.30363747       3.83904913       0.11396759      -0.35237402       0.42096400      -0.00000000
Se       1.03288635       2.39205554       9.35329548      -0.42118330      -0.61079193      -0.02930082      -0.00000000
Se       0.77266099       6.36478401       9.36723885      -0.07072102       0.02689546       0.41396753      -0.00000000
Se       0.76299921      10.50269648       9.51213161       0.31702821       0.65899691      -0.22800345      -0.00000000
Se       4.89570658       2.30962069       9.43797394       0.32373970      -0.28532234      -0.00519718      -0.00000000
Se       4.88174579       6.38741532       9.63045339       0.43705084       0.04865953      -0.58148042      -0.00000000
Se       5.02884432      10.43954087       9.62795597      -0.37061000       0.06902626      -0.50331044      -0.00000000
Se       9.15593183       2.24764409       9.40996883       0.17197976      -0.30984290       0.38919222      -0.00000000
Se       9.13623354       6.29315124       9.60329336       0.19133061       0.32754487       0.35552299      -0.00000000
Se       9.20330762      10.44667598       9.53806898      -0.19361215       0.47801313      -0.49490774      -0.00000000
Se       2.95532536       6.45857057       1.38042242      -0.27732033      -0.44498877       0.57798782      -0.00000000
Se       2.91470621      10.47282207       1.55458240       0.13525796       0.08876799       0.37119856      -0.00000000
Se       7.09757250       1.97954846       1.42737300      -0.23524415       0.51203748       0.46285689      -0.00000000
Se       7.09096662       6.25960173       1.45425466      -0.31550928      -0.14185689       0.72045859      -0.00000000
Se       7.09366458      10.54477908       1.61466976      -0.03056449       0.10410264       0.32266859      -0.00000000
Se      11.18922030       6.57455924       1.71124404      -0.06439828      -0.68335511       0.06325367      -0.00000000
Se       9.03172704       8.45795670       3.99703779       0.09014417      -0.01898620      -0.04854441      -0.00000000
72
Lattice="12.41952865574193 2.475886095e-07 1.208437788e-06 2.491889515e-07 12.49981577267802 5.7630511296e-06 1.3844972274e-06 6.5602764925e-06 11.053596332216078" Properties=species:S:1:pos:R:3:forces:R:3:magmoms:R:1 energy=-300.31184242 stress="0.005254483594821409 0.0002897206050655161 -0.001659440648105605 0.0002897206050655161 -0.0029695620059818064 -0.0002896762154526129 -0.001659440648105605 -0.0002896762154526129 -0.016576203519146994" dipole="_JSON [[0.0, 0.0, 0.0]]" magmom=0.0017872 free_energy=-300.31184242 pbc="T T T"
Ge       0.85607473       0.48677976       1.66546120       0.04809024       0.40144510      -0.86064202       0.00000000
Ge       2.74700162      10.89659346       4.10332857       0.37555507       0.00710607       0.09928251       0.00000000
Ge       7.35511345       2.29004155       3.92485673      -0.18876317       0.28216398       0.20202042      -0.00000000
Ge       6.92967473       6.86373359       3.93464662       0.66199790      -0.78577762       0.33146605       0.00000000
Ge       6.78551415      10.84466006       4.28786676       0.19831489       0.34159297      -0.38403531       0.00000000
Ge      11.06526966       2.59173119       4.14630407       0.40175021      -0.04532363      -0.47893543       0.00000000
Ge      11.11369719       6.81323398       4.21491571      -0.13171099      -0.20972027      -0.12139602       0.00000000
Ge      11.47969032      10.88389158       4.23623784      -0.40149752      -0.20632491      -0.56091728       0.00000000
Ge       0.93134378       2.19875636       7.04954766       0.13152005      -0.58134411      -0.11593155       0.00000000
Ge       0.84848157       6.00271552       6.86049561       0.11069847       0.20120469       0.41156947       0.00000000
Ge       0.82626518      10.07600510       6.92930575       0.08340114      -0.23500869       0.16129131       0.00000000
Ge       4.99204817       1.83226130       7.18793830       0.09789709      -0.10963719      -0.19948576      -0.00000000
Ge       5.11332858       6.07044916       7.04845710      -0.13410703       0.32201568      -0.01651120       0.00000000
Ge       5.06197850      10.40706952       7.15867157      -0.12540132      -0.42299172      -0.72529073       0.00000000
Ge       9.38927782       1.85149440       6.82808172      -0.03517004      -0.27340819       0.59882736       0.00000000
Ge       9.10310863       5.90407244       7.01722987      -0.23426650       0.65619298       0.02639969       0.00000000
Ge       3.01158505       6.74834922       4.07738085      -0.17085150      -0.36028369       0.36705504       0.00000000
Ge       3.07205725       2.56797072       3.86540760      -0.10374472       0.35052745       0.28118866       0.00000000
Ge       9.09205627      10.24423077       7.15649273       0.01308967      -0.16789531      -0.42514805       0.00000000
Ge      11.11569034       8.10663541       9.51964278       0.26688670       0.02702164       0.85029473       0.00000000
Ge      11.19748228      12.39564598       9.51452171       0.06921699       0.04249236      -0.16370661       0.00000000
Ge       0.83755376       4.89562799       1.45980453      -0.09391807      -0.44731366      -0.10289346       0.00000000
Ge       0.83252024       8.83380769       1.29656143      -0.26395233      -0.20260922       0.04316225       0.00000000
Ge       5.06039603       0.39661402       1.31777218      -0.20290245       0.48646389      -0.31297758       0.00000000
Ge       5.22193955       4.57886218       1.47138903      -0.20798635      -0.06535431      -0.65416177      -0.00000000
Ge       8.89329180       0.16234042       1.43807255       0.23246189       0.30894168      -0.49835760       0.00000000
Ge       9.22895128       4.76328326       1.48993308      -0.40783456      -0.50178024       0.25797530      -0.00000000
Ge       4.68919906       8.83720018       1.60987997       0.79166659      -0.68897006      -0.19027533       0.00000000
Ge       2.84401173       4.26401463       9.63251702       0.07489538      -0.24919923      -0.25809103      -0.00000000
Ge       3.18060335       8.04475367       9.50286913      -0.16765525      -0.08692509       0.00255488       0.00000000
Ge       2.75737192      12.20085130       9.62502804      -0.01701941       0.16516172       0.51626586       0.00000000
Ge       7.17834418       3.76372066       9.55070051       0.16237239       0.42148066       0.12363955      -0.00000000
Ge       7.32462896       8.27396336       9.51474670      -0.34284430      -0.28303431       0.51977596       0.00000000
Ge       6.95045221      12.16571187       9.54398213      -0.08110076       0.38911475       0.33086467       0.00000000
Ge      11.35178621       4.04910802       9.43640177      -0.21164091      -0.24461565       0.42714009      -0.00000000
Ge       9.21996885       8.91098683       1.61945917      -0.36812785      -0.26759138       0.16071822       0.00000000
Se      11.38454903       0.14094850       6.93603617      -0.38673651       0.27954996       0.37018174      -0.00000000
Se       2.96984502       4.40287355       7.03349235      -0.18410167      -0.28898797       0.32230303      -0.00000000
Se       3.02553968       8.51086274       6.99171549      -0.30223676      -0.01836161       0.20125950      -0.00000000
Se       7.15311237      -0.02265449       7.07251518      -0.18899236       0.41206563      -0.21846039      -0.00000000
Se       7.01995698       4.39886954       7.03938789       0.24267724      -0.76239572       0.02685160      -0.00000000
Se       7.11643084       8.41715504       7.06393145      -0.04477527       0.40878916      -0.17460921      -0.00000000
Se      11.12539203       4.28677290       6.91904192       0.53209026      -0.28499528       0.15693719      -0.00000000
Se       9.05955256       0.11813165       3.86440701       0.01923979       0.09100534       0.88979165      -0.00000000
Se       0.89302540       0.18811682       4.10819631       0.16055525      -0.01945792       0.35984278      -0.00000000
Se       0.90339941       4.20151134       3.87002132       0.02062879       0.31334275       0.53031312      -0.00000000
Se       0.63937240       8.47000620       3.85189127       0.49296509       0.35058481       0.14010962      -0.00000000
Se       4.82587516       0.09167524       3.79264454       0.11408607      -0.12436793       0.75079184      -0.00000000
Se       4.97450007       4.39669099       3.86363658      -0.01368706      -0.13732513       1.00059696      -0.00000000
Se       5.05254191       8.50721537       4.13998472      -0.46521640       0.48528164      -0.26887069      -0.00000000
Se       2.99434729       0.09501089       7.20985107      -0.06608658       0.42175629      -0.69638327      -0.00000000
Se      11.18515631       8.32372656       7.11954280       0.12414942       0.48788961      -0.79589292      -0.00000000
Se      11.12439011      10.57300168       1.51540893       0.49158263       0.34660908       0.58206785      -0.00000000
Se       2.97942481       2.26716229       1.41030109      -0.07362479      -0.51343369      -0.08402017      -0.00000000
Se      11.39491568       2.21091706       1.61456634      -0.48822171      -0.01204814       0.07342051      -0.00000000
Se       9.12182409       4.28335495       4.14675743      -0.12046596      -0.07919798      -0.84568539      -0.00000000
Se       0.85259046       2.20603285       9.53542457       0.09199282       0.40859639       0.03896247      -0.00000000
Se       0.81792881       6.39380951       9.54822828       0.33604075      -0.22709394      -0.56907923      -0.00000000
Se       0.72222654      10.58367567       9.43496153       0.20231127      -0.15515854      -0.01803171      -0.00000000
Se       5.16046430       2.23303517       9.65444313      -0.47042281      -0.17608038      -0.38086418      -0.00000000
Se       5.15416646       6.27940888       9.55991876      -0.36949251       0.43835012      -0.06886122      -0.00000000
Se       4.80714627      10.46345455       9.58640476       0.38216514      -0.00136397       0.59013898      -0.00000000
Se       9.28131301       2.18787069       9.45617165       0.02097538       0.02053603      -0.55931186      -0.00000000
Se       9.16593098       6.42477956       9.59359994       0.00858302      -0.32375578      -0.27127988      -0.00000000
Se       9.07318077      10.63250694       9.64768935       0.29267209      -0.36207768       0.05877736      -0.00000000
Se       2.98963789       6.50911464       1.62466776      -0.09605213       0.13811762      -0.56569374      -0.00000000
Se       2.86059452      10.45151374       1.56981557      -0.62354485       0.73248790       0.05003494      -0.00000000
Se       6.97162404       2.29646848       1.40826221       0.16801398      -0.42098761       0.25387092      -0.00000000
Se       7.11386965       6.35843601       1.45497204       0.12250032       0.29800533       0.09974080      -0.00000000
Se       7.09926414      10.63134109       1.73978031      -0.13289517      -0.32507521      -0.16792769      -0.00000000
Se      11.08512742       6.43859454       1.65408270       0.34369797       0.36869028       0.06167232      -0.00000000
Se       9.08306908       8.46324824       4.17841235       0.03030565       0.26268941      -0.51542892      -0.00000000
72
Lattice="12.400388816840875 2.472070487e-07 1.2065754544e-06 2.494278846e-07 12.511801134863386 5.7685769914e-06 1.3864044198e-06 6.5693134987e-06 11.06882304083133" Properties=species:S:1:pos:R:3:forces:R:3:magmoms:R:1 energy=-300.83892144 stress="0.00980903470689316 0.0016868156262638183 -0.00031028038578654064 0.0016868156262638183 -0.004645115109895879 -0.0003798566787824645 -0.00031028038578654064 -0.0003798566787824645 -0.011305747378185684" dipole="_JSON [[0.0, 0.0, 0.0]]" magmom=0.0017624 free_energy=-300.83892144 pbc="T T T"
Ge       1.10474834       0.34542416       1.34649165      -0.17328558       0.52023167       0.29637825       0.00000000
Ge       3.03119758      10.85345670       4.09375249       0.00448437       0.12807940       0.17095054       0.00000000
Ge       7.03984044       2.70278255       4.15715458       0.16226879       0.27013377       0.65437107      -0.00000000
Ge       7.13971403       6.95788468       4.21042614       0.10449201      -0.50319966       0.12222563      -0.00000000
Ge       7.24937997      10.92394948       4.03018581       0.35531174      -0.10201950       0.36730363      -0.00000000
Ge      11.22669434       2.45319512       4.12799487      -0.40613350       0.17365953      -0.39438865       0.00000000
Ge      11.34989418       6.78482816       4.03026160      -0.38357055      -0.20623383      -0.45004055       0.00000000
Ge      11.31120641      10.85757681       3.98405409      -0.14711789       0.24160327       0.32409906      -0.00000000
Ge       0.65070894       1.71889989       6.93117439      -0.00991486      -0.14184642       0.27837686       0.00000000
Ge       0.79387709       5.97640078       7.12142686       0.22700988      -0.08679955       0.00976817       0.00000000
Ge       0.83800914      10.17449316       7.06647570       0.07144577       0.25197812       0.14349123       0.00000000
Ge       5.01474917       1.75274763       6.87221698      -0.16296877       0.22403587       0.17366531       0.00000000
Ge       4.81758197       6.06107113       7.08871987       0.26641227       0.02339464      -0.88968923       0.00000000
Ge       5.01033092      10.36711019       6.91165763       0.01532280      -0.44409234      -0.37772948       0.00000000
Ge       9.00307505       1.95026364       7.05825226      -0.04270174      -0.21542977       0.09919296       0.00000000
Ge       9.32309220       5.87465820       6.84917781      -0.43114920       0.27861941      -0.12288271      -0.00000000
Ge       3.10545710       6.72159696       4.18025639       0.16748477       0.19849511       0.17709882       0.00000000
Ge       2.82071137       2.67238794       4.22040110       0.02459138      -0.06069333       0.09606114       0.00000000
Ge       9.22085032      10.06903761       6.97146021      -0.53335098       0.18474437       0.14217846      -0.00000000
Ge      11.15775754       8.19212383       9.69884566      -0.06108171       0.00992422       0.12910003       0.00000000
Ge      11.20557478      12.27444033       9.66211703      -0.31553805      -0.45519796       0.01593212       0.00000000
Ge       0.92059130       4.69424381       1.42247156      -0.24053804       0.13950022      -0.47304426       0.00000000
Ge       1.05481072       8.74276018       1.46186513      -0.21417502       0.19999690      -0.09789096       0.00000000
Ge       5.00124523       0.64145336       1.72770673       0.45337386      -0.08066737      -0.66068203       0.00000000
Ge       4.97632271       4.82940966       1.28310876       0.18469349      -0.12447773      -0.11515159       0.00000000
Ge       9.07673519       0.48183540       1.29483819       0.20852736       0.46534554       0.30584608      -0.00000000
Ge       8.97478455       4.72807260       1.38845757       0.29961084       0.07377978       0.67321943       0.00000000
Ge       5.06428221       8.96205338       1.49834479       0.35744278      -0.40291461      -0.01410308      -0.00000000
Ge       2.72473895       3.72884626       9.67653480       0.32914813       0.31236312      -0.44855642       0.00000000
Ge       2.90681066       8.06136634       9.69983521      -0.26252043       0.51178778      -0.31875413       0.00000000
Ge       3.19919303      12.23165150       9.54087910      -0.14420010      -0.06847137       0.49033226       0.00000000
Ge       7.08527557       4.08304872       9.69648880      -0.10525761      -0.12459225      -0.44956509       0.00000000
Ge       7.08336545       7.94905446       9.50511951      -0.11048198       0.60225549      -0.19224008      -0.00000000
Ge       6.92781571      12.46889553       9.61684992       0.28757971      -0.42232778       0.17426954       0.00000000
Ge      11.13220944       3.88508606       9.76931348      -0.02204280       0.10990826       0.06869638       0.00000000
Ge       9.12061356       8.85030872       1.22072242       0.33504182      -0.06806643       0.55690361      -0.00000000
Se      10.87911675       0.04229039       7.13707015       0.51867626       0.40941032      -0.12923844      -0.00000000
Se       2.91213719       4.26088076       7.03071804      -0.48995249       0.01983585       0.64658847      -0.00000000
Se       2.90396250       8.61786844       7.09562324      -0.01396011      -0.30208419       0.35399717      -0.00000000
Se       7.02061537       0.08980877       7.11711309       0.23875321       0.33077014      -0.15344015      -0.00000000
Se       7.04235380       4.48221573       7.10714707      -0.14816630      -0.38533064       0.30937380      -0.00000000
Se       6.89191473       8.50765710       6.95159116       0.37659559      -0.08952327       0.32515501      -0.00000000
Se      11.19790702       4.13820955       7.21233954       0.25542219       0.11524061      -0.07732497      -0.00000000
Se       9.07004459       0.32193779       3.82854631       0.16994433      -0.54200269       0.20457458      -0.00000000
Se       0.94705036       0.11165614       3.89313200      -0.02314841      -0.19440700      -0.02177236      -0.00000000
Se       0.74094537       4.20245339       3.86073313       0.21102507       0.33642072       0.56136931      -0.00000000
Se       0.89938224       8.49613362       3.96309140       0.11844867       0.20508337       0.19763347      -0.00000000
Se       5.19500312      -0.03843504       4.11584705      -0.50833143       0.44457663       0.21226598      -0.00000000
Se       4.70562805       4.38330061       3.75551353       0.69482999       0.16128364       0.75330299      -0.00000000
Se       5.08736373       8.60938857       4.04284043      -0.37671237      -0.19740462      -0.22496095      -0.00000000
Se       2.87953028       0.10322311       7.11781501      -0.06395514       0.10167163      -0.43607675      -0.00000000
Se      11.20759720       8.48359058       7.19166396       0.23277010      -0.47198125      -0.36342181      -0.00000000
Se      11.22884367      10.51183249       1.54459060      -0.05816727       0.01787440      -0.39084069      -0.00000000
Se       3.09809785       2.29052394       1.73427388      -0.71711312      -0.45545236      -0.49045807      -0.00000000
Se      11.17584330       2.12938719       1.58657160       0.15570046      -0.12550670      -0.00331284      -0.00000000
Se       9.05809984       4.45127497       4.07470310       0.29023981      -0.53982282      -0.53765294      -0.00000000
Se       0.68982245       2.14189738       9.52647843       0.10272245      -0.23864965      -0.23042995      -0.00000000
Se       0.84092707       6.46386081       9.66360234       0.04011754      -0.32909288      -0.48053961      -0.00000000
Se       0.79488624      10.58204805       9.62034875       0.10188415       0.04380531      -0.29015013      -0.00000000
Se       4.92728603       2.20478084       9.48300647       0.10994491      -0.05647438      -0.06819592      -0.00000000
Se       4.83491767       6.44386762       9.48473077       0.32001221      -0.41922745       0.72838740      -0.00000000
Se       5.23984892      10.50901543       9.36361398      -0.63364071       0.29078885       0.79873038      -0.00000000
Se       9.00985339       2.29855001       9.62219908       0.00243102      -0.03065362      -0.21300020      -0.00000000
Se       9.06934630       6.34941488       9.36759216       0.34846991      -0.07495704       0.27253904      -0.00000000
Se       9.10416734      10.40840067       9.53915154      -0.03519750       0.51864503      -0.05421649      -0.00000000
Se       2.92217683       6.49344734       1.66358106      -0.16726234       0.03786661      -0.27073004      -0.00000000
Se       3.10481856      10.59961751       1.57737290      -0.52876044       0.19928665      -0.17871757      -0.00000000
Se       7.06170188       2.47565058       1.74407871      -0.15342355      -0.56316621      -0.97075299      -0.00000000
Se       7.07613609       6.48016080       1.64900276      -0.20554050      -0.01733982      -0.27622259      -0.00000000
Se       7.21323272      10.53343761       1.55591956      -0.41418352       0.18684857      -0.33357943      -0.00000000
Se      11.25433654       6.41543201       1.38905740       0.06153467      -0.26025380       0.76135745      -0.00000000
Se       9.24814414       8.38648738       3.96159243       0.09977967       0.46111544      -0.39498250      -0.00000000
72
Lattice="12.396684159979609 2.471331947e-07 1.2062149861e-06 2.494815049e-07 12.514490831777215 5.7698170785e-06 1.3869823077e-06 6.5720517519e-06 11.073436801573518" Properties=species:S:1:pos:R:3:forces:R:3:magmoms:R:1 energy=-300.53600021 stress="0.006077916001007222 0.0004161132245626637 0.0005585213442655173 0.0004161132245626637 -0.005126104159414782 -0.0008761373382786539 0.0005585213442655173 -0.0008761373382786539 -0.010270281320035601" dipole="_JSON [[0.0, 0.0, 0.0]]" magmom=0.0019671 free_energy=-300.53600021 pbc="T T T"
Ge       1.12927287       0.33347255       1.51258917      -0.17411904       0.13515527      -0.20676286      -0.00000000
Ge       2.92732234      11.07735974       4.14159195       0.37565434      -0.25409244      -0.06381153       0.00000000
Ge       7.05009490       2.80623252       4.32581312      -0.18072512      -0.40893248      -0.54506817       0.00000000
Ge       7.00390515       6.88497910       4.14026431       0.15557107       0.16361149      -0.29072714       0.00000000
Ge       7.27688393      10.92891110       4.11955432      -0.76284218      -0.10963219      -0.24099993       0.00000000
Ge      11.02672717       2.47323299       4.08059666       0.63738062      -0.11349336       0.11315330      -0.00000000
Ge      11.27373198       6.60324674       3.92546650       0.49369565       0.31872219       0.85656790       0.00000000
Ge      11.23565739      10.75549100       3.95211231       0.10147647       0.19377436      -0.11556885       0.00000000
Ge       0.70527012       1.89991516       7.07534220      -0.02345945      -0.41625436      -0.24780413      -0.00000000
Ge       0.93643488       5.98151873       7.08207412      -0.51642293       0.34589209      -0.36553622       0.00000000
Ge       0.89486969      10.18372513       7.11097002      -0.16372402       0.11931243      -0.43068810      -0.00000000
Ge       4.97501876       1.90210017       7.04385764      -0.28364753      -0.19992718      -0.05750377       0.00000000