 running  128 mpi-ranks, with    1 threads/rank, on    2 nodes
 distrk:  each k-point on   64 cores,    2 groups
 distr:  one band on    8 cores,    8 groups
 vasp.6.4.2 20Jul23 (build Oct 12 2023 10:31:02) complex                         
 POSCAR found type information on POSCAR GeSe
 POSCAR found :  2 types and      72 ions
 Reading from existing POTCAR
 -----------------------------------------------------------------------------
|                                                                             |
|           W    W    AA    RRRRR   N    N  II  N    N   GGGG   !!!           |
|           W    W   A  A   R    R  NN   N  II  NN   N  G    G  !!!           |
|           W    W  A    A  R    R  N N  N  II  N N  N  G       !!!           |
|           W WW W  AAAAAA  RRRRR   N  N N  II  N  N N  G  GGG   !            |
|           WW  WW  A    A  R   R   N   NN  II  N   NN  G    G                |
|           W    W  A    A  R    R  N    N  II  N    N   GGGG   !!!           |
|                                                                             |
|     You use a magnetic or noncollinear calculation, but did not specify     |
|     the initial magnetic moment with the MAGMOM tag. Note that a            |
|     default of 1 will be used for all atoms. This ferromagnetic setup       |
|     may break the symmetry of the crystal, in particular it may rule        |
|     out finding an antiferromagnetic solution. Thence, we recommend         |
|     setting the initial magnetic moment manually or verifying carefully     |
|     that this magnetic setup is desired.                                    |
|                                                                             |
 -----------------------------------------------------------------------------

 scaLAPACK will be used
 Reading from existing POTCAR
 -----------------------------------------------------------------------------
|                                                                             |
|               ----> ADVICE to this user running VASP <----                  |
|                                                                             |
|     You have a (more or less) 'large supercell' and for larger cells it     |
|     might be more efficient to use real-space projection operators.         |
|     Therefore, try LREAL= Auto in the INCAR file.                           |
|     Mind: For very accurate calculation, you might also keep the            |
|     reciprocal projection scheme (i.e. LREAL=.FALSE.).                      |
|                                                                             |
 -----------------------------------------------------------------------------

 LDA part: xc-table for Pade appr. of Perdew
 -----------------------------------------------------------------------------
|                                                                             |
|           W    W    AA    RRRRR   N    N  II  N    N   GGGG   !!!           |
|           W    W   A  A   R    R  NN   N  II  NN   N  G    G  !!!           |
|           W    W  A    A  R    R  N N  N  II  N N  N  G       !!!           |
|           W WW W  AAAAAA  RRRRR   N  N N  II  N  N N  G  GGG   !            |
|           WW  WW  A    A  R   R   N   NN  II  N   NN  G    G                |
|           W    W  A    A  R    R  N    N  II  N    N   GGGG   !!!           |
|                                                                             |
|     The number of bands has been changed from the values supplied in        |
|     the INCAR file. This is a result of running the parallel version.       |
|     The orbitals not found in the WAVECAR file will be initialized with     |
|     random numbers, which is usually adequate. For correlated               |
|     calculations, however, you should redo the groundstate calculation.     |
|     I found NBANDS = 220. Now, NBANDS = 224.                                |
|                                                                             |
 -----------------------------------------------------------------------------

 POSCAR, INCAR and KPOINTS ok, starting setup
 FFT: planning ... GRIDC
 FFT: planning ... GRID_SOFT
 FFT: planning ... GRID
 WAVECAR not read
 WARNING: random wavefunctions but no delay for mixing, default for NELMDL
 entering main loop
       N       E                     dE             d eps       ncg     rms          rms(c)
DAV:   1     0.181953993347E+04    0.18195E+04   -0.14202E+05  7168   0.135E+03
DAV:   2    -0.643343279962E+02   -0.18839E+04   -0.18081E+04  8496   0.205E+02
DAV:   3    -0.281609571066E+03   -0.21728E+03   -0.21161E+03  8528   0.692E+01
DAV:   4    -0.289615491637E+03   -0.80059E+01   -0.79175E+01  8808   0.131E+01
DAV:   5    -0.289890676551E+03   -0.27518E+00   -0.27438E+00  9032   0.210E+00    0.292E+01
DAV:   6    -0.289686703337E+03    0.20397E+00   -0.26203E+01  7928   0.761E+00    0.173E+01
DAV:   7    -0.296940172155E+03   -0.72535E+01   -0.85805E+00  7984   0.450E+00    0.913E+00
DAV:   8    -0.300156584695E+03   -0.32164E+01   -0.17426E+00  8168   0.227E+00    0.323E+00
DAV:   9    -0.300523931293E+03   -0.36735E+00   -0.41705E-01  9016   0.102E+00    0.145E+00
DAV:  10    -0.300621446809E+03   -0.97516E-01   -0.87812E-02  8176   0.450E-01    0.730E-01
DAV:  11    -0.300653222596E+03   -0.31776E-01   -0.36603E-02  8896   0.283E-01    0.284E-01
DAV:  12    -0.300656462268E+03   -0.32397E-02   -0.44922E-03  8528   0.120E-01    0.108E-01
DAV:  13    -0.300656582954E+03   -0.12069E-03   -0.65604E-04  9832   0.395E-02    0.458E-02
DAV:  14    -0.300656601830E+03   -0.18876E-04   -0.10065E-04  8240   0.192E-02    0.167E-02
DAV:  15    -0.300656604848E+03   -0.30182E-05   -0.16881E-05  8680   0.877E-03    0.750E-03
DAV:  16    -0.300656605374E+03   -0.52587E-06   -0.16168E-06  4888   0.276E-03
   1 F= -.30065661E+03 E0= -.30065661E+03  d E =-.364293E-12  mag=     0.0004
