 running  160 mpi-ranks, with    1 threads/rank, on   10 nodes
 distrk:  each k-point on   80 cores,    2 groups
 distr:  one band on    5 cores,   16 groups
 vasp.6.4.2 20Jul23 (build Oct 12 2023 10:31:02) complex                         
 POSCAR found type information on POSCAR GeSe
 POSCAR found :  2 types and       8 ions
 Reading from existing POTCAR
 scaLAPACK will be used
 Reading from existing POTCAR
 LDA part: xc-table for Pade appr. of Perdew
 POSCAR, INCAR and KPOINTS ok, starting setup
 FFT: planning ... GRIDC
 FFT: planning ... GRID_SOFT
 FFT: planning ... GRID
 WAVECAR not read
 entering main loop
       N       E                     dE             d eps       ncg     rms          rms(c)
DAV:   1     0.132468655545E+03    0.13247E+03   -0.12875E+04  2560   0.772E+02
DAV:   2    -0.251521624787E+02   -0.15762E+03   -0.15292E+03  3728   0.139E+02
DAV:   3    -0.340473075582E+02   -0.88951E+01   -0.88756E+01  3232   0.384E+01
DAV:   4    -0.341092916392E+02   -0.61984E-01   -0.61976E-01  3184   0.369E+00
DAV:   5    -0.341097076806E+02   -0.41604E-03   -0.41603E-03  3216   0.295E-01    0.646E+00
DAV:   6    -0.337041643474E+02    0.40554E+00   -0.82153E-01  3104   0.303E+00    0.405E+00
DAV:   7    -0.336923591291E+02    0.11805E-01   -0.23998E-01  2992   0.173E+00    0.131E+00
DAV:   8    -0.336905235275E+02    0.18356E-02   -0.25933E-02  2928   0.596E-01    0.176E-01
DAV:   9    -0.336908002462E+02   -0.27672E-03   -0.36650E-03  3040   0.266E-01    0.651E-02
DAV:  10    -0.336909108053E+02   -0.11056E-03   -0.31387E-04  3072   0.766E-02    0.235E-02
DAV:  11    -0.336909398807E+02   -0.29075E-04   -0.40890E-05  2928   0.287E-02    0.122E-02
DAV:  12    -0.336909406439E+02   -0.76321E-06   -0.65741E-06  3232   0.106E-02
   1 F= -.33690941E+02 E0= -.33690941E+02  d E =-.443243E-11
