 vasp.6.4.1 05Apr23 (build May 18 2023 13:19:41) complex                         
 executed on    LinuxNV_CrayMPICH date 2024.02.09  14:36:39
 running  256 mpi-ranks, with    1 threads/rank, on   14 nodes
 distrk:  each k-point on   32 cores,    8 groups
 distr:  one band on NCORE=   2 cores,   16 groups


--------------------------------------------------------------------------------------------------------


 INCAR:
   SIGMA = 0.010000
   EDIFF = 1.00e-06
   ALGO = N
   GGA = PE
   PREC = Accurate
   SYSTEM = 03_BS
   ICHARG = 11
   ISMEAR = 0
   ISPIN = 1
   ISTART = 1
   KPAR = 8
   LORBIT = 11
   NBANDS = 896
   NELMIN = 5
   NPAR = 16
   IVDW = 11
   LCHARG = .TRUE.
   LWAVE = .TRUE.
   LREAL = .FALSE.

 POTCAR:   PAW_PBE C 08Apr2002                    
 POTCAR:    PAW_PBE S 17Jan2003                   
 POTCAR:   PAW_PBE O 08Apr2002                    
 POTCAR:   PAW_PBE C 08Apr2002                    
   VRHFIN =C: s2p2                                                                                  
   LEXCH  = PE                                                                                      
   EATOM  =   147.1560 eV,   10.8157 Ry                                                             
                                                                                                    
   TITEL  = PAW_PBE C 08Apr2002                                                                     
   LULTRA =        F    use ultrasoft PP ?                                                          
   IUNSCR =        0    unscreen: 0-lin 1-nonlin 2-no                                               
   RPACOR =     .000    partial core radius                                                         
   POMASS =   12.011; ZVAL   =    4.000    mass and valenz                                          
   RCORE  =    1.500    outmost cutoff radius                                                       
   RWIGS  =    1.630; RWIGS  =     .863    wigner-seitz radius (au A)                               
   ENMAX  =  400.000; ENMIN  =  300.000 eV                                                          
   ICORE  =        2    local potential                                                             
   LCOR   =        T    correct aug charges                                                         
   LPAW   =        T    paw PP                                                                      
   EAUG   =  644.873                                                                                
   DEXC   =     .000                                                                                
   RMAX   =    2.266    core radius for proj-oper                                                   
   RAUG   =    1.300    factor for augmentation sphere                                              
   RDEP   =    1.501    radius for radial grids                                                     
   RDEPT  =    1.300    core radius for aug-charge                                                  
   QCUT   =   -5.516; QGAM   =   11.032    optimization parameters                                  
                                                                                                    
   Description                                                                                      
     l     E      TYP  RCUT    TYP  RCUT                                                            
     0   .000     23  1.200                                                                         
     0   .000     23  1.200                                                                         
     1   .000     23  1.500                                                                         
     1  2.500     23  1.500                                                                         
     2   .000      7  1.500                                                                         
  local pseudopotential read in
  atomic valenz-charges read in
  non local Contribution for L=            0  read in
    real space projection operators read in
  non local Contribution for L=            0  read in
    real space projection operators read in
  non local Contribution for L=            1  read in
    real space projection operators read in
  non local Contribution for L=            1  read in
    real space projection operators read in
    PAW grid and wavefunctions read in
 
   number of l-projection  operators is LMAX  =            4
   number of lm-projection operators is LMMAX =            8
 
 POTCAR:    PAW_PBE S 17Jan2003                   
   VRHFIN =S : s2p4                                                                                 
   LEXCH  = PE                                                                                      
   EATOM  =   276.8230 eV,   20.3459 Ry                                                             
                                                                                                    
   TITEL  = PAW_PBE S 17Jan2003                                                                     
   LULTRA =        F    use ultrasoft PP ?                                                          
   IUNSCR =        1    unscreen: 0-lin 1-nonlin 2-no                                               
   RPACOR =    1.500    partial core radius                                                         
   POMASS =   32.066; ZVAL   =    6.000    mass and valenz                                          
   RCORE  =    1.900    outmost cutoff radius                                                       
   RWIGS  =    2.200; RWIGS  =    1.164    wigner-seitz radius (au A)                               
   ENMAX  =  280.000; ENMIN  =  194.016 eV                                                          
   ICORE  =        2    local potential                                                             
   LCOR   =        T    correct aug charges                                                         
   LPAW   =        T    paw PP                                                                      
   EAUG   =  335.092                                                                                
   DEXC   =     .000                                                                                
   RMAX   =    2.867    core radius for proj-oper                                                   
   RAUG   =    1.300    factor for augmentation sphere                                              
   RDEP   =    1.954    radius for radial grids                                                     
   QCUT   =   -4.360; QGAM   =    8.721    optimization parameters                                  
                                                                                                    
   Description                                                                                      
     l     E      TYP  RCUT    TYP  RCUT                                                            
     0   .000     23  1.900                                                                         
     0   .000     23  1.900                                                                         
     1   .000     23  1.900                                                                         
     1   .000     23  1.900                                                                         
     2   .000     23  1.900                                                                         
  local pseudopotential read in
  partial core-charges read in
  atomic valenz-charges read in
  non local Contribution for L=            0  read in
    real space projection operators read in
  non local Contribution for L=            0  read in
    real space projection operators read in
  non local Contribution for L=            1  read in
    real space projection operators read in
  non local Contribution for L=            1  read in
    real space projection operators read in
    PAW grid and wavefunctions read in
 
   number of l-projection  operators is LMAX  =            4
   number of lm-projection operators is LMMAX =            8
 
 POTCAR:   PAW_PBE O 08Apr2002                    
   VRHFIN =O: s2p4                                                                                  
   LEXCH  = PE                                                                                      
   EATOM  =   432.3788 eV,   31.7789 Ry                                                             
                                                                                                    
   TITEL  = PAW_PBE O 08Apr2002                                                                     
   LULTRA =        F    use ultrasoft PP ?                                                          
   IUNSCR =        0    unscreen: 0-lin 1-nonlin 2-no                                               
   RPACOR =     .000    partial core radius                                                         
   POMASS =   16.000; ZVAL   =    6.000    mass and valenz                                          
   RCORE  =    1.520    outmost cutoff radius                                                       
   RWIGS  =    1.550; RWIGS  =     .820    wigner-seitz radius (au A)                               
   ENMAX  =  400.000; ENMIN  =  300.000 eV                                                          
   ICORE  =        2    local potential                                                             
   LCOR   =        T    correct aug charges                                                         
   LPAW   =        T    paw PP                                                                      
   EAUG   =  605.392                                                                                
   DEXC   =     .000                                                                                
   RMAX   =    2.264    core radius for proj-oper                                                   
   RAUG   =    1.300    factor for augmentation sphere                                              
   RDEP   =    1.550    radius for radial grids                                                     
   QCUT   =   -5.520; QGAM   =   11.041    optimization parameters                                  
                                                                                                    
   Description                                                                                      
     l     E      TYP  RCUT    TYP  RCUT                                                            
     0   .000     23  1.200                                                                         
     0  -.700     23  1.200                                                                         
     1   .000     23  1.520                                                                         
     1   .600     23  1.520                                                                         
     2   .000      7  1.500                                                                         
  local pseudopotential read in
  atomic valenz-charges read in
  non local Contribution for L=            0  read in
    real space projection operators read in
  non local Contribution for L=            0  read in
    real space projection operators read in
  non local Contribution for L=            1  read in
    real space projection operators read in
  non local Contribution for L=            1  read in
    real space projection operators read in
    PAW grid and wavefunctions read in
 
   number of l-projection  operators is LMAX  =            4
   number of lm-projection operators is LMMAX =            8
 
 -----------------------------------------------------------------------------
|                                                                             |
|               ----> ADVICE to this user running VASP <----                  |
|                                                                             |
|     You have a (more or less) 'large supercell' and for larger cells it     |
|     might be more efficient to use real-space projection operators.         |
|     Therefore, try LREAL= Auto in the INCAR file.                           |
|     Mind: If you want to do very accurate calculations, keep the            |
|     reciprocal projection scheme (i.e. LREAL=.FALSE.).                      |
|                                                                             |
 -----------------------------------------------------------------------------

 PAW_PBE C 08Apr2002                    :
 energy of atom  1       EATOM= -147.1560
 kinetic energy error for atom=    0.0288 (will be added to EATOM!!)
  PAW_PBE S 17Jan2003                   :
 energy of atom  2       EATOM= -276.8230
 kinetic energy error for atom=    0.0046 (will be added to EATOM!!)
 PAW_PBE O 08Apr2002                    :
 energy of atom  3       EATOM= -432.3788
 kinetic energy error for atom=    0.1156 (will be added to EATOM!!)
 
 
 POSCAR:  C  S  O
  positions in cartesian coordinates
  No initial velocities read in
 exchange correlation table for  LEXCH =        8
   RHO(1)=    0.500       N(1)  =     2000
   RHO(2)=  100.500       N(2)  =     4000
 


--------------------------------------------------------------------------------------------------------


 ion  position               nearest neighbor table
   1  0.371  0.538  0.002-  85 1.42 363 1.42 288 1.43
   2  0.369  0.544  0.063- 108 1.42  85 1.42   3 1.43
   3  0.338  0.595  0.061-   4 1.42   8 1.42   2 1.43
   4  0.320  0.611  0.030-   3 1.42 288 1.42   5 1.43
   5  0.278  0.629  0.028- 310 1.42  10 1.42   4 1.43
   6  0.366  0.549  0.123- 131 1.42 108 1.42   7 1.43
   7  0.335  0.599  0.122-   8 1.42  16 1.42   6 1.43
   8  0.317  0.614  0.090-   7 1.42   3 1.42   9 1.43
   9  0.274  0.629  0.089-  10 1.42  18 1.42   8 1.43
  10  0.254  0.627  0.057-   9 1.42   5 1.42  11 1.43
  11  0.212  0.603  0.056-  12 1.42  20 1.42  10 1.43
  12  0.196  0.584  0.024-  11 1.42 311 1.42  13 1.43
  13  0.168  0.528  0.023- 329 1.42  22 1.42  12 1.43
  14  0.364  0.555  0.184- 154 1.42 131 1.42  15 1.43
  15  0.331  0.602  0.182-  16 1.42  28 1.42  14 1.43
  16  0.313  0.617  0.151-  15 1.42   7 1.42  17 1.43
  17  0.270  0.629  0.149-  18 1.42  30 1.42  16 1.43
  18  0.249  0.626  0.118-  17 1.42   9 1.42  19 1.43
  19  0.209  0.599  0.116-  20 1.42  32 1.42  18 1.43
  20  0.192  0.579  0.085-  19 1.42  11 1.42  21 1.43
  21  0.166  0.522  0.083-  22 1.42  34 1.42  20 1.43
  22  0.159  0.491  0.052-  21 1.42  13 1.42  23 1.43
  23  0.155  0.420  0.050-  24 1.42  36 1.42  22 1.43
  24  0.159  0.388  0.019-  23 1.42 330 1.42  25 1.43
  25  0.178  0.324  0.017- 344 1.42  38 1.42  24 1.43
  26  0.361  0.560  0.244- 177 1.42 154 1.42  27 1.43
  27  0.327  0.606  0.242-  28 1.42  45 1.42  26 1.43
  28  0.309  0.619  0.211-  27 1.42  15 1.42  29 1.43
  29  0.265  0.629  0.209-  30 1.42  47 1.42  28 1.43
  30  0.245  0.624  0.178-  29 1.42  17 1.42  31 1.43
  31  0.205  0.596  0.176-  32 1.42  49 1.42  30 1.43
  32  0.189  0.575  0.145-  31 1.42  19 1.42  33 1.43
  33  0.164  0.516  0.143-  34 1.42  51 1.42  32 1.43
  34  0.158  0.485  0.112-  33 1.42  21 1.42  35 1.43
  35  0.155  0.414  0.110-  36 1.42  53 1.42  34 1.43
  36  0.160  0.382  0.079-  35 1.42  23 1.42  37 1.43
  37  0.181  0.319  0.078-  38 1.42  55 1.42  36 1.43
  38  0.195  0.295  0.046-  37 1.42  25 1.42  39 1.43
  39  0.233  0.260  0.045-  40 1.42  57 1.42  38 1.43
  40  0.253  0.252  0.013-  39 1.42 345 1.42  41 1.43
  41  0.297  0.254  0.012- 355 1.42  59 1.42  40 1.43
  42  0.370  0.538  0.336-  43 1.42  64 1.42 199 1.43
  43  0.358  0.565  0.305-  42 1.42 177 1.42  44 1.43
  44  0.324  0.609  0.303-  45 1.42  66 1.42  43 1.43
  45  0.305  0.621  0.272-  44 1.42  27 1.42  46 1.43
  46  0.261  0.629  0.270-  47 1.42  68 1.42  45 1.43
  47  0.241  0.623  0.239-  46 1.42  29 1.42  48 1.43
  48  0.202  0.592  0.237-  49 1.42  70 1.42  47 1.43
  49  0.187  0.570  0.206-  48 1.42  31 1.42  50 1.43
  50  0.163  0.510  0.204-  51 1.42  72 1.42  49 1.43
  51  0.157  0.479  0.173-  50 1.42  33 1.42  52 1.43
  52  0.156  0.407  0.171-  53 1.42  74 1.42  51 1.43
  53  0.161  0.375  0.140-  52 1.42  35 1.42  54 1.43
  54  0.183  0.314  0.138-  55 1.42  76 1.42  53 1.43
  55  0.198  0.291  0.107-  54 1.42  37 1.42  56 1.43
  56  0.237  0.258  0.105-  57 1.42  78 1.42  55 1.43
  57  0.257  0.251  0.074-  56 1.42  39 1.42  58 1.43
  58  0.301  0.255  0.072-  59 1.42  80 1.42  57 1.43
  59  0.320  0.267  0.041-  58 1.42  41 1.42  60 1.43
  60  0.356  0.308  0.039-  61 1.42  82 1.42  59 1.43
  61  0.368  0.334  0.008-  60 1.42 356 1.42  62 1.43
  62  0.386  0.399  0.006- 362 1.42  84 1.42  61 1.43
  63  0.368  0.544  0.396-  64 1.42  87 1.42 221 1.43
  64  0.355  0.570  0.365-  63 1.42  42 1.42  65 1.43
  65  0.320  0.612  0.363-  66 1.42  89 1.42  64 1.43
  66  0.301  0.623  0.332-  65 1.42  44 1.42  67 1.43
  67  0.257  0.628  0.330-  68 1.42  91 1.42  66 1.43
  68  0.237  0.622  0.299-  67 1.42  46 1.42  69 1.43
  69  0.198  0.588  0.297-  70 1.42  93 1.42  68 1.43
  70  0.184  0.566  0.266-  69 1.42  48 1.42  71 1.43
  71  0.161  0.504  0.264-  72 1.42  95 1.42  70 1.43
  72  0.156  0.472  0.233-  71 1.42  50 1.42  73 1.43
  73  0.157  0.401  0.231-  74 1.42  97 1.42  72 1.43
  74  0.162  0.369  0.200-  73 1.42  52 1.42  75 1.43
  75  0.186  0.309  0.198-  76 1.42  99 1.42  74 1.43
  76  0.201  0.287  0.167-  75 1.42  54 1.42  77 1.43
  77  0.241  0.256  0.165-  78 1.42 101 1.42  76 1.43
  78  0.261  0.250  0.134-  77 1.42  56 1.42  79 1.43
  79  0.305  0.257  0.133-  80 1.42 103 1.42  78 1.43
  80  0.323  0.269  0.101-  79 1.42  58 1.42  81 1.43
  81  0.358  0.313  0.100-  82 1.42 105 1.42  80 1.43
  82  0.371  0.339  0.068-  81 1.42  60 1.42  83 1.43
  83  0.386  0.406  0.067-  84 1.42 107 1.42  82 1.43
  84  0.388  0.439  0.035-  83 1.42  62 1.42  85 1.43
  85  0.380  0.509  0.034-   1 1.42   2 1.42  84 1.43
  86  0.365  0.549  0.457-  87 1.42 110 1.42 243 1.42
  87  0.352  0.575  0.426-  86 1.42  63 1.42  88 1.43
  88  0.316  0.615  0.424-  89 1.42 112 1.42  87 1.43
  89  0.297  0.625  0.393-  88 1.42  65 1.42  90 1.43
  90  0.253  0.628  0.391-  91 1.42 114 1.42  89 1.43
  91  0.233  0.620  0.360-  90 1.42  67 1.42  92 1.43
  92  0.195  0.584  0.358-  93 1.42 116 1.42  91 1.43
  93  0.181  0.561  0.327-  92 1.42  69 1.42  94 1.43
  94  0.160  0.498  0.325-  95 1.42 118 1.42  93 1.43
  95  0.155  0.466  0.294-  94 1.42  71 1.42  96 1.43
  96  0.158  0.394  0.292-  97 1.42 120 1.42  95 1.43
  97  0.164  0.363  0.261-  96 1.42  73 1.42  98 1.43
  98  0.189  0.304  0.259-  99 1.42 122 1.42  97 1.43
  99  0.204  0.283  0.228-  98 1.42  75 1.42 100 1.43
 100  0.245  0.254  0.226- 101 1.42 124 1.42  99 1.43
 101  0.265  0.249  0.195- 100 1.42  77 1.42 102 1.43
 102  0.308  0.259  0.193- 103 1.42 126 1.42 101 1.43
 103  0.327  0.272  0.162- 102 1.42  79 1.42 104 1.43
 104  0.361  0.318  0.160- 105 1.42 128 1.42 103 1.43
 105  0.373  0.345  0.129- 104 1.42  81 1.42 106 1.43
 106  0.387  0.412  0.127- 107 1.42 130 1.42 105 1.43
 107  0.388  0.445  0.096- 106 1.42  83 1.42 108 1.43
 108  0.378  0.515  0.094-   2 1.42   6 1.42 107 1.43
 109  0.363  0.555  0.517- 110 1.42 133 1.42 265 1.42
 110  0.349  0.579  0.486- 109 1.42  86 1.42 111 1.43
 111  0.312  0.617  0.484- 112 1.42 135 1.42 110 1.43
 112  0.293  0.627  0.453- 111 1.42  88 1.42 113 1.43
 113  0.249  0.627  0.451- 114 1.42 137 1.42 112 1.43
 114  0.229  0.618  0.420- 113 1.42  90 1.42 115 1.43
 115  0.192  0.580  0.418- 116 1.42 139 1.42 114 1.43
 116  0.179  0.556  0.387- 115 1.42  92 1.42 117 1.43
 117  0.159  0.492  0.385- 118 1.42 141 1.42 116 1.43
 118  0.155  0.459  0.354- 117 1.42  94 1.42 119 1.43
 119  0.159  0.388  0.352- 120 1.42 143 1.42 118 1.43
 120  0.166  0.357  0.321- 119 1.42  96 1.42 121 1.43
 121  0.192  0.299  0.319- 122 1.42 145 1.42 120 1.43
 122  0.208  0.279  0.288- 121 1.42  98 1.42 123 1.43
 123  0.248  0.252  0.286- 124 1.42 147 1.42 122 1.43
 124  0.269  0.249  0.255- 123 1.42 100 1.42 125 1.43
 125  0.312  0.261  0.253- 126 1.42 149 1.42 124 1.43
 126  0.330  0.275  0.222- 125 1.42 102 1.42 127 1.43
 127  0.363  0.323  0.221- 128 1.42 151 1.42 126 1.43
 128  0.374  0.350  0.189- 127 1.42 104 1.42 129 1.43
 129  0.387  0.419  0.188- 130 1.42 153 1.42 128 1.43
 130  0.388  0.452  0.156- 129 1.42 106 1.42 131 1.43
 131  0.377  0.521  0.155-   6 1.42  14 1.42 130 1.43
 132  0.361  0.560  0.578- 133 1.42 156 1.42 287 1.43
 133  0.347  0.584  0.546- 132 1.42 109 1.42 134 1.43
 134  0.309  0.620  0.545- 135 1.42 158 1.42 133 1.43
 135  0.289  0.628  0.513- 134 1.42 111 1.42 136 1.43
 136  0.245  0.626  0.512- 137 1.42 160 1.42 135 1.43
 137  0.226  0.616  0.480- 136 1.42 113 1.42 138 1.43
 138  0.189  0.576  0.479- 139 1.42 162 1.42 137 1.43
 139  0.176  0.550  0.447- 138 1.42 115 1.42 140 1.43
 140  0.158  0.485  0.446- 141 1.42 164 1.42 139 1.43
 141  0.155  0.453  0.415- 140 1.42 117 1.42 142 1.43
 142  0.160  0.382  0.413- 143 1.42 166 1.42 141 1.43
 143  0.167  0.351  0.382- 142 1.42 119 1.42 144 1.43
 144  0.194  0.295  0.380- 145 1.42 168 1.42 143 1.43
 145  0.211  0.276  0.349- 144 1.42 121 1.42 146 1.43
 146  0.252  0.251  0.347- 147 1.42 170 1.42 145 1.43
 147  0.272  0.249  0.316- 146 1.42 123 1.42 148 1.43
 148  0.316  0.263  0.314- 149 1.42 172 1.42 147 1.43
 149  0.334  0.279  0.283- 148 1.42 125 1.42 150 1.43
 150  0.365  0.328  0.281- 151 1.42 174 1.42 149 1.43
 151  0.376  0.356  0.250- 150 1.42 127 1.42 152 1.43
 152  0.387  0.425  0.248- 153 1.42 176 1.42 151 1.43
 153  0.387  0.458  0.217- 152 1.42 129 1.42 154 1.43
 154  0.375  0.527  0.215-  14 1.42  26 1.42 153 1.43
 155  0.358  0.565  0.638- 156 1.42 179 1.42 309 1.43
 156  0.344  0.588  0.607- 155 1.42 132 1.42 157 1.43
 157  0.305  0.622  0.605- 158 1.42 181 1.42 156 1.43
 158  0.285  0.629  0.574- 157 1.42 134 1.42 159 1.43
 159  0.241  0.624  0.572- 160 1.42 183 1.42 158 1.43
 160  0.222  0.613  0.541- 159 1.42 136 1.42 161 1.43
 161  0.186  0.571  0.539- 162 1.42 185 1.42 160 1.43
 162  0.174  0.545  0.508- 161 1.42 138 1.42 163 1.43
 163  0.157  0.479  0.506- 164 1.42 187 1.42 162 1.43
 164  0.155  0.446  0.475- 163 1.42 140 1.42 165 1.43
 165  0.161  0.376  0.473- 166 1.42 189 1.42 164 1.43
 166  0.169  0.346  0.442- 165 1.42 142 1.42 167 1.43
 167  0.198  0.291  0.440- 168 1.42 191 1.42 166 1.43
 168  0.214  0.272  0.409- 167 1.42 144 1.42 169 1.43
 169  0.256  0.250  0.407- 170 1.42 193 1.42 168 1.43
 170  0.276  0.248  0.376- 169 1.42 146 1.42 171 1.43
 171  0.319  0.266  0.374- 195 1.42 172 1.42 170 1.43
 172  0.337  0.282  0.343- 171 1.42 148 1.42 173 1.43
 173  0.367  0.333  0.341- 174 1.42 197 1.42 172 1.43
 174  0.377  0.362  0.310- 173 1.42 150 1.42 175 1.43
 175  0.387  0.432  0.308- 176 1.42 199 1.42 174 1.43
 176  0.386  0.465  0.277- 175 1.42 152 1.42 177 1.43
 177  0.372  0.533  0.275-  26 1.42  43 1.42 176 1.43
 178  0.356  0.569  0.698- 179 1.42 201 1.42 328 1.43
 179  0.341  0.592  0.667- 178 1.42 155 1.42 180 1.43
 180  0.301  0.623  0.666- 181 1.42 203 1.42 179 1.43
 181  0.281  0.629  0.634- 180 1.42 157 1.42 182 1.43
 182  0.237  0.622  0.633- 183 1.42 205 1.42 181 1.43
 183  0.218  0.610  0.601- 182 1.42 159 1.42 184 1.43
 184  0.184  0.566  0.600- 185 1.42 207 1.42 183 1.43
 185  0.172  0.539  0.568- 184 1.42 161 1.42 186 1.43
 186  0.156  0.473  0.567- 187 1.42 209 1.42 185 1.43
 187  0.154  0.440  0.535- 186 1.42 163 1.42 188 1.43
 188  0.162  0.369  0.534- 189 1.42 211 1.42 187 1.43
 189  0.171  0.340  0.502- 188 1.42 165 1.42 190 1.43
 190  0.201  0.286  0.501- 191 1.42 213 1.42 189 1.43
 191  0.218  0.269  0.469- 190 1.42 167 1.42 192 1.43
 192  0.260  0.249  0.468- 193 1.42 215 1.42 191 1.43
 193  0.280  0.249  0.437- 192 1.42 169 1.42 194 1.43
 194  0.323  0.268  0.435- 195 1.42 217 1.42 193 1.43
 195  0.340  0.286  0.404- 194 1.42 171 1.42 196 1.43
 196  0.369  0.339  0.402- 219 1.42 197 1.42 195 1.43
 197  0.379  0.368  0.371- 196 1.42 173 1.42 198 1.43
 198  0.387  0.438  0.369- 199 1.42 221 1.42 197 1.43
 199  0.385  0.471  0.338- 198 1.42 175 1.42  42 1.43
 200  0.353  0.574  0.759- 201 1.42 223 1.42 343 1.43
 201  0.338  0.595  0.728- 200 1.42 178 1.42 202 1.43
 202  0.297  0.624  0.726- 203 1.42 225 1.42 201 1.43
 203  0.277  0.629  0.695- 202 1.42 180 1.42 204 1.43
 204  0.234  0.620  0.693- 205 1.42 227 1.42 203 1.43
 205  0.215  0.606  0.662- 204 1.42 182 1.42 206 1.43
 206  0.181  0.561  0.660- 207 1.42 229 1.42 205 1.43
 207  0.170  0.534  0.629- 206 1.42 184 1.42 208 1.43
 208  0.155  0.466  0.627- 209 1.42 231 1.42 207 1.43
 209  0.154  0.433  0.596- 208 1.42 186 1.42 210 1.43
 210  0.164  0.363  0.594- 211 1.42 233 1.42 209 1.43
 211  0.174  0.334  0.563- 210 1.42 188 1.42 212 1.43
 212  0.204  0.283  0.561- 213 1.42 235 1.42 211 1.43
 213  0.221  0.266  0.530- 212 1.42 190 1.42 214 1.43
 214  0.264  0.248  0.528- 215 1.42 237 1.42 213 1.43
 215  0.284  0.249  0.497- 214 1.42 192 1.42 216 1.43
 216  0.326  0.271  0.495- 217 1.42 239 1.42 215 1.43
 217  0.343  0.290  0.464- 216 1.42 194 1.42 218 1.43
 218  0.371  0.344  0.462- 241 1.42 219 1.42 217 1.43
 219  0.380  0.374  0.431- 196 1.42 218 1.42 220 1.43
 220  0.386  0.445  0.429- 221 1.42 243 1.42 219 1.43
 221  0.384  0.478  0.398- 220 1.42 198 1.42  63 1.43
 222  0.350  0.579  0.819- 223 1.42 245 1.42 354 1.43
 223  0.334  0.599  0.788- 222 1.42 200 1.42 224 1.43
 224  0.294  0.626  0.786- 225 1.42 247 1.42 223 1.43
 225  0.273  0.629  0.755- 224 1.42 202 1.42 226 1.43
 226  0.230  0.617  0.753- 227 1.42 249 1.42 225 1.43
 227  0.212  0.603  0.722- 226 1.42 204 1.42 228 1.43
 228  0.179  0.556  0.721- 229 1.42 251 1.42 227 1.43
 229  0.168  0.528  0.689- 228 1.42 206 1.42 230 1.43
 230  0.155  0.460  0.688- 231 1.42 253 1.42 229 1.43
 231  0.155  0.427  0.656- 230 1.42 208 1.42 232 1.43
 232  0.166  0.357  0.655- 233 1.42 255 1.42 231 1.43
 233  0.176  0.329  0.623- 232 1.42 210 1.42 234 1.43
 234  0.207  0.279  0.622- 235 1.42 257 1.42 233 1.43
 235  0.225  0.263  0.590- 234 1.42 212 1.42 236 1.43
 236  0.268  0.248  0.589- 237 1.42 259 1.42 235 1.43
 237  0.288  0.250  0.557- 236 1.42 214 1.42 238 1.43
 238  0.330  0.274  0.556- 239 1.42 261 1.42 237 1.43
 239  0.346  0.294  0.524- 238 1.42 216 1.42 240 1.43
 240  0.373  0.350  0.523- 241 1.42 263 1.42 239 1.43
 241  0.381  0.380  0.491- 240 1.42 218 1.42 242 1.43
 242  0.387  0.451  0.490- 243 1.42 265 1.42 241 1.43
 243  0.383  0.484  0.458- 220 1.42 242 1.42  86 1.42
 244  0.348  0.583  0.880- 245 1.42 267 1.42 361 1.43
 245  0.331  0.602  0.849- 244 1.42 222 1.42 246 1.43
 246  0.290  0.627  0.847- 247 1.42 269 1.42 245 1.43
 247  0.269  0.629  0.816- 246 1.42 224 1.42 248 1.43
 248  0.226  0.615  0.814- 249 1.42 271 1.42 247 1.43
 249  0.208  0.599  0.783- 248 1.42 226 1.42 250 1.43
 250  0.176  0.550  0.781- 251 1.42 273 1.42 249 1.43
 251  0.166  0.522  0.750- 250 1.42 228 1.42 252 1.43
 252  0.155  0.453  0.748- 253 1.42 275 1.42 251 1.43
 253  0.155  0.420  0.717- 252 1.42 230 1.42 254 1.43
 254  0.167  0.352  0.715- 255 1.42 277 1.42 253 1.43
 255  0.178  0.324  0.684- 254 1.42 232 1.42 256 1.43
 256  0.211  0.276  0.682- 257 1.42 279 1.42 255 1.43
 257  0.229  0.261  0.651- 256 1.42 234 1.42 258 1.43
 258  0.272  0.249  0.649- 259 1.42 281 1.42 257 1.43
 259  0.292  0.252  0.618- 258 1.42 236 1.42 260 1.43
 260  0.333  0.278  0.616- 261 1.42 283 1.42 259 1.43
 261  0.349  0.298  0.585- 260 1.42 238 1.42 262 1.43
 262  0.375  0.356  0.583- 263 1.42 285 1.42 261 1.43
 263  0.382  0.387  0.552- 262 1.42 240 1.42 264 1.43
 264  0.386  0.458  0.550- 265 1.42 287 1.42 263 1.43
 265  0.382  0.490  0.519- 264 1.42 109 1.42 242 1.42
 266  0.345  0.587  0.940- 267 1.42 289 1.42 364 1.43
 267  0.328  0.605  0.909- 266 1.42 244 1.42 268 1.43
 268  0.286  0.628  0.907- 269 1.42 291 1.42 267 1.43
 269  0.266  0.629  0.876- 268 1.42 246 1.42 270 1.43
 270  0.223  0.612  0.874- 271 1.42 293 1.42 269 1.43
 271  0.205  0.596  0.843- 270 1.42 248 1.42 272 1.43
 272  0.174  0.545  0.841- 273 1.42 295 1.42 271 1.43
 273  0.164  0.516  0.810- 272 1.42 250 1.42 274 1.43
 274  0.154  0.446  0.808- 275 1.42 297 1.42 273 1.43
 275  0.155  0.414  0.777- 274 1.42 252 1.42 276 1.43
 276  0.169  0.346  0.775- 277 1.42 299 1.42 275 1.43
 277  0.181  0.319  0.744- 276 1.42 254 1.42 278 1.43
 278  0.214  0.273  0.742- 279 1.42 301 1.42 277 1.43
 279  0.233  0.259  0.711- 278 1.42 256 1.42 280 1.43
 280  0.276  0.249  0.709- 281 1.42 303 1.42 279 1.43
 281  0.296  0.253  0.678- 280 1.42 258 1.42 282 1.43
 282  0.337  0.282  0.676- 283 1.42 305 1.42 281 1.43
 283  0.352  0.303  0.645- 282 1.42 260 1.42 284 1.43
 284  0.377  0.362  0.643- 285 1.42 307 1.42 283 1.43
 285  0.383  0.393  0.612- 284 1.42 262 1.42 286 1.43
 286  0.386  0.464  0.610- 287 1.42 309 1.42 285 1.43
 287  0.381  0.497  0.579- 264 1.42 286 1.42 132 1.43
 288  0.341  0.591  0.001- 289 1.42   4 1.42   1 1.43
 289  0.324  0.609  0.969- 288 1.42 266 1.42 290 1.43
 290  0.282  0.628  0.968- 291 1.42 310 1.42 289 1.43
 291  0.262  0.628  0.937- 290 1.42 268 1.42 292 1.43
 292  0.219  0.609  0.935- 293 1.42 312 1.42 291 1.43
 293  0.202  0.592  0.904- 292 1.42 270 1.42 294 1.43
 294  0.172  0.539  0.902- 295 1.42 314 1.42 293 1.43
 295  0.163  0.510  0.871- 294 1.42 272 1.42 296 1.43
 296  0.154  0.440  0.869- 297 1.42 316 1.42 295 1.43
 297  0.156  0.407  0.838- 296 1.42 274 1.42 298 1.43
 298  0.171  0.340  0.836- 299 1.42 318 1.42 297 1.43
 299  0.183  0.314  0.805- 298 1.42 276 1.42 300 1.43
 300  0.218  0.270  0.803- 301 1.42 320 1.42 299 1.43
 301  0.237  0.257  0.772- 300 1.42 278 1.42 302 1.43
 302  0.281  0.250  0.770- 303 1.42 322 1.42 301 1.43
 303  0.301  0.255  0.739- 302 1.42 280 1.42 304 1.43
 304  0.340  0.286  0.737- 305 1.42 324 1.42 303 1.43
 305  0.355  0.308  0.706- 304 1.42 282 1.42 306 1.43
 306  0.379  0.368  0.704- 307 1.42 326 1.42 305 1.43
 307  0.385  0.400  0.673- 306 1.42 284 1.42 308 1.43
 308  0.386  0.471  0.671- 309 1.42 328 1.42 307 1.43
 309  0.380  0.503  0.640- 308 1.42 286 1.42 155 1.43
 310  0.258  0.628  0.997-   5 1.42 290 1.42 311 1.43
 311  0.216  0.606  0.995- 312 1.42  12 1.42 310 1.43
 312  0.199  0.588  0.964- 311 1.42 292 1.42 313 1.43
 313  0.170  0.534  0.962- 314 1.42 329 1.42 312 1.43
 314  0.161  0.504  0.931- 313 1.42 294 1.42 315 1.43
 315  0.154  0.433  0.929- 316 1.42 331 1.42 314 1.43
 316  0.157  0.401  0.898- 315 1.42 296 1.42 317 1.43
 317  0.174  0.335  0.896- 318 1.42 333 1.42 316 1.43
 318  0.186  0.309  0.865- 317 1.42 298 1.42 319 1.43
 319  0.222  0.267  0.863- 320 1.42 335 1.42 318 1.43
 320  0.241  0.256  0.832- 319 1.42 300 1.42 321 1.43
 321  0.285  0.251  0.830- 322 1.42 337 1.42 320 1.43
 322  0.305  0.257  0.799- 321 1.42 302 1.42 323 1.43
 323  0.344  0.290  0.797- 324 1.42 339 1.42 322 1.43
 324  0.358  0.313  0.766- 323 1.42 304 1.42 325 1.43
 325  0.381  0.374  0.764- 326 1.42 341 1.42 324 1.43
 326  0.386  0.406  0.733- 325 1.42 306 1.42 327 1.43
 327  0.385  0.477  0.731- 328 1.42 343 1.42 326 1.43
 328  0.379  0.509  0.700- 327 1.42 308 1.42 178 1.43
 329  0.160  0.498  0.991-  13 1.42 313 1.42 330 1.43
 330  0.155  0.427  0.990- 331 1.42  24 1.42 329 1.43
 331  0.158  0.394  0.959- 330 1.42 315 1.42 332 1.43
 332  0.176  0.329  0.957- 333 1.42 344 1.42 331 1.43
 333  0.189  0.304  0.926- 332 1.42 317 1.42 334 1.43
 334  0.226  0.264  0.924- 335 1.42 346 1.42 333 1.43
 335  0.245  0.254  0.893- 334 1.42 319 1.42 336 1.43
 336  0.289  0.251  0.891- 337 1.42 348 1.42 335 1.43
 337  0.308  0.259  0.860- 336 1.42 321 1.42 338 1.43
 338  0.347  0.294  0.858- 339 1.42 350 1.42 337 1.43
 339  0.361  0.318  0.827- 338 1.42 323 1.42 340 1.43
 340  0.382  0.380  0.825- 341 1.42 352 1.42 339 1.43
 341  0.387  0.412  0.794- 340 1.42 325 1.42 342 1.43
 342  0.385  0.484  0.792- 343 1.42 354 1.42 341 1.43
 343  0.378  0.515  0.761- 342 1.42 327 1.42 200 1.43
 344  0.192  0.300  0.986-  25 1.42 332 1.42 345 1.43
 345  0.229  0.262  0.984- 346 1.42  40 1.42 344 1.43
 346  0.249  0.253  0.953- 345 1.42 334 1.42 347 1.43
 347  0.293  0.253  0.951- 348 1.42 355 1.42 346 1.43
 348  0.312  0.261  0.920- 347 1.42 336 1.42 349 1.43
 349  0.350  0.299  0.918- 350 1.42 357 1.42 348 1.43
 350  0.364  0.323  0.887- 349 1.42 338 1.42 351 1.43
 351  0.384  0.387  0.885- 352 1.42 359 1.42 350 1.43
 352  0.387  0.419  0.854- 351 1.42 340 1.42 353 1.43
 353  0.384  0.490  0.852- 354 1.42 361 1.42 352 1.43
 354  0.377  0.521  0.821- 353 1.42 342 1.42 222 1.43
 355  0.316  0.264  0.980-  41 1.42 347 1.42 356 1.43
 356  0.353  0.303  0.979- 357 1.42  61 1.42 355 1.43
 357  0.366  0.328  0.947- 356 1.42 349 1.42 358 1.43
 358  0.385  0.393  0.946- 359 1.42 362 1.42 357 1.43
 359  0.388  0.426  0.914- 358 1.42 351 1.42 360 1.43
 360  0.383  0.497  0.913- 361 1.42 364 1.42 359 1.43
 361  0.375  0.527  0.882- 360 1.42 353 1.42 244 1.43
 362  0.388  0.432  0.975-  62 1.42 358 1.42 363 1.43
 363  0.381  0.503  0.973- 364 1.42   1 1.42 362 1.43
 364  0.373  0.533  0.942- 363 1.42 360 1.42 266 1.43
 365  0.480  0.455  0.490- 368 1.44 367 1.44 366 1.44
 366  0.481  0.383  0.490- 365 1.44
 367  0.482  0.491  0.521- 365 1.44
 368  0.482  0.492  0.459- 365 1.44
 
  LATTYP: Found a simple orthorhombic cell.
 ALAT       =    19.9214134216
 B/A-ratio  =     1.6250001197
 C/A-ratio  =     2.0303804144
  
  Lattice vectors:
  
 A1 = (   0.0000000000, -19.9214134216,   0.0000000000)
 A2 = (  32.3722991943,   0.0000000000,   0.0000000000)
 A3 = (   0.0000000000,   0.0000000000,  40.4480476379)


Analysis of symmetry for initial positions (statically):
=====================================================================
 Subroutine PRICEL returns:
 Original cell was already a primitive cell.
 

 Routine SETGRP: Setting up the symmetry group for a 
 simple orthorhombic supercell.


 Subroutine GETGRP returns: Found  1 space group operations
 (whereof  1 operations were pure point group operations)
 out of a pool of  8 trial point group operations.


The static configuration has the point symmetry C_1 .


Analysis of symmetry for dynamics (positions and initial velocities):
=====================================================================
 Subroutine PRICEL returns:
 Original cell was already a primitive cell.
 

 Routine SETGRP: Setting up the symmetry group for a 
 simple orthorhombic supercell.


 Subroutine GETGRP returns: Found  1 space group operations
 (whereof  1 operations were pure point group operations)
 out of a pool of  8 trial point group operations.


The dynamic configuration has the point symmetry C_1 .


 Subroutine INISYM returns: Found  1 space group operations
 (whereof  1 operations are pure point group operations),
 and found     1 'primitive' translations


----------------------------------------------------------------------------------------

                                     Primitive cell                                     

  volume of cell :   26085.0250

  direct lattice vectors                    reciprocal lattice vectors
    32.372299194  0.000000000  0.000000000     0.030890608  0.000000000  0.000000000
     0.000000000 19.921413422  0.000000000     0.000000000  0.050197241  0.000000000
     0.000000000  0.000000000 40.448047638     0.000000000  0.000000000  0.024723072

  length of vectors
    32.372299194 19.921413422 40.448047638     0.030890608  0.050197241  0.024723072

  position of ions in fractional coordinates (direct lattice)
     0.370992733  0.538323921  0.002468820
     0.368788446  0.543846307  0.062940737
     0.338035823  0.594988797  0.061119350
     0.320488141  0.611373189  0.029947171
     0.277802396  0.628709664  0.028123645
     0.366410077  0.549254325  0.123405960
     0.334600943  0.598657750  0.121570449
     0.316739180  0.614038292  0.090394662
     0.273710546  0.628967985  0.088552485
     0.253524480  0.626801082  0.057393060
     0.212071016  0.602840414  0.055576482
     0.195571797  0.583766303  0.024424999
     0.168001510  0.528044165  0.022615797
     0.363847106  0.554539957  0.183863128
     0.331035810  0.602174339  0.182012541
     0.312890779  0.616533827  0.150831558
     0.269574756  0.629059028  0.148976932
     0.249468426  0.625725033  0.117813543
     0.208553480  0.599441845  0.115996050
     0.192489867  0.579442154  0.084841714
     0.166127058  0.522202147  0.083027754
     0.158889458  0.491457990  0.051884212
     0.154937289  0.420249720  0.050071554
     0.158713441  0.387883036  0.018929809
     0.178368716  0.323916284  0.017125929
     0.361134129  0.559717530  0.244307651
     0.327374895  0.605563634  0.242443851
     0.308951207  0.618889101  0.211259440
     0.265401072  0.629010734  0.209399444
     0.245395771  0.624497286  0.178231112
     0.205072205  0.595895997  0.176416994
     0.189465120  0.574972999  0.145262036
     0.164350852  0.516266056  0.143446918
     0.157792374  0.485125510  0.112299170
     0.155358263  0.413736616  0.110491173
     0.159832399  0.381605144  0.079344214
     0.180827823  0.318773164  0.077537860
     0.195018100  0.295218217  0.046400042
     0.233184632  0.259643422  0.044586957
     0.252866197  0.251672028  0.013443265
     0.296845371  0.253913887  0.011643999
     0.370113500  0.538230441  0.335919673
     0.358301361  0.564802094  0.304737579
     0.323655549  0.608862273  0.302866712
     0.304961226  0.621126356  0.271682820
     0.261220989  0.628823420  0.269824998
     0.241325885  0.623128928  0.238654553
     0.201653927  0.592212792  0.236844548
     0.186526462  0.570361691  0.205689108
     0.162718732  0.510234641  0.203876338
     0.156828761  0.478738809  0.172725198
     0.155918641  0.407254850  0.170921785
     0.161058870  0.375393765  0.139769251
     0.183364850  0.313763413  0.137956144
     0.198060377  0.291024830  0.106817133
     0.236957059  0.257603588  0.105011049
     0.256816552  0.250749226  0.073872139
     0.300723175  0.255456818  0.072084377
     0.319837970  0.266504852  0.040936288
     0.355709285  0.307916518  0.039128059
     0.368416729  0.333575396  0.007961925
     0.385598676  0.399402461  0.006158451
     0.367737270  0.543836892  0.396320534
     0.355385998  0.569782997  0.365152133
     0.319887732  0.612020437  0.363289796
     0.300945181  0.623254194  0.332106807
     0.257065827  0.628486270  0.330261071
     0.237300479  0.621598438  0.299089544
     0.198346787  0.588355640  0.297282591
     0.183699778  0.565622904  0.266128321
     0.161246298  0.504129284  0.264320575
     0.156025936  0.472314031  0.233165342
     0.156642204  0.400820399  0.231363259
     0.162432294  0.369263102  0.200206158
     0.186000035  0.308884125  0.198384439
     0.201157342  0.286974948  0.167239465
     0.240726415  0.255710672  0.165439494
     0.260739115  0.250001019  0.134303630
     0.304518403  0.257167507  0.132522971
     0.323414510  0.269302032  0.101386757
     0.358384700  0.312705558  0.099594472
     0.370563045  0.339071195  0.068435424
     0.386338776  0.405821852  0.066642678
     0.388190001  0.438608391  0.035466903
     0.380026794  0.508869398  0.033643403
     0.365274459  0.549222879  0.456703109
     0.352414428  0.574584536  0.425550172
     0.316099307  0.614928134  0.423715020
     0.296909671  0.625176307  0.392539179
     0.252944220  0.627926962  0.390711450
     0.233329768  0.619888323  0.359537648
     0.195158353  0.584315431  0.357730926
     0.181027462  0.560708233  0.326576637
     0.159967623  0.497928183  0.324774265
     0.155413616  0.465840695  0.293613989
     0.157533046  0.394421391  0.291811234
     0.163950382  0.363199434  0.260647744
     0.188725749  0.304110601  0.258818456
     0.204325386  0.283047241  0.227667357
     0.244513245  0.253936704  0.225870255
     0.264643346  0.249384992  0.194734783
     0.308243940  0.259018936  0.192959818
     0.326880811  0.272263516  0.161833495
     0.360895121  0.317633271  0.160059973
     0.372534433  0.344679792  0.128909041
     0.386867742  0.412283967  0.127121434
     0.388060413  0.445154762  0.095949935
     0.378415029  0.514918907  0.094119120
     0.362913160  0.554547744  0.517142162
     0.349376866  0.579034887  0.485985504
     0.312302458  0.617457478  0.484163544
     0.292888730  0.626705505  0.452987537
     0.248893117  0.626987811  0.451177104
     0.229443194  0.617897779  0.420001415
     0.192104542  0.580062352  0.418190683
     0.178503108  0.555640751  0.387032493
     0.158848889  0.491664313  0.385232951
     0.154981599  0.459333726  0.354071230
     0.158585389  0.388070302  0.352264744
     0.165613411  0.357211550  0.321096588
     0.191547059  0.299446782  0.319262953
     0.207552203  0.279235513  0.288103584
     0.248313067  0.252299612  0.286306434
     0.268534759  0.248900653  0.255171172
     0.311900891  0.261021435  0.253396552
     0.330250522  0.275362554  0.222277432
     0.363241746  0.322687188  0.220520593
     0.374310616  0.350395197  0.189379094
     0.387174573  0.418778284  0.187592998
     0.387706588  0.451694783  0.156425741
     0.376594248  0.520877766  0.154590335
     0.360610909  0.559772409  0.577533062
     0.346513046  0.583576769  0.546426891
     0.308549574  0.619711439  0.544621076
     0.288901401  0.627879308  0.513468808
     0.244923840  0.625661344  0.511663129
     0.225667291  0.615507045  0.480482877
     0.189169113  0.575571261  0.478660951
     0.176113435  0.550403534  0.447493105
     0.157875759  0.485333883  0.445691899
     0.154707980  0.452802962  0.414528826
     0.159793622  0.381780059  0.412718113
     0.167427218  0.351305778  0.381549564
     0.194477733  0.294909680  0.379718754
     0.210863692  0.275554443  0.348548852
     0.252146941  0.250820522  0.346748476
     0.272426449  0.248573041  0.315610927
     0.315501218  0.263186959  0.313833955
     0.333520097  0.278626445  0.282718576
     0.365420542  0.327883147  0.280970449
     0.375897349  0.356216968  0.249840228
     0.387265169  0.425293566  0.248050767
     0.387134753  0.458216093  0.216889159
     0.374587077  0.526745513  0.215050739
     0.358215784  0.564699083  0.637940602
     0.343567976  0.587704612  0.606834934
     0.304809969  0.621562777  0.605062416
     0.284955091  0.628700441  0.573926208
     0.241051247  0.623950600  0.572130035
     0.221971993  0.612831479  0.540963830
     0.186344313  0.570863518  0.539132919
     0.173830935  0.544997838  0.507960240
     0.156982422  0.478945398  0.506152005
     0.154542826  0.446263488  0.474986453
     0.161092416  0.375557902  0.473171495
     0.169366480  0.345511626  0.442006275
     0.197524847  0.290568514  0.440186365
     0.214264025  0.272045945  0.409009592
     0.256028793  0.249525923  0.407201749
     0.276328569  0.248422342  0.376056878
     0.319055232  0.265542936  0.374273494
     0.336712488  0.282053403  0.343155637
     0.367470642  0.333195675  0.341406188
     0.377301184  0.362145622  0.310285813
     0.387155455  0.431827923  0.308488835
     0.386355559  0.464721357  0.277335007
     0.372416474  0.532532044  0.275494798
     0.355747230  0.569478945  0.698367975
     0.340568070  0.591563688  0.667257362
     0.301071762  0.623086130  0.665502813
     0.281053797  0.629088743  0.634376457
     0.237274162  0.621874158  0.632587217
     0.218411193  0.609771386  0.601428299
     0.183638337  0.565948973  0.599597671
     0.171641557  0.539452020  0.568422015
     0.156162399  0.472523268  0.566608614
     0.154432514  0.439720570  0.535444133
     0.162474854  0.369424957  0.533627489
     0.171388719  0.339842120  0.502467605
     0.200680971  0.286475818  0.500661860
     0.217776550  0.268821617  0.469486903
     0.259983524  0.248581101  0.467674186
     0.280260289  0.248525529  0.436509388
     0.322573080  0.268136752  0.434710821
     0.339832841  0.285658858  0.403589763
     0.369408939  0.338630002  0.401826182
     0.378573226  0.368157329  0.370708247
     0.386878250  0.438358570  0.368897562
     0.385406343  0.471195770  0.337756290
     0.353163435  0.574136086  0.758810209
     0.337504644  0.595276788  0.727690547
     0.297323248  0.624430406  0.725940554
     0.277177444  0.629241016  0.694818122
     0.233577898  0.619595270  0.693029453
     0.214950289  0.606477950  0.661881788
     0.181070293  0.560856585  0.660057156
     0.169584023  0.533760570  0.628883014
     0.155450858  0.466049295  0.627065190
     0.154412231  0.433174149  0.595899765
     0.163948823  0.363371625  0.594084395
     0.173515278  0.334316956  0.562928359
     0.203954501  0.282681934  0.561134504
     0.221404487  0.265951269  0.529965128
     0.264020434  0.248129699  0.528146480
     0.284248099  0.249031756  0.496974314
     0.326122065  0.271034250  0.495157148
     0.342903191  0.289516917  0.464019105
     0.371197112  0.344265122  0.462233291
     0.379678999  0.374273166  0.431098754
     0.386437797  0.444882763  0.429249998
     0.384302428  0.477625780  0.398141573
     0.350428738  0.578639637  0.819262921
     0.334334266  0.598845094  0.788131115
     0.293534734  0.625626477  0.786375718
     0.273305256  0.629240090  0.755252929
     0.229936422  0.617162039  0.753462866
     0.211588010  0.603020211  0.722323484
     0.178632977  0.555643697  0.720508952
     0.167669041  0.527955834  0.689341839
     0.154891774  0.459536906  0.687520756
     0.154516762  0.426625853  0.656356564
     0.165555373  0.357412146  0.654542461
     0.175752823  0.328935388  0.623387238
     0.207343793  0.279159102  0.621598127
     0.225139349  0.263437046  0.590436542
     0.268125091  0.248151029  0.588610020
     0.288296268  0.250136249  0.557434525
     0.329664777  0.274473518  0.555597002
     0.346009609  0.293716382  0.524418702
     0.373119371  0.350008024  0.522589337
     0.380797174  0.380336421  0.491480430
     0.386597643  0.451455804  0.489661714
     0.383152596  0.484019235  0.458464127
     0.347552727  0.582996758  0.879725278
     0.331058963  0.602259868  0.848579269
     0.289701352  0.626678325  0.846812373
     0.269421938  0.629099010  0.815684200
     0.226334458  0.614599328  0.813888998
     0.208292811  0.599430281  0.782754601
     0.176310569  0.550323157  0.780949618
     0.165900941  0.522060685  0.749791601
     0.154520885  0.452994832  0.747970646
     0.154803642  0.420084582  0.716809469
     0.167337451  0.351545921  0.714998244
     0.178144001  0.323696871  0.683840787
     0.210855727  0.275871104  0.682046989
     0.228982448  0.261234814  0.650888632
     0.272275732  0.248509650  0.649052614
     0.292368859  0.251620285  0.617873055
     0.333211121  0.278203387  0.616019828
     0.349143855  0.298263785  0.584835756
     0.375187903  0.355907481  0.582984076
     0.382116796  0.386754890  0.551848396
     0.385901443  0.457959689  0.550073444
     0.382156256  0.490380964  0.518982443
     0.344521833  0.587171271  0.940191326
     0.327654013  0.605492619  0.909034236
     0.285800500  0.627562515  0.907249606
     0.265506061  0.628814469  0.876112551
     0.222754846  0.611909095  0.874311100
     0.205058059  0.595724466  0.843176777
     0.174104964  0.544906405  0.841377827
     0.164271805  0.516082345  0.810230887
     0.154327107  0.446433408  0.808409165
     0.155281690  0.413553115  0.777253601
     0.169288528  0.345772646  0.775445863
     0.180688417  0.318584657  0.744286354
     0.214455741  0.272745222  0.742481139
     0.232897415  0.259235022  0.711323554
     0.276446689  0.249056318  0.709481807
     0.296454181  0.253332549  0.678303937
     0.336734659  0.282089490  0.676446765
     0.352235434  0.303005659  0.645256062
     0.377146140  0.361936496  0.643391026
     0.383477938  0.393115208  0.612228595
     0.385822173  0.464496569  0.610424996
     0.381260342  0.496656126  0.579313607
     0.341346460  0.591162602  0.000658296
     0.324132104  0.608536460  0.969491968
     0.281836161  0.628250085  0.967687305
     0.261552872  0.628359578  0.936541919
     0.219183871  0.609073874  0.934733425
     0.201862954  0.591894799  0.903595195
     0.171998297  0.539387619  0.901796840
     0.162783843  0.510029987  0.870656474
     0.154306397  0.439875033  0.868835093
     0.155942078  0.407057894  0.837687251
     0.171397944  0.340118836  0.835880862
     0.183373769  0.313603383  0.804723590
     0.218140516  0.269780542  0.802908491
     0.236865330  0.257396364  0.771749086
     0.280608580  0.249732259  0.769908054
     0.300510782  0.255189803  0.738730301
     0.340182182  0.286093408  0.736872846
     0.355265658  0.307838674  0.705684125
     0.379004997  0.368032230  0.703815440
     0.384724067  0.399523870  0.672642825
     0.385590880  0.471007645  0.670837015
     0.380328318  0.502876853  0.639707625
     0.257560346  0.627686252  0.996969233
     0.215625584  0.606045271  0.995155861
     0.198704144  0.587911873  0.964010689
     0.169968241  0.533767690  0.962207975
     0.161399484  0.503907427  0.931070611
     0.154417260  0.433319928  0.929251082
     0.156762165  0.400615449  0.898107809
     0.173641371  0.334591338  0.896303884
     0.186186227  0.308779969  0.865151216
     0.221877797  0.266973612  0.863328827
     0.240872481  0.255708296  0.832169590
     0.284752596  0.250530034  0.830335197
     0.304532042  0.257142436  0.799158390
     0.343546659  0.290186793  0.797306788
     0.358187027  0.312760140  0.766121927
     0.380701816  0.374188154  0.764259884
     0.385801443  0.405979533  0.733083195
     0.385181230  0.477476917  0.731279970
     0.379251414  0.509026750  0.700136211
     0.160104000  0.497714452  0.991476945
     0.154629708  0.426774091  0.989659928
     0.157691965  0.394215158  0.958519411
     0.175969054  0.329181560  0.956716857
     0.189076879  0.304091824  0.925570051
     0.225642339  0.264324303  0.923746052
     0.244884300  0.254161369  0.892590953
     0.288850971  0.251465555  0.890766718
     0.308492806  0.259216651  0.859593831
     0.346797349  0.294397697  0.857751043
     0.360978691  0.317787728  0.826569485
     0.382216686  0.380408109  0.824720777
     0.386687822  0.412469670  0.793541085
     0.384562664  0.483891829  0.791737817
     0.377995119  0.515100376  0.760586932
     0.192028357  0.299576272  0.985985894
     0.229416573  0.261882220  0.984165741
     0.248885824  0.252804614  0.953015718
     0.292886351  0.252581005  0.951204707
     0.312371573  0.261458633  0.920038191
     0.349909076  0.298760567  0.918204051
     0.363616814  0.322930571  0.887027075
     0.383530005  0.386690070  0.885194028
     0.387362376  0.418988813  0.854012509
     0.383722354  0.490249020  0.852208166
     0.376529085  0.521065961  0.821048444
     0.316164062  0.263868965  0.980486721
     0.352891177  0.303254565  0.978663953
     0.366099166  0.328191712  0.947492410
     0.384662611  0.393018347  0.945674684
     0.387836105  0.425520991  0.914493633
     0.382689596  0.496536923  0.912684426
     0.374873391  0.526940187  0.881519475
     0.388114605  0.432062011  0.974979358
     0.381454549  0.502743275  0.973163163
     0.373027150  0.532693425  0.941994124
     0.480028812  0.455374176  0.489906823
     0.480747603  0.383230264  0.489830393
     0.481580470  0.491244519  0.520713301
     0.481783587  0.491549124  0.459194347

  ion indices of the primitive-cell ions
   primitive index   ion index
                 1           1
                 2           2
                 3           3
                 4           4
                 5           5
                 6           6
                 7           7
                 8           8
                 9           9
                10          10
                11          11
                12          12
                13          13
                14          14
                15          15
                16          16
                17          17
                18          18
                19          19
                20          20
                21          21
                22          22
                23          23
                24          24
                25          25
                26          26
                27          27
                28          28
                29          29
                30          30
                31          31
                32          32
                33          33
                34          34
                35          35
                36          36
                37          37
                38          38
                39          39
                40          40
                41          41
                42          42
                43          43
                44          44
                45          45
                46          46
                47          47
                48          48
                49          49
                50          50
                51          51
                52          52
                53          53
                54          54
                55          55
                56          56
                57          57
                58          58
                59          59
                60          60
                61          61
                62          62
                63          63
                64          64
                65          65
                66          66
                67          67
                68          68
                69          69
                70          70
                71          71
                72          72
                73          73
                74          74
                75          75
                76          76
                77          77
                78          78
                79          79
                80          80
                81          81
                82          82
                83          83
                84          84
                85          85
                86          86
                87          87
                88          88
                89          89
                90          90
                91          91
                92          92
                93          93
                94          94
                95          95
                96          96
                97          97
                98          98
                99          99
               100         100
               101         101
               102         102
               103         103
               104         104
               105         105
               106         106
               107         107
               108         108
               109         109
               110         110
               111         111
               112         112
               113         113
               114         114
               115         115
               116         116
               117         117
               118         118
               119         119
               120         120
               121         121
               122         122
               123         123
               124         124
               125         125
               126         126
               127         127
               128         128
               129         129
               130         130
               131         131
               132         132
               133         133
               134         134
               135         135
               136         136
               137         137
               138         138
               139         139
               140         140
               141         141
               142         142
               143         143
               144         144
               145         145
               146         146
               147         147
               148         148
               149         149
               150         150
               151         151
               152         152
               153         153
               154         154
               155         155
               156         156
               157         157
               158         158
               159         159
               160         160
               161         161
               162         162
               163         163
               164         164
               165         165
               166         166
               167         167
               168         168
               169         169
               170         170
               171         171
               172         172
               173         173
               174         174
               175         175
               176         176
               177         177
               178         178
               179         179
               180         180
               181         181
               182         182
               183         183
               184         184
               185         185
               186         186
               187         187
               188         188
               189         189
               190         190
               191         191
               192         192
               193         193
               194         194
               195         195
               196         196
               197         197
               198         198
               199         199
               200         200
               201         201
               202         202
               203         203
               204         204
               205         205
               206         206
               207         207
               208         208
               209         209
               210         210
               211         211
               212         212
               213         213
               214         214
               215         215
               216         216
               217         217
               218         218
               219         219
               220         220
               221         221
               222         222
               223         223
               224         224
               225         225
               226         226
               227         227
               228         228
               229         229
               230         230
               231         231
               232         232
               233         233
               234         234
               235         235
               236         236
               237         237
               238         238
               239         239
               240         240
               241         241
               242         242
               243         243
               244         244
               245         245
               246         246
               247         247
               248         248
               249         249
               250         250
               251         251
               252         252
               253         253
               254         254
               255         255
               256         256
               257         257
               258         258
               259         259
               260         260
               261         261
               262         262
               263         263
               264         264
               265         265
               266         266
               267         267
               268         268
               269         269
               270         270
               271         271
               272         272
               273         273
               274         274
               275         275
               276         276
               277         277
               278         278
               279         279
               280         280
               281         281
               282         282
               283         283
               284         284
               285         285
               286         286
               287         287
               288         288
               289         289
               290         290
               291         291
               292         292
               293         293
               294         294
               295         295
               296         296
               297         297
               298         298
               299         299
               300         300
               301         301
               302         302
               303         303
               304         304
               305         305
               306         306
               307         307
               308         308
               309         309
               310         310
               311         311
               312         312
               313         313
               314         314
               315         315
               316         316
               317         317
               318         318
               319         319
               320         320
               321         321
               322         322
               323         323
               324         324
               325         325
               326         326
               327         327
               328         328
               329         329
               330         330
               331         331
               332         332
               333         333
               334         334
               335         335
               336         336
               337         337
               338         338
               339         339
               340         340
               341         341
               342         342
               343         343
               344         344
               345         345
               346         346
               347         347
               348         348
               349         349
               350         350
               351         351
               352         352
               353         353
               354         354
               355         355
               356         356
               357         357
               358         358
               359         359
               360         360
               361         361
               362         362
               363         363
               364         364
               365         365
               366         366
               367         367
               368         368

----------------------------------------------------------------------------------------

 
 
 KPOINTS: KPOINTS created by Atomic Simulation Env

Read explicit list of k-points.

 Found     16 k-points:

 Following reciprocal coordinates:
            Coordinates               Weight
  0.000000  0.000000  0.000000      0.062500
  0.000000  0.000000 -0.033333      0.062500
  0.000000  0.000000 -0.066667      0.062500
  0.000000  0.000000 -0.100000      0.062500
  0.000000  0.000000 -0.133333      0.062500
  0.000000  0.000000 -0.166667      0.062500
  0.000000  0.000000 -0.200000      0.062500
  0.000000  0.000000 -0.233333      0.062500
  0.000000  0.000000 -0.266667      0.062500
  0.000000  0.000000 -0.300000      0.062500
  0.000000  0.000000 -0.333333      0.062500
  0.000000  0.000000 -0.366667      0.062500
  0.000000  0.000000 -0.400000      0.062500
  0.000000  0.000000 -0.433333      0.062500
  0.000000  0.000000 -0.466667      0.062500
  0.000000  0.000000 -0.500000      0.062500

 Following cartesian coordinates:
            Coordinates               Weight
  0.000000  0.000000  0.000000      0.062500
  0.000000  0.000000 -0.000824      0.062500
  0.000000  0.000000 -0.001648      0.062500
  0.000000  0.000000 -0.002472      0.062500
  0.000000  0.000000 -0.003296      0.062500
  0.000000  0.000000 -0.004121      0.062500
  0.000000  0.000000 -0.004945      0.062500
  0.000000  0.000000 -0.005769      0.062500
  0.000000  0.000000 -0.006593      0.062500
  0.000000  0.000000 -0.007417      0.062500
  0.000000  0.000000 -0.008241      0.062500
  0.000000  0.000000 -0.009065      0.062500
  0.000000  0.000000 -0.009889      0.062500
  0.000000  0.000000 -0.010713      0.062500
  0.000000  0.000000 -0.011537      0.062500
  0.000000  0.000000 -0.012362      0.062500
 


--------------------------------------------------------------------------------------------------------




 Dimension of arrays:
   k-points           NKPTS =     16   k-points in BZ     NKDIM =     16   number of bands    NBANDS=    896
   number of dos      NEDOS =    301   number of ions     NIONS =    368
   non local maximal  LDIM  =      4   non local SUM 2l+1 LMDIM =      8
   total plane-waves  NPLWV = ******
   max r-space proj   IRMAX =      1   max aug-charges    IRDMAX=  10060
   dimension x,y,z NGX =   216 NGY =  140 NGZ =  270
   dimension x,y,z NGXF=   432 NGYF=  280 NGZF=  540
   support grid    NGXF=   432 NGYF=  280 NGZF=  540
   ions per type =             364   1   3
   NGX,Y,Z   is equivalent  to a cutoff of  11.09, 11.68, 11.10 a.u.
   NGXF,Y,Z  is equivalent  to a cutoff of  22.19, 23.37, 22.19 a.u.

 SYSTEM =  03_BS                                   
 POSCAR =   C  S  O                                

 Startparameter for this run:
   NWRITE =      2    write-flag & timer
   PREC   = accura    normal or accurate (medium, high low for compatibility)
   ISTART =      1    job   : 0-new  1-cont  2-samecut
   ICHARG =     11    charge: 1-file 2-atom 10-const
   ISPIN  =      1    spin polarized calculation?
   LNONCOLLINEAR =      F non collinear calculations
   LSORBIT =      F    spin-orbit coupling
   INIWAV =      1    electr: 0-lowe 1-rand  2-diag
   LASPH  =      F    aspherical Exc in radial PAW
 Electronic Relaxation 1
   ENCUT  =  400.0 eV  29.40 Ry    5.42 a.u.  52.79 32.49 65.96*2*pi/ulx,y,z
   ENINI  =  400.0     initial cutoff
   ENAUG  =  644.9 eV  augmentation charge cutoff
   NELM   =     60;   NELMIN=  5; NELMDL=  0     # of ELM steps 
   EDIFF  = 0.1E-05   stopping-criterion for ELM
   LREAL  =      F    real-space projection
   NLSPLINE    = F    spline interpolate recip. space projectors
   LCOMPAT=      F    compatible to vasp.4.4
   GGA_COMPAT  = T    GGA compatible to vasp.4.4-vasp.4.6
   LMAXPAW     = -100 max onsite density
   LMAXMIX     =    2 max onsite mixed and CHGCAR
   VOSKOWN=      0    Vosko Wilk Nusair interpolation
   ROPT   =    0.00000   0.00000   0.00000
 Ionic relaxation
   EDIFFG = 0.1E-04   stopping-criterion for IOM
   NSW    =      0    number of steps for IOM
   NBLOCK =      1;   KBLOCK =      1    inner block; outer block 
   IBRION =     -1    ionic relax: 0-MD 1-quasi-New 2-CG
   NFREE  =      0    steps in history (QN), initial steepest desc. (CG)
   ISIF   =      2    stress and relaxation
   IWAVPR =     10    prediction:  0-non 1-charg 2-wave 3-comb
   ISYM   =      2    0-nonsym 1-usesym 2-fastsym
   LCORR  =      T    Harris-Foulkes like correction to forces

   POTIM  = 0.5000    time-step for ionic-motion
   TEIN   =    0.0    initial temperature
   TEBEG  =    0.0;   TEEND  =   0.0 temperature during run
   SMASS  =  -3.00    Nose mass-parameter (am)
   estimated Nose-frequenzy (Omega)   =  0.10E-29 period in steps = 0.13E+47 mass=  -0.239E-25a.u.
   SCALEE = 1.0000    scale energy and forces
   NPACO  =    256;   APACO  = 10.0  distance and # of slots for P.C.
   PSTRESS=    0.0 pullay stress

  Mass of Ions in am
   POMASS =  12.01 32.07 16.00
  Ionic Valenz
   ZVAL   =   4.00  6.00  6.00
  Atomic Wigner-Seitz radii
   RWIGS  =  -1.00 -1.00 -1.00
  virtual crystal weights 
   VCA    =   1.00  1.00  1.00
   NELECT =    1480.0000    total number of electrons
   NUPDOWN=      -1.0000    fix difference up-down

 DOS related values:
   EMIN   =  10.00;   EMAX   =-10.00  energy-range for DOS
   EFERMI =   0.00;   METHOD = LEGACY      
   ISMEAR =     0;   SIGMA  =   0.01  broadening in eV -4-tet -1-fermi 0-gaus

 Electronic relaxation 2 (details)
   IALGO  =     38    algorithm
   LDIAG  =      T    sub-space diagonalisation (order eigenvalues)
   LSUBROT=      F    optimize rotation matrix (better conditioning)
   TURBO    =      0    0=normal 1=particle mesh
   IRESTART =      0    0=no restart 2=restart with 2 vectors
   NREBOOT  =      0    no. of reboots
   NMIN     =      0    reboot dimension
   EREF     =   0.00    reference energy to select bands
   IMIX   =      4    mixing-type and parameters
     AMIX     =   0.40;   BMIX     =  1.00
     AMIX_MAG =   1.60;   BMIX_MAG =  1.00
     AMIN     =   0.10
     WC   =   100.;   INIMIX=   1;  MIXPRE=   1;  MAXMIX= -45

 Intra band minimization:
   WEIMIN = 0.0000     energy-eigenvalue tresh-hold
   EBREAK =  0.28E-09  absolut break condition
   DEPER  =   0.30     relativ break condition  

   TIME   =   0.40     timestep for ELM

  volume/ion in A,a.u.               =      70.88       478.34
  Fermi-wavevector in a.u.,A,eV,Ry     =   0.629069  1.188768  5.384204  0.395728
  Thomas-Fermi vector in A             =   1.691231
 
 Write flags
   LWAVE        =      T    write WAVECAR
   LDOWNSAMPLE  =      F    k-point downsampling of WAVECAR
   LCHARG       =      T    write CHGCAR
   LVTOT        =      F    write LOCPOT, total local potential
   LVHAR        =      F    write LOCPOT, Hartree potential only
   LELF         =      F    write electronic localiz. function (ELF)
   LORBIT       =     11    0 simple, 1 ext, 2 COOP (PROOUT), +10 PAW based schemes


 Dipole corrections
   LMONO  =      F    monopole corrections only (constant potential shift)
   LDIPOL =      F    correct potential (dipole corrections)
   IDIPOL =      0    1-x, 2-y, 3-z, 4-all directions 
   EPSILON=  1.0000000 bulk dielectric constant

 Exchange correlation treatment:
   GGA     =    PE    GGA type
   LEXCH   =     8    internal setting for exchange type
   LIBXC   =     F    Libxc                    
   VOSKOWN =     0    Vosko Wilk Nusair interpolation
   LHFCALC =     F    Hartree Fock is set to
   LHFONE  =     F    Hartree Fock one center treatment
   AEXX    =    0.0000 exact exchange contribution

 Linear response parameters
   LEPSILON=     F    determine dielectric tensor
   LRPA    =     F    only Hartree local field effects (RPA)
   LNABLA  =     F    use nabla operator in PAW spheres
   LVEL    =     F    velocity operator in full k-point grid
   CSHIFT  =0.1000    complex shift for real part using Kramers Kronig
   OMEGAMAX=  -1.0    maximum frequency
   DEG_THRESHOLD= 0.2000000E-02 threshold for treating states as degnerate
   RTIME   =   -0.100 relaxation time in fs
  (WPLASMAI=    0.000 imaginary part of plasma frequency in eV, 0.658/RTIME)
   DFIELD  = 0.0000000 0.0000000 0.0000000 field for delta impulse in time
 
  Optional k-point grid parameters
   LKPOINTS_OPT  =     F    use optional k-point grid
   KPOINTS_OPT_MODE=     1    mode for optional k-point grid
 
 Orbital magnetization related:
   ORBITALMAG=     F  switch on orbital magnetization
   LCHIMAG   =     F  perturbation theory with respect to B field
   DQ        =  0.001000  dq finite difference perturbation B field
   LLRAUG    =     F  two centre corrections for induced B field
   LBONE     =     F  B-component reconstruction in AE one-centre
   LVGVCALC  =     T  calculate vGv susceptibility
   LVGVAPPL  =     F  apply vGv susceptibility instead of pGv for G=0

 Random number generation:
   RANDOM_GENERATOR = DEFAULT
   PCG_SEED         = not used


--------------------------------------------------------------------------------------------------------


 Static calculation
 charge density and potential remain constant during run
 non-spin polarized calculation
 Variant of blocked Davidson
 Davidson routine will perform the subspace rotation
 perform sub-space diagonalisation
    after iterative eigenvector-optimisation
 no mixing
 using additional bands           156
 reciprocal scheme for non local part
 use partial core corrections
 calculate Harris-corrections to forces 
   (improved forces if not selfconsistent)
 use gradient corrections 
 WARNING: stress and forces are not correct
  (second derivative of E(xc) not defined)
 use of overlap-Matrix (Vanderbilt PP)
 Gauss-broadening in eV      SIGMA  =   0.01


--------------------------------------------------------------------------------------------------------


  energy-cutoff  :      400.00
  volume of cell :    26085.03
      direct lattice vectors                 reciprocal lattice vectors
    32.372299194  0.000000000  0.000000000     0.030890608  0.000000000  0.000000000
     0.000000000 19.921413422  0.000000000     0.000000000  0.050197241  0.000000000
     0.000000000  0.000000000 40.448047638     0.000000000  0.000000000  0.024723072

  length of vectors
    32.372299194 19.921413422 40.448047638     0.030890608  0.050197241  0.024723072


 
 old parameters found on file WAVECAR:
  energy-cutoff  :      400.00
  volume of cell :    26085.03
      direct lattice vectors                 reciprocal lattice vectors
    32.372299194  0.000000000  0.000000000     0.030890608  0.000000000  0.000000000
     0.000000000 19.921413422  0.000000000     0.000000000  0.050197241  0.000000000
     0.000000000  0.000000000 40.448047638     0.000000000  0.000000000  0.024723072

  length of vectors

 
 k-points in units of 2pi/SCALE and weight: KPOINTS created by Atomic Simulation Env
   0.00000000  0.00000000  0.00000000       0.063
   0.00000000  0.00000000 -0.00082409       0.063
   0.00000000  0.00000000 -0.00164821       0.063
   0.00000000  0.00000000 -0.00247231       0.063
   0.00000000  0.00000000 -0.00329640       0.063
   0.00000000  0.00000000 -0.00412052       0.063
   0.00000000  0.00000000 -0.00494461       0.063
   0.00000000  0.00000000 -0.00576871       0.063
   0.00000000  0.00000000 -0.00659283       0.063
   0.00000000  0.00000000 -0.00741692       0.063
   0.00000000  0.00000000 -0.00824102       0.063
   0.00000000  0.00000000 -0.00906513       0.063
   0.00000000  0.00000000 -0.00988923       0.063
   0.00000000  0.00000000 -0.01071332       0.063
   0.00000000  0.00000000 -0.01153744       0.063
   0.00000000  0.00000000 -0.01236154       0.063
 
 k-points in reciprocal lattice and weights: KPOINTS created by Atomic Simulation Env
   0.00000000  0.00000000  0.00000000       0.063
   0.00000000  0.00000000 -0.03333300       0.063
   0.00000000  0.00000000 -0.06666700       0.063
   0.00000000  0.00000000 -0.10000000       0.063
   0.00000000  0.00000000 -0.13333300       0.063
   0.00000000  0.00000000 -0.16666700       0.063
   0.00000000  0.00000000 -0.20000000       0.063
   0.00000000  0.00000000 -0.23333300       0.063
   0.00000000  0.00000000 -0.26666700       0.063
   0.00000000  0.00000000 -0.30000000       0.063
   0.00000000  0.00000000 -0.33333300       0.063
   0.00000000  0.00000000 -0.36666700       0.063
   0.00000000  0.00000000 -0.40000000       0.063
   0.00000000  0.00000000 -0.43333300       0.063
   0.00000000  0.00000000 -0.46666700       0.063
   0.00000000  0.00000000 -0.50000000       0.063
 
 position of ions in fractional coordinates (direct lattice) 
   0.37099273  0.53832392  0.00246882
   0.36878845  0.54384631  0.06294074
   0.33803582  0.59498880  0.06111935
   0.32048814  0.61137319  0.02994717
   0.27780240  0.62870966  0.02812365
   0.36641008  0.54925433  0.12340596
   0.33460094  0.59865775  0.12157045
   0.31673918  0.61403829  0.09039466
   0.27371055  0.62896799  0.08855248
   0.25352448  0.62680108  0.05739306
   0.21207102  0.60284041  0.05557648
   0.19557180  0.58376630  0.02442500
   0.16800151  0.52804417  0.02261580
   0.36384711  0.55453996  0.18386313
   0.33103581  0.60217434  0.18201254
   0.31289078  0.61653383  0.15083156
   0.26957476  0.62905903  0.14897693
   0.24946843  0.62572503  0.11781354
   0.20855348  0.59944184  0.11599605
   0.19248987  0.57944215  0.08484171
   0.16612706  0.52220215  0.08302775
   0.15888946  0.49145799  0.05188421
   0.15493729  0.42024972  0.05007155
   0.15871344  0.38788304  0.01892981
   0.17836872  0.32391628  0.01712593
   0.36113413  0.55971753  0.24430765
   0.32737489  0.60556363  0.24244385
   0.30895121  0.61888910  0.21125944
   0.26540107  0.62901073  0.20939944
   0.24539577  0.62449729  0.17823111
   0.20507220  0.59589600  0.17641699
   0.18946512  0.57497300  0.14526204
   0.16435085  0.51626606  0.14344692
   0.15779237  0.48512551  0.11229917
   0.15535826  0.41373662  0.11049117
   0.15983240  0.38160514  0.07934421
   0.18082782  0.31877316  0.07753786
   0.19501810  0.29521822  0.04640004
   0.23318463  0.25964342  0.04458696
   0.25286620  0.25167203  0.01344327
   0.29684537  0.25391389  0.01164400
   0.37011350  0.53823044  0.33591967
   0.35830136  0.56480209  0.30473758
   0.32365555  0.60886227  0.30286671
   0.30496123  0.62112636  0.27168282
   0.26122099  0.62882342  0.26982500
   0.24132589  0.62312893  0.23865455
   0.20165393  0.59221279  0.23684455
   0.18652646  0.57036169  0.20568911
   0.16271873  0.51023464  0.20387634
   0.15682876  0.47873881  0.17272520
   0.15591864  0.40725485  0.17092178
   0.16105887  0.37539376  0.13976925
   0.18336485  0.31376341  0.13795614
   0.19806038  0.29102483  0.10681713
   0.23695706  0.25760359  0.10501105
   0.25681655  0.25074923  0.07387214
   0.30072317  0.25545682  0.07208438
   0.31983797  0.26650485  0.04093629
   0.35570929  0.30791652  0.03912806
   0.36841673  0.33357540  0.00796193
   0.38559868  0.39940246  0.00615845
   0.36773727  0.54383689  0.39632053
   0.35538600  0.56978300  0.36515213
   0.31988773  0.61202044  0.36328980
   0.30094518  0.62325419  0.33210681
   0.25706583  0.62848627  0.33026107
   0.23730048  0.62159844  0.29908954
   0.19834679  0.58835564  0.29728259
   0.18369978  0.56562290  0.26612832
   0.16124630  0.50412928  0.26432058
   0.15602594  0.47231403  0.23316534
   0.15664220  0.40082040  0.23136326
   0.16243229  0.36926310  0.20020616
   0.18600004  0.30888412  0.19838444
   0.20115734  0.28697495  0.16723946
   0.24072642  0.25571067  0.16543949
   0.26073911  0.25000102  0.13430363
   0.30451840  0.25716751  0.13252297
   0.32341451  0.26930203  0.10138676
   0.35838470  0.31270556  0.09959447
   0.37056304  0.33907119  0.06843542
   0.38633878  0.40582185  0.06664268
   0.38819000  0.43860839  0.03546690
   0.38002679  0.50886940  0.03364340
   0.36527446  0.54922288  0.45670311
   0.35241443  0.57458454  0.42555017
   0.31609931  0.61492813  0.42371502
   0.29690967  0.62517631  0.39253918
   0.25294422  0.62792696  0.39071145
   0.23332977  0.61988832  0.35953765
   0.19515835  0.58431543  0.35773093
   0.18102746  0.56070823  0.32657664
   0.15996762  0.49792818  0.32477426
   0.15541362  0.46584069  0.29361399
   0.15753305  0.39442139  0.29181123
   0.16395038  0.36319943  0.26064774
   0.18872575  0.30411060  0.25881846
   0.20432539  0.28304724  0.22766736
   0.24451324  0.25393670  0.22587025
   0.26464335  0.24938499  0.19473478
   0.30824394  0.25901894  0.19295982
   0.32688081  0.27226352  0.16183350
   0.36089512  0.31763327  0.16005997
   0.37253443  0.34467979  0.12890904
   0.38686774  0.41228397  0.12712143
   0.38806041  0.44515476  0.09594994
   0.37841503  0.51491891  0.09411912
   0.36291316  0.55454774  0.51714216
   0.34937687  0.57903489  0.48598550
   0.31230246  0.61745748  0.48416354
   0.29288873  0.62670550  0.45298754
   0.24889312  0.62698781  0.45117710
   0.22944319  0.61789778  0.42000141
   0.19210454  0.58006235  0.41819068
   0.17850311  0.55564075  0.38703249
[...]
  188                    map_gather                            0.008108                1   9
  189                    m_alltoallv_z                         0.029282                1   9
  190                    map_scatter                           0.005979                1   9
  191        forloc                                1.256513                            1   3
  192          m_sumb_d                              0.009394                          1   4
  193        fornl                               356.251882                            1   3
  194          phase                                 2.562422                          2   4
  195          m_sumb_d                              0.010648                        450   4
  196        fordep                                0.020261                            1   3
  197          setdij_                               0.020180                          6   4
  198            m_alltoall_d                          0.002076                       12   5
  199          m_sumb_d                              0.000012                          1   4
  200        setdij_                               0.069716                           20   3
  201          m_alltoall_d                          0.009278                         40   4
  202        set_dd_magatom                        0.000000                            1   3
  203        set_dd_paw                            0.002537                            1   3
  204          set_rsgf_all                          0.000001                          1   4
  205          m_alltoall_d                          0.001490                          4   4
  206          m_sumb_d                              0.000454                          6   4
  207        strkin                                0.148345                            1   3
  208          m_sumb_d                              0.000369                          1   4
  209        strelo                                0.077490                            1   3
  210          m_sumb_d                              0.000742                          2   4
  211        strenl                              848.717998                            1   3
  212          spher                                19.959785                         19   4
  213          phase                                23.055186                         18   4
  214          proj1                               627.765902                       1008   4
  215            crexp_mul_wave                      233.895352                   370944   5
  216            m_sumb_d                              0.176004                     1008   5
  217          m_sumb_d                            177.907258                          1   4
  218        m_sumb_d                              0.000162                            6   3
  219        fft3d_mpi                             0.476973                           11   3
  220          fftbrc_mpi                            0.459968                         11   4
  221            fftbas_plan_mpi                       0.459956                       11   5
  222              dfftw_execute                         0.173291                     33   6
  223              map_forward                           0.145077                     10   6
  224                map_gather                            0.029754                    5   7
  225                m_alltoallv_z                         0.071805                    5   7
  226                map_scatter                           0.043459                    5   7
  227              map_backward                          0.141309                     12   6
  228                map_gather                            0.045117                    6   7
  229                m_alltoallv_z                         0.059553                    6   7
  230                map_scatter                           0.036576                    6   7
  231        ggaall_grid                           0.346735                            1   3
  232        forhar                                1.287663                            2   3
  233          m_sumb_d                              0.006530                          2   4
  234        strehar                               0.038941                            1   3
  235          m_sumb_d                              0.000396                          1   4
  236        chggra                                0.180583                            1   3
  237          fft3d_mpi                             0.125041                          3   4
  238            fftbrc_mpi                            0.121296                        3   5
  239              fftbas_plan_mpi                       0.121291                      3   6
  240                dfftw_execute                         0.047520                    9   7
  241                map_backward                          0.023981                    2   7
  242                  map_gather                            0.008260                  1   8
  243                  m_alltoallv_z                         0.009424                  1   8
  244                  map_scatter                           0.006286                  1   8
  245                map_forward                           0.049705                    4   7
  246                  map_gather                            0.013804                  2   8
  247                  m_alltoallv_z                         0.021228                  2   8
  248                  map_scatter                           0.014549                  2   8
  249          m_sumb_d                              0.005230                          2   4
  250          pothar                                0.014183                          1   4
  251            m_sumb_d                              0.000757                        1   5
  252        m_bcast_d                             0.006293                            2   3
  253      potlok                                1.090933                              1   2
  254        fft3d_mpi                             0.540356                           13   3
  255          fftbrc_mpi                            0.522159                         13   4
  256            fftbas_plan_mpi                       0.522147                       13   5
  257              dfftw_execute                         0.199753                     39   6
  258              map_forward                           0.191770                     14   6
  259                map_gather                            0.028330                    8   7
  260                m_alltoallv_z                         0.111134                    8   7
  261                map_scatter                           0.052220                    8   7
  262              map_backward                          0.130305                     12   6
  263                map_gather                            0.043430                    6   7
  264                m_alltoallv_z                         0.050518                    6   7
  265                map_scatter                           0.036293                    6   7
  266        ggaall_grid                           0.346638                            1   3
  267        m_sumb_d                              0.003695                            5   3
  268        pothar                                0.012562                            1   3
  269          m_sumb_d                              0.000024                          1   4
  270        m_bcast_d                             0.007316                            1   3
  271      potlok_metagga                        0.000000                              1   2
  272      set_dd_magatom                        0.000000                              1   2
  273      set_dd_paw                            0.001272                              1   2
  274        set_rsgf_all                          0.000001                            1   3
  275        m_alltoall_d                          0.000311                            4   3
  276        m_sumb_d                              0.000349                            6   3
  277      m_alltoall_d                        113.886184                         339058   2
  278      densta                                0.076606                              1   2
  279        m_sumb_d                              0.020044                            8   3
  280        m_alltoall_d                          0.043155                           52   3
 
 Flat profile
 ============
 
             routine name                   CPU           calls
 ---------------------------------------------------------------
 proj1                                1155.534416        2446
 gemm                                 1151.017508      735264
 eddav                                 671.673403           6
 crexp_mul_wave                        593.111358      900128
 work_mul_crexp                        573.781150      735264
 m_alltoall_d                          497.860736      357712
 fornl                                 353.678812           1
 total_time                            338.794939           1
 m_bcast_z                             304.332130       31577
 dfftw_execute                         192.769406       12408
 m_sumb_d                              184.883148       26771
 orth1                                  95.817207        6050
 ggemm                                  82.687414        2670
 phase                                  43.706564          35
 vhamil                                 37.742264        1998
 lincom                                 27.960514          14
 m_alltoallv_z                          24.217231        4139
 spher                                  21.134147          20
 map_gather                             15.917462        4139
 fftext_mpi                             15.004322        1998
 map_scatter                            12.743340        4139
 fftwav_mpi                             11.339472        2092
 map_forward                             8.654197        4232
 sphpro_fast                             6.396927           2
 redis_pw                                5.465288        5350
 eccp                                    5.349957         672
 vnlac0                                  2.901451        1998
 w1_copy                                 2.744723        5994
 force_and_stress                        2.329806           1
 stufak                                  2.295919           2
 pdssyex_zheevx                          1.625718          12
 forhar                                  1.281133           2
 forloc                                  1.247119           1
 kinhamil                                1.108306        1998
 ggaall_grid                             1.032390           3
 lapack                                  0.865299        1998
 apply_precond                           0.800341        1326
 setup_precond                           0.767475         672
 pw_charge                               0.600217          94
 hamiltmu                                0.412263        1998
 m_bcast_d                               0.381659        4545
 potlok                                  0.365068           2
 fftbas_plan_mpi                         0.151477        4136
 strkin                                  0.147976           1
 choleski                                0.119587           2
 setdij_                                 0.088152          29
 strelo                                  0.076748           1
 fft3d_mpi                               0.075069        4136
 overl1                                  0.058436        1998
 overl                                   0.054232        3326
 soft_charge                             0.051381           1
 elmin                                   0.040481           1
 strehar                                 0.038545           1
 pothar                                  0.038003           3
 chggra                                  0.036129           1
 redis_proj                              0.034599        6678
 strenl                                  0.029867           1
 map_backward                            0.019197        4040
 orthch                                  0.017411           1
 densta                                  0.014107           7
 augmentation_charge                     0.011764           1
 newband                                 0.010036        2010
 inisym                                  0.006113           1
 w1_projall                              0.005918        1326
 rsp                                     0.004495           1
 fftbas_mpi                              0.003932        4090
 set_dd_paw                              0.001870           3
 depsum                                  0.001696           1
 fft_gq                                  0.001653           1
 fewald                                  0.001582           1
 set_charge                              0.001161           1
 truncate_high_frequency_w1              0.000752        2670
 proj                                    0.000550           2
 rcp                                     0.000300           1
 posmap                                  0.000129           2
 fordep                                  0.000069           1
 fftbrc_mpi                              0.000048          46
 crpa_reader                             0.000037           1
 proall                                  0.000013           1
 FERMAT_RAZOR                            0.000012           1
 set_rsgf_all                            0.000004           3
 redis_pw_over_bands                     0.000001           1
 set_dd_magatom                          0.000000           3
 vectorpot                               0.000000           2
 rotate_active_occupied_orbital          0.000000           1
 potlok_metagga                          0.000000           2
 ---------------------------------------------------------------
  summed up times     6453.475733041763     
 
 Accumulative profile
 ====================
 
             routine name                   CPU           calls
 ---------------------------------------------------------------
 total_time                           6453.475733           1
 elmin                                4362.331219           1
 eddav                                4360.271933           6
 hamiltmu                             1896.963244        1998
 proj1                                1748.891122        2446
 vnlac0                               1727.791373        1998
 force_and_stress                     1218.156102           1
 gemm                                 1151.017508      735264
 w1_projall                           1029.150471        1326
 strenl                                848.717998           1
 crexp_mul_wave                        593.111358      900128
 work_mul_crexp                        573.781150      735264
 m_alltoall_d                          497.860736      357712
 fornl                                 356.251882           1
 m_bcast_z                             304.332130       31577
 redis_proj                            256.343002        6678
 fft3d_mpi                             254.551358        4136
 fftbas_plan_mpi                       254.472309        4136
 fftbas_mpi                            252.576441        4090
 dfftw_execute                         192.769406       12408
 m_sumb_d                              184.883148       26771
 fftwav_mpi                            149.076320        2092
 kinhamil                              130.958907        1998
 fftext_mpi                            129.850601        1998
 redis_pw                              112.509111        5350
 orth1                                  95.817207        6050
 proall                                 94.630180           1
 proj                                   91.981216           2
 ggemm                                  82.687414        2670
 newband                                53.815915        2010
 map_forward                            45.018814        4232
 phase                                  43.706564          35
 vhamil                                 37.742264        1998
 lincom                                 27.960514          14
 m_alltoallv_z                          24.217231        4139
 spher                                  21.134147          20
 map_backward                           16.532613        4040
 map_gather                             15.917462        4139
 map_scatter                            12.743340        4139
 sphpro_fast                             7.351489           2
 set_charge                              6.944203           1
 soft_charge                             6.825377           1
 orthch                                  6.767713           1
 eccp                                    5.354779         672
 w1_copy                                 2.744723        5994
 stufak                                  2.295919           2
 potlok                                  2.231349           2
 fftbrc_mpi                              1.899849          46
 pdssyex_zheevx                          1.625730          12
 forhar                                  1.287663           2
 forloc                                  1.256513           1
 ggaall_grid                             1.032390           3
 fewald                                  1.007523           1
 lapack                                  0.865299        1998
 apply_precond                           0.800341        1326
 setup_precond                           0.769289         672
 set_dd_paw                              0.685655           3
 pw_charge                               0.600217          94
 m_bcast_d                               0.381659        4545
 chggra                                  0.180583           1
 setdij_                                 0.157850          29
 strkin                                  0.148345           1
 densta                                  0.134930           7
 choleski                                0.119587           2
 strelo                                  0.077490           1
 augmentation_charge                     0.073445           1
 overl1                                  0.058436        1998
 overl                                   0.054232        3326
 depsum                                  0.044220           1
 pothar                                  0.039071           3
 strehar                                 0.038941           1
 fft_gq                                  0.030928           1
 fordep                                  0.020261           1
 inisym                                  0.006242           1
 rsp                                     0.004495           1
 truncate_high_frequency_w1              0.000752        2670
 rcp                                     0.000300           1
 posmap                                  0.000129           2
 crpa_reader                             0.000037           1
 FERMAT_RAZOR                            0.000012           1
 set_rsgf_all                            0.000004           3
 redis_pw_over_bands                     0.000001           1
 set_dd_magatom                          0.000000           3
 vectorpot                               0.000000           2
 rotate_active_occupied_orbital          0.000000           1
 potlok_metagga                          0.000000           2
 ---------------------------------------------------------------
 
Profiling took   1.504592  0.720873  0.003803  0.003753 seconds
Profiling took   1.699325 seconds
