 vasp.6.4.2 20Jul23 (build Oct 12 2023 10:31:02) complex                         
 executed on              LinuxNV date 2025.05.28  03:27:40
 running  128 mpi-ranks, with    1 threads/rank, on    2 nodes
 distrk:  each k-point on   64 cores,    2 groups
 distr:  one band on NCORE=   4 cores,   16 groups


--------------------------------------------------------------------------------------------------------


 INCAR:
   ENCUT = 360.000000
   SIGMA = 0.050000
   EDIFF = 1.00e-06
   ALGO = Normal
   GGA = PE
   PREC = Normal
   SYSTEM = ./
   ICHARG = 2
   ISMEAR = 0
   ISPIN = 1
   ISTART = 0
   ISYM = 0
   KPAR = 2
   LMAXMIX = 4
   NELM = 100
   NPAR = 16
   LASPH = .TRUE.
   LCHARG = .FALSE.
   LWAVE = .FALSE.

 POTCAR:    PAW_PBE Ge 05Jan2001                  
 POTCAR:    PAW_PBE Se 06Sep2000                  
 POTCAR:    PAW_PBE Ge 05Jan2001                  
   VRHFIN =Ge: s2p2                                                                                 
   LEXCH  = PE                                                                                      
   EATOM  =   104.9960 eV,    7.7170 Ry                                                             
                                                                                                    
   TITEL  = PAW_PBE Ge 05Jan2001                                                                    
   LULTRA =        F    use ultrasoft PP ?                                                          
   IUNSCR =        1    unscreen: 0-lin 1-nonlin 2-no                                               
   RPACOR =    2.170    partial core radius                                                         
   POMASS =   72.610; ZVAL   =    4.000    mass and valenz                                          
   RCORE  =    2.300    outmost cutoff radius                                                       
   RWIGS  =    2.300; RWIGS  =    1.217    wigner-seitz radius (au A)                               
   ENMAX  =  173.807; ENMIN  =  130.355 eV                                                          
   ICORE  =        3    local potential                                                             
   LCOR   =        T    correct aug charges                                                         
   LPAW   =        T    paw PP                                                                      
   EAUG   =  385.843                                                                                
   DEXC   =    0.000                                                                                
   RMAX   =    2.342    core radius for proj-oper                                                   
   RAUG   =    1.300    factor for augmentation sphere                                              
   RDEP   =    2.318    radius for radial grids                                                     
   RDEPT  =    2.103    core radius for aug-charge                                                  
                                                                                                    
   Atomic configuration                                                                             
   10 entries                                                                                       
     n  l   j            E        occ.                                                              
     1  0  0.50    -10959.8463   2.0000                                                             
     2  0  0.50     -1371.6056   2.0000                                                             
     2  1  1.50     -1198.4791   6.0000                                                             
     3  0  0.50      -168.4733   2.0000                                                             
     3  1  1.50      -115.6019   6.0000                                                             
     3  2  2.50       -29.3106  10.0000                                                             
     4  0  0.50       -11.7309   2.0000                                                             
     4  1  0.50        -3.8952   2.0000                                                             
     4  2  1.50        -4.0817   0.0000                                                             
     4  3  2.50        -4.0817   0.0000                                                             
   Description                                                                                      
     l       E           TYP  RCUT    TYP  RCUT                                                     
     0    -11.7309493     23  2.300                                                                 
     0     -7.4578696     23  2.300                                                                 
     1     -3.8952261     23  2.300                                                                 
     1      6.1178114     23  2.300                                                                 
     2     -4.0817478     23  2.300                                                                 
     3     -1.3605826      7  2.300                                                                 
  local pseudopotential read in
  partial core-charges read in
  partial kinetic energy density read in
  atomic valenz-charges read in
  non local Contribution for L=            0  read in
    real space projection operators read in
  non local Contribution for L=            0  read in
    real space projection operators read in
  non local Contribution for L=            1  read in
    real space projection operators read in
  non local Contribution for L=            1  read in
    real space projection operators read in
  non local Contribution for L=            2  read in
    real space projection operators read in
    PAW grid and wavefunctions read in
 
   number of l-projection  operators is LMAX  =            5
   number of lm-projection operators is LMMAX =           13
 
 POTCAR:    PAW_PBE Se 06Sep2000                  
   VRHFIN =Se: s2p4                                                                                 
   LEXCH  = PE                                                                                      
   EATOM  =   257.1286 eV,   18.8984 Ry                                                             
                                                                                                    
   TITEL  = PAW_PBE Se 06Sep2000                                                                    
   LULTRA =        F    use ultrasoft PP ?                                                          
   IUNSCR =        1    unscreen: 0-lin 1-nonlin 2-no                                               
   RPACOR =    1.900    partial core radius                                                         
   POMASS =   78.960; ZVAL   =    6.000    mass and valenz                                          
   RCORE  =    2.100    outmost cutoff radius                                                       
   RWIGS  =    2.200; RWIGS  =    1.164    wigner-seitz radius (au A)                               
   ENMAX  =  211.555; ENMIN  =  158.666 eV                                                          
   ICORE  =        3    local potential                                                             
   LCOR   =        T    correct aug charges                                                         
   LPAW   =        T    paw PP                                                                      
   EAUG   =  446.842                                                                                
   DEXC   =    0.000                                                                                
   RMAX   =    2.147    core radius for proj-oper                                                   
   RAUG   =    1.300    factor for augmentation sphere                                              
   RDEP   =    2.177    radius for radial grids                                                     
   RDEPT  =    1.928    core radius for aug-charge                                                  
                                                                                                    
   Atomic configuration                                                                             
   10 entries                                                                                       
     n  l   j            E        occ.                                                              
     1  0  0.50    -12503.4787   2.0000                                                             
     2  0  0.50     -1606.9547   2.0000                                                             
     2  1  1.50     -1413.3140   6.0000                                                             
     3  0  0.50      -213.4885   2.0000                                                             
     3  1  1.50      -152.9538   6.0000                                                             
     3  2  2.50       -53.1221  10.0000                                                             
     4  0  0.50       -17.2865   2.0000                                                             
     4  1  0.50        -6.5110   4.0000                                                             
     4  2  2.50        -6.8029   0.0000                                                             
     4  3  2.50        -6.8029   0.0000                                                             
   Description                                                                                      
     l       E           TYP  RCUT    TYP  RCUT                                                     
     0    -17.2865377     23  2.100                                                                 
     0    -15.3094411     23  2.100                                                                 
     1     -6.5110275     23  2.100                                                                 
     1     -0.0695192     23  2.100                                                                 
     2     -6.8029130     23  2.100                                                                 
     3     -1.3605826      7  2.100                                                                 
  local pseudopotential read in
  partial core-charges read in
  partial kinetic energy density read in
  atomic valenz-charges read in
  non local Contribution for L=            0  read in
    real space projection operators read in
  non local Contribution for L=            0  read in
    real space projection operators read in
  non local Contribution for L=            1  read in
    real space projection operators read in
  non local Contribution for L=            1  read in
    real space projection operators read in
  non local Contribution for L=            2  read in
    real space projection operators read in
    PAW grid and wavefunctions read in
 
   number of l-projection  operators is LMAX  =            5
   number of lm-projection operators is LMMAX =           13
 
  PAW_PBE Ge 05Jan2001                  :
 energy of atom  1       EATOM= -104.9960
 kinetic energy error for atom=    0.0005 (will be added to EATOM!!)
  PAW_PBE Se 06Sep2000                  :
 energy of atom  2       EATOM= -257.1286
 kinetic energy error for atom=    0.0030 (will be added to EATOM!!)
 
 
 POSCAR: Ge Se
  positions in cartesian coordinates
  No initial velocities read in
 exchange correlation table for  LEXCH =        8
   RHO(1)=    0.500       N(1)  =     2000
   RHO(2)=  100.500       N(2)  =     4000
 


--------------------------------------------------------------------------------------------------------


 ion  position               nearest neighbor table
   1  0.092  0.250  0.123-   6 2.59   6 2.59   5 2.61
   2  0.592  0.750  0.377-   5 2.59   5 2.59   6 2.61
   3  0.908  0.750  0.877-   8 2.59   8 2.59   7 2.61
   4  0.408  0.250  0.623-   7 2.59   7 2.59   8 2.61
   5  0.027  0.250  0.356-   2 2.59   2 2.59   1 2.61
   6  0.527  0.750  0.144-   1 2.59   1 2.59   2 2.61
   7  0.973  0.750  0.644-   4 2.59   4 2.59   3 2.61
   8  0.473  0.250  0.856-   3 2.59   3 2.59   4 2.61
 

IMPORTANT INFORMATION: All symmetrisations will be switched off!
NOSYMM: (Re-)initialisation of all symmetry stuff for point group C_1.


----------------------------------------------------------------------------------------

                                     Primitive cell                                     

  volume of cell :     169.3618

  direct lattice vectors                    reciprocal lattice vectors
     4.000000000  0.000000000  0.000000000     0.250000000  0.000000000  0.000000000
     0.000000000  3.800000000  0.000000000     0.000000000  0.263157895  0.000000000
     0.000000000  0.000000000 11.142221000     0.000000000  0.000000000  0.089748713

  length of vectors
     4.000000000  3.800000000 11.142221000     0.250000000  0.263157895  0.089748713

  position of ions in fractional coordinates (direct lattice)
     0.092137589  0.250000000  0.123214138
     0.592137589  0.750000000  0.376785862
     0.907862411  0.750000000  0.876785862
     0.407862411  0.250000000  0.623214138
     0.026965680  0.250000000  0.356237472
     0.526965680  0.750000000  0.143762528
     0.973034320  0.750000000  0.643762528
     0.473034320  0.250000000  0.856237472

  ion indices of the primitive-cell ions
   primitive index   ion index
                 1           1
                 2           2
                 3           3
                 4           4
                 5           5
                 6           6
                 7           7
                 8           8

----------------------------------------------------------------------------------------

 
 
 KPOINTS: KPOINTS created by Atomic Simulation Env

Automatic generation of k-mesh.
 Grid dimensions read from file:
 generate k-points for:    6    6    2

 Generating k-lattice:

  Cartesian coordinates                     Fractional coordinates (reciprocal lattice)
     0.041666667  0.000000000  0.000000000     0.166666667  0.000000000  0.000000000
     0.000000000  0.043859649  0.000000000     0.000000000  0.166666667  0.000000000
     0.000000000  0.000000000  0.044874357     0.000000000  0.000000000  0.500000000

  Length of vectors
     0.041666667  0.043859649  0.044874357

  Shift w.r.t. Gamma in fractional coordinates (k-lattice)
     0.000000000  0.000000000  0.000000000

 
 Subroutine IBZKPT returns following result:
 ===========================================
 
 Found     40 irreducible k-points:
 
 Following reciprocal coordinates:
            Coordinates               Weight
  0.000000  0.000000  0.000000      1.000000
  0.166667  0.000000  0.000000      2.000000
  0.333333  0.000000  0.000000      2.000000
  0.500000  0.000000  0.000000      1.000000
  0.000000  0.166667  0.000000      2.000000
  0.166667  0.166667  0.000000      2.000000
 -0.166667  0.166667  0.000000      2.000000
  0.333333  0.166667  0.000000      2.000000
 -0.333333  0.166667  0.000000      2.000000
  0.500000  0.166667  0.000000      2.000000
  0.000000  0.333333  0.000000      2.000000
  0.166667  0.333333  0.000000      2.000000
 -0.166667  0.333333  0.000000      2.000000
  0.333333  0.333333  0.000000      2.000000
 -0.333333  0.333333  0.000000      2.000000
  0.500000  0.333333  0.000000      2.000000
  0.000000  0.500000  0.000000      1.000000
  0.166667  0.500000  0.000000      2.000000
  0.333333  0.500000  0.000000      2.000000
  0.500000  0.500000  0.000000      1.000000
  0.000000  0.000000  0.500000      1.000000
  0.166667  0.000000  0.500000      2.000000
  0.333333  0.000000  0.500000      2.000000
  0.500000  0.000000  0.500000      1.000000
  0.000000  0.166667  0.500000      2.000000
  0.166667  0.166667  0.500000      2.000000
 -0.166667  0.166667  0.500000      2.000000
  0.333333  0.166667  0.500000      2.000000
 -0.333333  0.166667  0.500000      2.000000
  0.500000  0.166667  0.500000      2.000000
  0.000000  0.333333  0.500000      2.000000
  0.166667  0.333333  0.500000      2.000000
 -0.166667  0.333333  0.500000      2.000000
  0.333333  0.333333  0.500000      2.000000
 -0.333333  0.333333  0.500000      2.000000
  0.500000  0.333333  0.500000      2.000000
  0.000000  0.500000  0.500000      1.000000
  0.166667  0.500000  0.500000      2.000000
  0.333333  0.500000  0.500000      2.000000
  0.500000  0.500000  0.500000      1.000000
 
 Following cartesian coordinates:
            Coordinates               Weight
  0.000000  0.000000  0.000000      1.000000
  0.041667  0.000000  0.000000      2.000000
  0.083333  0.000000  0.000000      2.000000
  0.125000  0.000000  0.000000      1.000000
  0.000000  0.043860  0.000000      2.000000
  0.041667  0.043860  0.000000      2.000000
 -0.041667  0.043860  0.000000      2.000000
  0.083333  0.043860  0.000000      2.000000
 -0.083333  0.043860  0.000000      2.000000
  0.125000  0.043860  0.000000      2.000000
  0.000000  0.087719  0.000000      2.000000
  0.041667  0.087719  0.000000      2.000000
 -0.041667  0.087719  0.000000      2.000000
  0.083333  0.087719  0.000000      2.000000
 -0.083333  0.087719  0.000000      2.000000
  0.125000  0.087719  0.000000      2.000000
  0.000000  0.131579  0.000000      1.000000
  0.041667  0.131579  0.000000      2.000000
  0.083333  0.131579  0.000000      2.000000
  0.125000  0.131579  0.000000      1.000000
  0.000000  0.000000  0.044874      1.000000
  0.041667  0.000000  0.044874      2.000000
  0.083333  0.000000  0.044874      2.000000
  0.125000  0.000000  0.044874      1.000000
  0.000000  0.043860  0.044874      2.000000
  0.041667  0.043860  0.044874      2.000000
 -0.041667  0.043860  0.044874      2.000000
  0.083333  0.043860  0.044874      2.000000
 -0.083333  0.043860  0.044874      2.000000
  0.125000  0.043860  0.044874      2.000000
  0.000000  0.087719  0.044874      2.000000
  0.041667  0.087719  0.044874      2.000000
 -0.041667  0.087719  0.044874      2.000000
  0.083333  0.087719  0.044874      2.000000
 -0.083333  0.087719  0.044874      2.000000
  0.125000  0.087719  0.044874      2.000000
  0.000000  0.131579  0.044874      1.000000
  0.041667  0.131579  0.044874      2.000000
  0.083333  0.131579  0.044874      2.000000
  0.125000  0.131579  0.044874      1.000000
 


--------------------------------------------------------------------------------------------------------




 Dimension of arrays:
   k-points           NKPTS =     40   k-points in BZ     NKDIM =     40   number of bands    NBANDS=     32
   number of dos      NEDOS =    301   number of ions     NIONS =      8
   non local maximal  LDIM  =      5   non local SUM 2l+1 LMDIM =     13
   total plane-waves  NPLWV =  19440
   max r-space proj   IRMAX =      1   max aug-charges    IRDMAX=   6437
   dimension x,y,z NGX =    20 NGY =   18 NGZ =   54
   dimension x,y,z NGXF=    40 NGYF=   36 NGZF=  108
   support grid    NGXF=    40 NGYF=   36 NGZF=  108
   ions per type =               4   4
   NGX,Y,Z   is equivalent  to a cutoff of   8.31,  7.87,  8.06 a.u.
   NGXF,Y,Z  is equivalent  to a cutoff of  16.62, 15.75, 16.11 a.u.

 SYSTEM =  ./                                      
 POSCAR =  Ge Se                                   

 Startparameter for this run:
   NWRITE =      2    write-flag & timer
   PREC   = normal    normal or accurate (medium, high low for compatibility)
   ISTART =      0    job   : 0-new  1-cont  2-samecut
   ICHARG =      2    charge: 1-file 2-atom 10-const
   ISPIN  =      1    spin polarized calculation?
   LNONCOLLINEAR =      F non collinear calculations
   LSORBIT =      F    spin-orbit coupling
   INIWAV =      1    electr: 0-lowe 1-rand  2-diag
   LASPH  =      T    aspherical Exc in radial PAW
 Electronic Relaxation 1
   ENCUT  =  360.0 eV  26.46 Ry    5.14 a.u.   6.19  5.88 17.24*2*pi/ulx,y,z
   ENINI  =  360.0     initial cutoff
   ENAUG  =  446.8 eV  augmentation charge cutoff
   NELM   =    100;   NELMIN=  2; NELMDL= -5     # of ELM steps 
   EDIFF  = 0.1E-05   stopping-criterion for ELM
   LREAL  =      F    real-space projection
   NLSPLINE    = F    spline interpolate recip. space projectors
   LCOMPAT=      F    compatible to vasp.4.4
   GGA_COMPAT  = T    GGA compatible to vasp.4.4-vasp.4.6
   LMAXPAW     = -100 max onsite density
   LMAXMIX     =    4 max onsite mixed and CHGCAR
   VOSKOWN=      0    Vosko Wilk Nusair interpolation
   ROPT   =    0.00000   0.00000
 Ionic relaxation
   EDIFFG = 0.1E-04   stopping-criterion for IOM
   NSW    =      0    number of steps for IOM
   NBLOCK =      1;   KBLOCK =      1    inner block; outer block 
   IBRION =     -1    ionic relax: 0-MD 1-quasi-New 2-CG
   NFREE  =      0    steps in history (QN), initial steepest desc. (CG)
   ISIF   =      2    stress and relaxation
   IWAVPR =     10    prediction:  0-non 1-charg 2-wave 3-comb
   ISYM   =      0    0-nonsym 1-usesym 2-fastsym
   LCORR  =      T    Harris-Foulkes like correction to forces

   POTIM  = 0.5000    time-step for ionic-motion
   TEIN   =    0.0    initial temperature
   TEBEG  =    0.0;   TEEND  =   0.0 temperature during run
   SMASS  =  -3.00    Nose mass-parameter (am)
   estimated Nose-frequenzy (Omega)   =  0.10E-29 period in steps = 0.13E+47 mass=  -0.366E-27a.u.
   SCALEE = 1.0000    scale energy and forces
   NPACO  =    256;   APACO  = 10.0  distance and # of slots for P.C.
   PSTRESS=    0.0 pullay stress

  Mass of Ions in am
   POMASS =  72.61 78.96
  Ionic Valenz
   ZVAL   =   4.00  6.00
  Atomic Wigner-Seitz radii
   RWIGS  =  -1.00 -1.00
  virtual crystal weights 
   VCA    =   1.00  1.00
   NELECT =      40.0000    total number of electrons
   NUPDOWN=      -1.0000    fix difference up-down

 DOS related values:
   EMIN   =  10.00;   EMAX   =-10.00  energy-range for DOS
   EFERMI =   0.00;   METHOD = LEGACY      
   ISMEAR =     0;   SIGMA  =   0.05  broadening in eV -4-tet -1-fermi 0-gaus

 Electronic relaxation 2 (details)
   IALGO  =     38    algorithm
   LDIAG  =      T    sub-space diagonalisation (order eigenvalues)
   LSUBROT=      F    optimize rotation matrix (better conditioning)
   TURBO    =      0    0=normal 1=particle mesh
   IRESTART =      0    0=no restart 2=restart with 2 vectors
   NREBOOT  =      0    no. of reboots
   NMIN     =      0    reboot dimension
   EREF     =   0.00    reference energy to select bands
   IMIX   =      4    mixing-type and parameters
     AMIX     =   0.40;   BMIX     =  1.00
     AMIX_MAG =   1.60;   BMIX_MAG =  1.00
     AMIN     =   0.10
     WC   =   100.;   INIMIX=   1;  MIXPRE=   1;  MAXMIX= -45

 Intra band minimization:
   WEIMIN = 0.0000     energy-eigenvalue tresh-hold
   EBREAK =  0.78E-08  absolut break condition
   DEPER  =   0.30     relativ break condition  

   TIME   =   0.40     timestep for ELM

  volume/ion in A,a.u.               =      21.17       142.86
  Fermi-wavevector in a.u.,A,eV,Ry     =   1.011944  1.912296 13.932776  1.024030
  Thomas-Fermi vector in A             =   2.145024
 
 Write flags
   LWAVE        =      F    write WAVECAR
   LDOWNSAMPLE  =      F    k-point downsampling of WAVECAR
   LCHARG       =      F    write CHGCAR
   LVTOT        =      F    write LOCPOT, total local potential
   LVHAR        =      F    write LOCPOT, Hartree potential only
   LELF         =      F    write electronic localiz. function (ELF)
   LORBIT       =      0    0 simple, 1 ext, 2 COOP (PROOUT), +10 PAW based schemes


 Dipole corrections
   LMONO  =      F    monopole corrections only (constant potential shift)
   LDIPOL =      F    correct potential (dipole corrections)
   IDIPOL =      0    1-x, 2-y, 3-z, 4-all directions 
   EPSILON=  1.0000000 bulk dielectric constant

 Exchange correlation treatment:
   GGA     =    PE    GGA type
   LEXCH   =     8    internal setting for exchange type
   LIBXC   =     F    Libxc                    
   VOSKOWN =     0    Vosko Wilk Nusair interpolation
   LHFCALC =     F    Hartree Fock is set to
   LHFONE  =     F    Hartree Fock one center treatment
   AEXX    =    0.0000 exact exchange contribution

 Linear response parameters
   LEPSILON=     F    determine dielectric tensor
   LRPA    =     F    only Hartree local field effects (RPA)
   LNABLA  =     F    use nabla operator in PAW spheres
   LVEL    =     F    velocity operator in full k-point grid
   CSHIFT  =0.1000    complex shift for real part using Kramers Kronig
   OMEGAMAX=  -1.0    maximum frequency
   DEG_THRESHOLD= 0.2000000E-02 threshold for treating states as degnerate
   RTIME   =   -0.100 relaxation time in fs
  (WPLASMAI=    0.000 imaginary part of plasma frequency in eV, 0.658/RTIME)
   DFIELD  = 0.0000000 0.0000000 0.0000000 field for delta impulse in time
 
  Optional k-point grid parameters
   LKPOINTS_OPT  =     F    use optional k-point grid
   KPOINTS_OPT_MODE=     1    mode for optional k-point grid
 
 Orbital magnetization related:
   ORBITALMAG=     F  switch on orbital magnetization
   LCHIMAG   =     F  perturbation theory with respect to B field
   DQ        =  0.001000  dq finite difference perturbation B field
   LLRAUG    =     F  two centre corrections for induced B field
   LBONE     =     F  B-component reconstruction in AE one-centre
   LVGVCALC  =     T  calculate vGv susceptibility
   LVGVAPPL  =     F  apply vGv susceptibility instead of pGv for G=0

 Random number generation:
   RANDOM_GENERATOR = DEFAULT
   PCG_SEED         = not used


--------------------------------------------------------------------------------------------------------


 Static calculation
 charge density and potential will be updated during run
 non-spin polarized calculation
 Variant of blocked Davidson
 Davidson routine will perform the subspace rotation
 perform sub-space diagonalisation
    after iterative eigenvector-optimisation
 modified Broyden-mixing scheme, WC =      100.0
 initial mixing is a Kerker type mixing with AMIX =  0.4000 and BMIX =      1.0000
 Hartree-type preconditioning will be used
 using additional bands            12
 reciprocal scheme for non local part
 use partial core corrections
 calculate Harris-corrections to forces 
   (improved forces if not selfconsistent)
 use gradient corrections 
 use of overlap-Matrix (Vanderbilt PP)
 Gauss-broadening in eV      SIGMA  =   0.05


--------------------------------------------------------------------------------------------------------


  energy-cutoff  :      360.00
  volume of cell :      169.36
      direct lattice vectors                 reciprocal lattice vectors
     4.000000000  0.000000000  0.000000000     0.250000000  0.000000000  0.000000000
     0.000000000  3.800000000  0.000000000     0.000000000  0.263157895  0.000000000
     0.000000000  0.000000000 11.142221000     0.000000000  0.000000000  0.089748713

  length of vectors
     4.000000000  3.800000000 11.142221000     0.250000000  0.263157895  0.089748713


 
 k-points in units of 2pi/SCALE and weight: KPOINTS created by Atomic Simulation Env
   0.00000000  0.00000000  0.00000000       0.014
   0.04166667  0.00000000  0.00000000       0.028
   0.08333333  0.00000000  0.00000000       0.028
   0.12500000  0.00000000  0.00000000       0.014
   0.00000000  0.04385965  0.00000000       0.028
   0.04166667  0.04385965  0.00000000       0.028
  -0.04166667  0.04385965  0.00000000       0.028
   0.08333333  0.04385965  0.00000000       0.028
  -0.08333333  0.04385965  0.00000000       0.028
   0.12500000  0.04385965  0.00000000       0.028
   0.00000000  0.08771930  0.00000000       0.028
   0.04166667  0.08771930  0.00000000       0.028
  -0.04166667  0.08771930  0.00000000       0.028
   0.08333333  0.08771930  0.00000000       0.028
  -0.08333333  0.08771930  0.00000000       0.028
   0.12500000  0.08771930  0.00000000       0.028
   0.00000000  0.13157895  0.00000000       0.014
   0.04166667  0.13157895  0.00000000       0.028
   0.08333333  0.13157895  0.00000000       0.028
   0.12500000  0.13157895  0.00000000       0.014
   0.00000000  0.00000000  0.04487436       0.014
   0.04166667  0.00000000  0.04487436       0.028
   0.08333333  0.00000000  0.04487436       0.028
   0.12500000  0.00000000  0.04487436       0.014
   0.00000000  0.04385965  0.04487436       0.028
   0.04166667  0.04385965  0.04487436       0.028
  -0.04166667  0.04385965  0.04487436       0.028
   0.08333333  0.04385965  0.04487436       0.028
  -0.08333333  0.04385965  0.04487436       0.028
   0.12500000  0.04385965  0.04487436       0.028
   0.00000000  0.08771930  0.04487436       0.028
   0.04166667  0.08771930  0.04487436       0.028
  -0.04166667  0.08771930  0.04487436       0.028
   0.08333333  0.08771930  0.04487436       0.028
  -0.08333333  0.08771930  0.04487436       0.028
   0.12500000  0.08771930  0.04487436       0.028
   0.00000000  0.13157895  0.04487436       0.014
   0.04166667  0.13157895  0.04487436       0.028
   0.08333333  0.13157895  0.04487436       0.028
   0.12500000  0.13157895  0.04487436       0.014
 
 k-points in reciprocal lattice and weights: KPOINTS created by Atomic Simulation Env
   0.00000000  0.00000000  0.00000000       0.014
   0.16666667  0.00000000  0.00000000       0.028
   0.33333333  0.00000000  0.00000000       0.028
   0.50000000  0.00000000  0.00000000       0.014
   0.00000000  0.16666667  0.00000000       0.028
   0.16666667  0.16666667  0.00000000       0.028
  -0.16666667  0.16666667  0.00000000       0.028
   0.33333333  0.16666667  0.00000000       0.028
  -0.33333333  0.16666667  0.00000000       0.028
   0.50000000  0.16666667  0.00000000       0.028
   0.00000000  0.33333333  0.00000000       0.028
   0.16666667  0.33333333  0.00000000       0.028
  -0.16666667  0.33333333  0.00000000       0.028
   0.33333333  0.33333333  0.00000000       0.028
  -0.33333333  0.33333333  0.00000000       0.028
   0.50000000  0.33333333  0.00000000       0.028
   0.00000000  0.50000000  0.00000000       0.014
   0.16666667  0.50000000  0.00000000       0.028
   0.33333333  0.50000000  0.00000000       0.028
   0.50000000  0.50000000  0.00000000       0.014
   0.00000000  0.00000000  0.50000000       0.014
   0.16666667  0.00000000  0.50000000       0.028
   0.33333333  0.00000000  0.50000000       0.028
   0.50000000  0.00000000  0.50000000       0.014
   0.00000000  0.16666667  0.50000000       0.028
   0.16666667  0.16666667  0.50000000       0.028
  -0.16666667  0.16666667  0.50000000       0.028
   0.33333333  0.16666667  0.50000000       0.028
  -0.33333333  0.16666667  0.50000000       0.028
   0.50000000  0.16666667  0.50000000       0.028
   0.00000000  0.33333333  0.50000000       0.028
   0.16666667  0.33333333  0.50000000       0.028
  -0.16666667  0.33333333  0.50000000       0.028
   0.33333333  0.33333333  0.50000000       0.028
  -0.33333333  0.33333333  0.50000000       0.028
   0.50000000  0.33333333  0.50000000       0.028
   0.00000000  0.50000000  0.50000000       0.014
   0.16666667  0.50000000  0.50000000       0.028
   0.33333333  0.50000000  0.50000000       0.028
   0.50000000  0.50000000  0.50000000       0.014
 
 position of ions in fractional coordinates (direct lattice) 
   0.09213759  0.25000000  0.12321414
   0.59213759  0.75000000  0.37678586
   0.90786241  0.75000000  0.87678586
   0.40786241  0.25000000  0.62321414
   0.02696568  0.25000000  0.35623747
   0.52696568  0.75000000  0.14376253
   0.97303432  0.75000000  0.64376253
   0.47303432  0.25000000  0.85623747
 
 position of ions in cartesian coordinates  (Angst):
   0.36855036  0.95000000  1.37287916
   2.36855036  2.85000000  4.19823134
   3.63144964  2.85000000  9.76934184
   1.63144964  0.95000000  6.94398966
   0.10786272  0.95000000  3.96927664
   2.10786272  2.85000000  1.60183386
   3.89213728  2.85000000  7.17294436
   1.89213728  0.95000000  9.54038714
 


--------------------------------------------------------------------------------------------------------


 k-point   1 :   0.0000 0.0000 0.0000  plane waves:    2637
 k-point   2 :   0.1667 0.0000 0.0000  plane waves:    2627
 k-point   3 :   0.3333 0.0000 0.0000  plane waves:    2606
 k-point   4 :   0.5000 0.0000 0.0000  plane waves:    2608
 k-point   5 :   0.0000 0.1667 0.0000  plane waves:    2632
 k-point   6 :   0.1667 0.1667 0.0000  plane waves:    2622
 k-point   7 :  -0.1667 0.1667 0.0000  plane waves:    2622
 k-point   8 :   0.3333 0.1667 0.0000  plane waves:    2635
 k-point   9 :  -0.3333 0.1667 0.0000  plane waves:    2635
 k-point  10 :   0.5000 0.1667 0.0000  plane waves:    2618
 k-point  11 :   0.0000 0.3333 0.0000  plane waves:    2634
 k-point  12 :   0.1667 0.3333 0.0000  plane waves:    2629
 k-point  13 :  -0.1667 0.3333 0.0000  plane waves:    2629
 k-point  14 :   0.3333 0.3333 0.0000  plane waves:    2635
 k-point  15 :  -0.3333 0.3333 0.0000  plane waves:    2635
 k-point  16 :   0.5000 0.3333 0.0000  plane waves:    2634
 k-point  17 :   0.0000 0.5000 0.0000  plane waves:    2624
 k-point  18 :   0.1667 0.5000 0.0000  plane waves:    2624
 k-point  19 :   0.3333 0.5000 0.0000  plane waves:    2638
 k-point  20 :   0.5000 0.5000 0.0000  plane waves:    2644
 k-point  21 :   0.0000 0.0000 0.5000  plane waves:    2638
 k-point  22 :   0.1667 0.0000 0.5000  plane waves:    2614
 k-point  23 :   0.3333 0.0000 0.5000  plane waves:    2620
 k-point  24 :   0.5000 0.0000 0.5000  plane waves:    2616
 k-point  25 :   0.0000 0.1667 0.5000  plane waves:    2628
 k-point  26 :   0.1667 0.1667 0.5000  plane waves:    2626
 k-point  27 :  -0.1667 0.1667 0.5000  plane waves:    2626
 k-point  28 :   0.3333 0.1667 0.5000  plane waves:    2620
 k-point  29 :  -0.3333 0.1667 0.5000  plane waves:    2620
 k-point  30 :   0.5000 0.1667 0.5000  plane waves:    2628
 k-point  31 :   0.0000 0.3333 0.5000  plane waves:    2632
 k-point  32 :   0.1667 0.3333 0.5000  plane waves:    2620
 k-point  33 :  -0.1667 0.3333 0.5000  plane waves:    2620
 k-point  34 :   0.3333 0.3333 0.5000  plane waves:    2630
 k-point  35 :  -0.3333 0.3333 0.5000  plane waves:    2630
 k-point  36 :   0.5000 0.3333 0.5000  plane waves:    2648
 k-point  37 :   0.0000 0.5000 0.5000  plane waves:    2596
 k-point  38 :   0.1667 0.5000 0.5000  plane waves:    2632
 k-point  39 :   0.3333 0.5000 0.5000  plane waves:    2640
 k-point  40 :   0.5000 0.5000 0.5000  plane waves:    2664

 maximum and minimum number of plane-waves per node :       686      636

 maximum number of plane-waves:      2664
 maximum index in each direction: 
   IXMAX=    6   IYMAX=    5   IZMAX=   17
   IXMIN=   -6   IYMIN=   -6   IZMIN=  -17


 parallel 3D FFT for wavefunctions:
    minimum data exchange during FFTs selected (reduces bandwidth)
 parallel 3D FFT for charge:
    minimum data exchange during FFTs selected (reduces bandwidth)


 total amount of memory used by VASP MPI-rank0    37298. kBytes
=======================================================================

   base      :      30000. kBytes
   nonl-proj :       5677. kBytes
   fftplans  :        288. kBytes
   grid      :        416. kBytes
   one-center:         16. kBytes
   wavefun   :        901. kBytes
 
     INWAV:  cpu time      0.0000: real time      0.0001
 Broyden mixing: mesh for mixing (old mesh)
   NGX = 13   NGY = 11   NGZ = 35
  (NGX  = 40   NGY  = 36   NGZ  =108)
  gives a total of   5005 points

 initial charge density was supplied:
 charge density of overlapping atoms calculated
 number of electron      40.0000000 magnetization 
 keeping initial charge density in first step


--------------------------------------------------------------------------------------------------------


 Maximum index for augmentation-charges           354 (set IRDMAX)


--------------------------------------------------------------------------------------------------------


 First call to EWALD:  gamma=   0.320
 Maximum number of real-space cells 4x 4x 2
 Maximum number of reciprocal cells 2x 2x 5

    FEWALD:  cpu time      0.0008: real time      0.0008


--------------------------------------- Ionic step        1  -------------------------------------------




--------------------------------------- Iteration      1(   1)  ---------------------------------------


    POTLOK:  cpu time      0.0057: real time      0.0061
    SETDIJ:  cpu time      0.1395: real time      0.1401
     EDDAV:  cpu time      0.2597: real time      0.2625
       DOS:  cpu time      0.0014: real time      0.0014
    --------------------------------------------
      LOOP:  cpu time      0.4063: real time      0.4100

 eigenvalue-minimisations  :  2560
 total energy-change (2. order) : 0.1284484E+03  (-0.1316971E+04)
 number of electron      40.0000000 magnetization 
 augmentation part       40.0000000 magnetization 

 Free energy of the ion-electron system (eV)
  ---------------------------------------------------
  alpha Z        PSCENC =       100.04882755
  Ewald energy   TEWEN  =     -1502.06074725
  -Hartree energ DENC   =       -99.25575458
  -exchange      EXHF   =         0.00000000
  -V(xc)+E(xc)   XCENC  =       -31.68309466
  PAW double counting   =      1193.78262552    -1080.73714043
  entropy T*S    EENTRO =        -0.00239044
  eigenvalues    EBANDS =        99.87144317
  atomic energy  EATOM  =      1448.48460880
  Solvation  Ediel_sol  =         0.00000000
  ---------------------------------------------------
  free energy    TOTEN  =       128.44837767 eV

  energy without entropy =      128.45076811  energy(sigma->0) =      128.44957289


--------------------------------------------------------------------------------------------------------




--------------------------------------- Iteration      1(   2)  ---------------------------------------


     EDDAV:  cpu time      0.3167: real time      0.3201
       DOS:  cpu time      0.0013: real time      0.0013
    --------------------------------------------
      LOOP:  cpu time      0.3180: real time      0.3213

 eigenvalue-minimisations  :  3712
 total energy-change (2. order) :-0.1543135E+03  (-0.1498910E+03)
 number of electron      40.0000000 magnetization 
 augmentation part       40.0000000 magnetization 

 Free energy of the ion-electron system (eV)
  ---------------------------------------------------
  alpha Z        PSCENC =       100.04882755
  Ewald energy   TEWEN  =     -1502.06074725
  -Hartree energ DENC   =       -99.25575458
  -exchange      EXHF   =         0.00000000
  -V(xc)+E(xc)   XCENC  =       -31.68309466
  PAW double counting   =      1193.78262552    -1080.73714043
  entropy T*S    EENTRO =        -0.00095376
  eigenvalues    EBANDS =       -54.44351961
  atomic energy  EATOM  =      1448.48460880
  Solvation  Ediel_sol  =         0.00000000
  ---------------------------------------------------
  free energy    TOTEN  =       -25.86514843 eV

  energy without entropy =      -25.86419467  energy(sigma->0) =      -25.86467155


--------------------------------------------------------------------------------------------------------




--------------------------------------- Iteration      1(   3)  ---------------------------------------


     EDDAV:  cpu time      0.2889: real time      0.2918
       DOS:  cpu time      0.0010: real time      0.0010
    --------------------------------------------
      LOOP:  cpu time      0.2898: real time      0.2928

 eigenvalue-minimisations  :  3152
 total energy-change (2. order) :-0.7720573E+01  (-0.7702356E+01)
 number of electron      40.0000000 magnetization 
 augmentation part       40.0000000 magnetization 

 Free energy of the ion-electron system (eV)
  ---------------------------------------------------
  alpha Z        PSCENC =       100.04882755
  Ewald energy   TEWEN  =     -1502.06074725
  -Hartree energ DENC   =       -99.25575458
  -exchange      EXHF   =         0.00000000
  -V(xc)+E(xc)   XCENC  =       -31.68309466
  PAW double counting   =      1193.78262552    -1080.73714043
  entropy T*S    EENTRO =        -0.00107485
  eigenvalues    EBANDS =       -62.16397105
  atomic energy  EATOM  =      1448.48460880
  Solvation  Ediel_sol  =         0.00000000
  ---------------------------------------------------
  free energy    TOTEN  =       -33.58572095 eV

  energy without entropy =      -33.58464610  energy(sigma->0) =      -33.58518353


--------------------------------------------------------------------------------------------------------




--------------------------------------- Iteration      1(   4)  ---------------------------------------


     EDDAV:  cpu time      0.2924: real time      0.2955
       DOS:  cpu time      0.0010: real time      0.0010
    --------------------------------------------
      LOOP:  cpu time      0.2934: real time      0.2965

 eigenvalue-minimisations  :  3280
 total energy-change (2. order) :-0.4517690E-01  (-0.4516545E-01)
 number of electron      40.0000000 magnetization 
 augmentation part       40.0000000 magnetization 

 Free energy of the ion-electron system (eV)
  ---------------------------------------------------
  alpha Z        PSCENC =       100.04882755
  Ewald energy   TEWEN  =     -1502.06074725
  -Hartree energ DENC   =       -99.25575458
  -exchange      EXHF   =         0.00000000
  -V(xc)+E(xc)   XCENC  =       -31.68309466
  PAW double counting   =      1193.78262552    -1080.73714043
  entropy T*S    EENTRO =        -0.00107950
  eigenvalues    EBANDS =       -62.20914330
  atomic energy  EATOM  =      1448.48460880
  Solvation  Ediel_sol  =         0.00000000
  ---------------------------------------------------
  free energy    TOTEN  =       -33.63089785 eV

  energy without entropy =      -33.62981835  energy(sigma->0) =      -33.63035810


--------------------------------------------------------------------------------------------------------




--------------------------------------- Iteration      1(   5)  ---------------------------------------


     EDDAV:  cpu time      0.2835: real time      0.2906
       DOS:  cpu time      0.0010: real time      0.0010
    CHARGE:  cpu time      0.0038: real time      0.0038
    MIXING:  cpu time      0.0008: real time      0.0008
    --------------------------------------------
      LOOP:  cpu time      0.2891: real time      0.2962

 eigenvalue-minimisations  :  3136
 total energy-change (2. order) :-0.2591879E-03  (-0.2591584E-03)
 number of electron      39.9999998 magnetization 
 augmentation part       -7.4127119 magnetization 

 Broyden mixing:
  rms(total) = 0.70267E+00    rms(broyden)= 0.70266E+00
  rms(prec ) = 0.76233E+00
  weight for this iteration     100.00

 Free energy of the ion-electron system (eV)
  ---------------------------------------------------
  alpha Z        PSCENC =       100.04882755
  Ewald energy   TEWEN  =     -1502.06074725
  -Hartree energ DENC   =       -99.25575458
  -exchange      EXHF   =         0.00000000
  -V(xc)+E(xc)   XCENC  =       -31.68309466
  PAW double counting   =      1193.78262552    -1080.73714043
  entropy T*S    EENTRO =        -0.00107949
  eigenvalues    EBANDS =       -62.20940249
  atomic energy  EATOM  =      1448.48460880
  Solvation  Ediel_sol  =         0.00000000
  ---------------------------------------------------
  free energy    TOTEN  =       -33.63115704 eV

  energy without entropy =      -33.63007755  energy(sigma->0) =      -33.63061729


--------------------------------------------------------------------------------------------------------




--------------------------------------- Iteration      1(   6)  ---------------------------------------


    POTLOK:  cpu time      0.0052: real time      0.0053
    SETDIJ:  cpu time      0.1400: real time      0.1408
     EDDAV:  cpu time      0.3083: real time      0.3114
       DOS:  cpu time      0.0009: real time      0.0009
    CHARGE:  cpu time      0.0044: real time      0.0045
    MIXING:  cpu time      0.0010: real time      0.0010
    --------------------------------------------
      LOOP:  cpu time      0.4599: real time      0.4639

 eigenvalue-minimisations  :  3312
 total energy-change (2. order) : 0.3018104E+00  (-0.5844259E-01)
 number of electron      39.9999998 magnetization 
 augmentation part       -7.3659839 magnetization 

 Broyden mixing:
  rms(total) = 0.43945E+00    rms(broyden)= 0.43945E+00
  rms(prec ) = 0.45473E+00
  weight for this iteration     100.00

 eigenvalues of (default mixing * dielectric matrix)
  average eigenvalue GAMMA=   2.3606
  2.3606

 Free energy of the ion-electron system (eV)
  ---------------------------------------------------
  alpha Z        PSCENC =       100.04882755
  Ewald energy   TEWEN  =     -1502.06074725
  -Hartree energ DENC   =      -103.97608595
  -exchange      EXHF   =         0.00000000
  -V(xc)+E(xc)   XCENC  =       -31.15110932
  PAW double counting   =      1491.65765945    -1378.96696213
  entropy T*S    EENTRO =        -0.00000111
  eigenvalues    EBANDS =       -57.36553667
  atomic energy  EATOM  =      1448.48460880
  Solvation  Ediel_sol  =         0.00000000
  ---------------------------------------------------
  free energy    TOTEN  =       -33.32934662 eV

  energy without entropy =      -33.32934552  energy(sigma->0) =      -33.32934607


--------------------------------------------------------------------------------------------------------




--------------------------------------- Iteration      1(   7)  ---------------------------------------


    POTLOK:  cpu time      0.0068: real time      0.0070
    SETDIJ:  cpu time      0.1410: real time      0.1418
     EDDAV:  cpu time      0.2923: real time      0.2956
       DOS:  cpu time      0.0009: real time      0.0009
    CHARGE:  cpu time      0.0036: real time      0.0036
    MIXING:  cpu time      0.0005: real time      0.0005
    --------------------------------------------
      LOOP:  cpu time      0.4450: real time      0.4494

 eigenvalue-minimisations  :  3264
 total energy-change (2. order) : 0.6536079E-02  (-0.2216580E-01)
 number of electron      39.9999998 magnetization 
 augmentation part       -7.3509572 magnetization 

 Broyden mixing:
  rms(total) = 0.10558E+00    rms(broyden)= 0.10558E+00
  rms(prec ) = 0.11361E+00
  weight for this iteration     100.00

 eigenvalues of (default mixing * dielectric matrix)
  average eigenvalue GAMMA=   1.8430
  1.2676  2.4183

 Free energy of the ion-electron system (eV)
  ---------------------------------------------------
  alpha Z        PSCENC =       100.04882755
  Ewald energy   TEWEN  =     -1502.06074725
  -Hartree energ DENC   =      -106.48293683
  -exchange      EXHF   =         0.00000000
  -V(xc)+E(xc)   XCENC  =       -30.66756481
  PAW double counting   =      1914.56203725    -1802.20746897
  entropy T*S    EENTRO =        -0.00001053
  eigenvalues    EBANDS =       -54.99955576
  atomic energy  EATOM  =      1448.48460880
  Solvation  Ediel_sol  =         0.00000000
  ---------------------------------------------------
  free energy    TOTEN  =       -33.32281055 eV

  energy without entropy =      -33.32280002  energy(sigma->0) =      -33.32280528


--------------------------------------------------------------------------------------------------------




--------------------------------------- Iteration      1(   8)  ---------------------------------------


    POTLOK:  cpu time      0.0050: real time      0.0052
    SETDIJ:  cpu time      0.1388: real time      0.1396
     EDDAV:  cpu time      0.2818: real time      0.2846
       DOS:  cpu time      0.0009: real time      0.0009
    CHARGE:  cpu time      0.0034: real time      0.0034
    MIXING:  cpu time      0.0005: real time      0.0005
    --------------------------------------------
      LOOP:  cpu time      0.4304: real time      0.4341

 eigenvalue-minimisations  :  3184
 total energy-change (2. order) : 0.3965364E-02  (-0.2903660E-02)
 number of electron      39.9999998 magnetization 
 augmentation part       -7.3609942 magnetization 

 Broyden mixing:
  rms(total) = 0.15979E-01    rms(broyden)= 0.15979E-01
  rms(prec ) = 0.18494E-01
  weight for this iteration     100.00

 eigenvalues of (default mixing * dielectric matrix)
  average eigenvalue GAMMA=   1.7853
  2.5439  1.4060  1.4060

 Free energy of the ion-electron system (eV)
  ---------------------------------------------------
  alpha Z        PSCENC =       100.04882755
  Ewald energy   TEWEN  =     -1502.06074725
  -Hartree energ DENC   =      -106.06403293
  -exchange      EXHF   =         0.00000000
  -V(xc)+E(xc)   XCENC  =       -30.60372902
  PAW double counting   =      2028.01147420    -1915.70639821
  entropy T*S    EENTRO =        -0.00000212
  eigenvalues    EBANDS =       -55.42884620
  atomic energy  EATOM  =      1448.48460880
  Solvation  Ediel_sol  =         0.00000000
  ---------------------------------------------------
  free energy    TOTEN  =       -33.31884518 eV

  energy without entropy =      -33.31884307  energy(sigma->0) =      -33.31884412


--------------------------------------------------------------------------------------------------------




--------------------------------------- Iteration      1(   9)  ---------------------------------------


    POTLOK:  cpu time      0.0049: real time      0.0051
    SETDIJ:  cpu time      0.1384: real time      0.1392
     EDDAV:  cpu time      0.2947: real time      0.2975
       DOS:  cpu time      0.0009: real time      0.0009
    CHARGE:  cpu time      0.0034: real time      0.0034
    MIXING:  cpu time      0.0005: real time      0.0005
    --------------------------------------------
      LOOP:  cpu time      0.4427: real time      0.4465

 eigenvalue-minimisations  :  3232
 total energy-change (2. order) :-0.2502284E-03  (-0.2849163E-03)
 number of electron      39.9999998 magnetization 
 augmentation part       -7.3599484 magnetization 

 Broyden mixing:
  rms(total) = 0.53536E-02    rms(broyden)= 0.53536E-02
  rms(prec ) = 0.57684E-02
  weight for this iteration     100.00

 eigenvalues of (default mixing * dielectric matrix)
  average eigenvalue GAMMA=   1.6685
  2.3586  1.1929  1.1929  1.9298

 Free energy of the ion-electron system (eV)
  ---------------------------------------------------
  alpha Z        PSCENC =       100.04882755
  Ewald energy   TEWEN  =     -1502.06074725
  -Hartree energ DENC   =      -106.32077780
  -exchange      EXHF   =         0.00000000
  -V(xc)+E(xc)   XCENC  =       -30.57202987
  PAW double counting   =      2040.74037993    -1928.44598940
  entropy T*S    EENTRO =        -0.00000247
  eigenvalues    EBANDS =       -55.19336490
  atomic energy  EATOM  =      1448.48460880
  Solvation  Ediel_sol  =         0.00000000
  ---------------------------------------------------
  free energy    TOTEN  =       -33.31909541 eV

  energy without entropy =      -33.31909294  energy(sigma->0) =      -33.31909418


--------------------------------------------------------------------------------------------------------




--------------------------------------- Iteration      1(  10)  ---------------------------------------


    POTLOK:  cpu time      0.0048: real time      0.0050
    SETDIJ:  cpu time      0.1381: real time      0.1391
     EDDAV:  cpu time      0.2464: real time      0.2481
       DOS:  cpu time      0.0005: real time      0.0005
    CHARGE:  cpu time      0.0029: real time      0.0029
    MIXING:  cpu time      0.0003: real time      0.0003
    --------------------------------------------
      LOOP:  cpu time      0.3929: real time      0.3959

 eigenvalue-minimisations  :  3168
 total energy-change (2. order) :-0.2363855E-04  (-0.1016869E-04)
 number of electron      39.9999998 magnetization 
 augmentation part       -7.3599868 magnetization 

 Broyden mixing:
  rms(total) = 0.21609E-02    rms(broyden)= 0.21609E-02
  rms(prec ) = 0.25298E-02
  weight for this iteration     100.00

 eigenvalues of (default mixing * dielectric matrix)
  average eigenvalue GAMMA=   1.7733
  2.7130  2.4668  1.0890  1.2989  1.2989

 Free energy of the ion-electron system (eV)
  ---------------------------------------------------
  alpha Z        PSCENC =       100.04882755
  Ewald energy   TEWEN  =     -1502.06074725
  -Hartree energ DENC   =      -106.32835243
  -exchange      EXHF   =         0.00000000
  -V(xc)+E(xc)   XCENC  =       -30.57165350
  PAW double counting   =      2035.03932463    -1922.74070805
  entropy T*S    EENTRO =        -0.00000236
  eigenvalues    EBANDS =       -55.19041644
  atomic energy  EATOM  =      1448.48460880
  Solvation  Ediel_sol  =         0.00000000
  ---------------------------------------------------
  free energy    TOTEN  =       -33.31911905 eV

  energy without entropy =      -33.31911669  energy(sigma->0) =      -33.31911787


--------------------------------------------------------------------------------------------------------




--------------------------------------- Iteration      1(  11)  ---------------------------------------


    POTLOK:  cpu time      0.0035: real time      0.0036
    SETDIJ:  cpu time      0.1386: real time      0.1390
     EDDAV:  cpu time      0.1968: real time      0.1977
       DOS:  cpu time      0.0005: real time      0.0005
    CHARGE:  cpu time      0.0029: real time      0.0029
    MIXING:  cpu time      0.0003: real time      0.0003
    --------------------------------------------
      LOOP:  cpu time      0.3426: real time      0.3440

 eigenvalue-minimisations  :  3008
 total energy-change (2. order) :-0.1782620E-04  (-0.2797404E-05)
 number of electron      39.9999998 magnetization 
 augmentation part       -7.3601286 magnetization 

 Broyden mixing:
  rms(total) = 0.77116E-03    rms(broyden)= 0.77116E-03
  rms(prec ) = 0.89656E-03
  weight for this iteration     100.00

 eigenvalues of (default mixing * dielectric matrix)
  average eigenvalue GAMMA=   1.7046
  2.6773  2.4206  1.8328  1.2096  1.2096  0.8780

 Free energy of the ion-electron system (eV)
  ---------------------------------------------------
  alpha Z        PSCENC =       100.04882755
  Ewald energy   TEWEN  =     -1502.06074725
  -Hartree energ DENC   =      -106.34646941
  -exchange      EXHF   =         0.00000000
  -V(xc)+E(xc)   XCENC  =       -30.56675387
  PAW double counting   =      2035.46348049    -1923.16443593
  entropy T*S    EENTRO =        -0.00000229
  eigenvalues    EBANDS =       -55.17764496
  atomic energy  EATOM  =      1448.48460880
  Solvation  Ediel_sol  =         0.00000000
  ---------------------------------------------------
  free energy    TOTEN  =       -33.31913688 eV

  energy without entropy =      -33.31913459  energy(sigma->0) =      -33.31913573


--------------------------------------------------------------------------------------------------------




--------------------------------------- Iteration      1(  12)  ---------------------------------------


    POTLOK:  cpu time      0.0034: real time      0.0036
    SETDIJ:  cpu time      0.1335: real time      0.1339
     EDDAV:  cpu time      0.1859: real time      0.1868
       DOS:  cpu time      0.0005: real time      0.0006
    --------------------------------------------
      LOOP:  cpu time      0.3234: real time      0.3248

 eigenvalue-minimisations  :  2832
 total energy-change (2. order) : 0.1877051E-06  (-0.2818390E-06)
 number of electron      39.9999998 magnetization 
 augmentation part       -7.3601286 magnetization 

 Free energy of the ion-electron system (eV)
  ---------------------------------------------------
  alpha Z        PSCENC =       100.04882755
  Ewald energy   TEWEN  =     -1502.06074725
  -Hartree energ DENC   =      -106.35598761
  -exchange      EXHF   =         0.00000000
  -V(xc)+E(xc)   XCENC  =       -30.56605262
  PAW double counting   =      2035.28682041    -1922.98782866
  entropy T*S    EENTRO =        -0.00000233
  eigenvalues    EBANDS =       -55.16877499
  atomic energy  EATOM  =      1448.48460880
  Solvation  Ediel_sol  =         0.00000000
  ---------------------------------------------------
  free energy    TOTEN  =       -33.31913669 eV

  energy without entropy =      -33.31913436  energy(sigma->0) =      -33.31913552


--------------------------------------------------------------------------------------------------------




 average (electrostatic) potential at core
  the test charge radii are     1.1631  1.0808
  (the norm of the test charge is              1.0000)
       1 -32.2923       2 -32.2923       3 -32.2923       4 -32.2923       5 -53.8824
       6 -53.8824       7 -53.8824       8 -53.8824
 
 
 
 E-fermi :   4.5971     XC(G=0):  -9.9389     alpha+bet : -9.9671

 Fermi energy:         4.5970504133

 k-point     1 :       0.0000    0.0000    0.0000
  band No.  band energies     occupation 
      1     -10.4022      2.00000
      2     -10.0009      2.00000
      3      -9.0105      2.00000
      4      -8.3288      2.00000
      5      -3.0867      2.00000
      6      -2.4281      2.00000
      7      -1.5688      2.00000
      8      -0.7175      2.00000
      9      -0.6782      2.00000
     10       0.6051      2.00000
     11       0.7366      2.00000
     12       0.7901      2.00000
     13       1.1184      2.00000
     14       1.2499      2.00000
     15       2.0555      2.00000
     16       2.3828      2.00000
     17       2.5046      2.00000
     18       2.7724      2.00000
     19       3.5983      2.00000
     20       4.2985      2.00000
     21       4.7781      0.00000
     22       7.6071      0.00000
     23       7.7163      0.00000
     24       8.0538      0.00000
     25       8.2793      0.00000
     26       8.3955      0.00000
     27       8.8954      0.00000
     28       9.6336      0.00000
     29       9.9471      0.00000
     30      10.0218      0.00000
     31      10.2162      0.00000
     32      10.9277      0.00000

 k-point     2 :       0.1667    0.0000    0.0000
  band No.  band energies     occupation 
      1     -10.2201      2.00000
      2      -9.8268      2.00000
      3      -8.9183      2.00000
      4      -8.2926      2.00000
      5      -3.8282      2.00000
      6      -2.9765      2.00000
      7      -2.0837      2.00000
      8      -1.5003      2.00000
      9      -1.1328      2.00000
     10       0.9977      2.00000
     11       1.0162      2.00000
     12       1.4668      2.00000
     13       1.4868      2.00000
     14       1.6574      2.00000
     15       2.2298      2.00000
     16       2.8998      2.00000
     17       2.9060      2.00000
     18       3.4531      2.00000
     19       3.5753      2.00000
     20       4.2251      2.00000
     21       4.4573      1.99992
     22       7.2404      0.00000
     23       7.7600      0.00000
     24       7.8343      0.00000
     25       8.0124      0.00000
     26       8.2232      0.00000
     27       8.6065      0.00000
     28       8.7089      0.00000
     29       8.9936      0.00000
     30       9.5554      0.00000
     31       9.9054      0.00000
     32      10.0487      0.00000

 k-point     3 :       0.3333    0.0000    0.0000
  band No.  band energies     occupation 
      1      -9.7205      2.00000
      2      -9.3487      2.00000
      3      -8.8111      2.00000
      4      -8.3387      2.00000
      5      -4.7784      2.00000
      6      -3.7209      2.00000
      7      -3.6992      2.00000
      8      -2.6946      2.00000
      9      -0.6052      2.00000
     10       1.3460      2.00000
     11       1.6458      2.00000
     12       2.0651      2.00000
     13       2.1929      2.00000
     14       2.5471      2.00000
     15       2.5836      2.00000
     16       3.1048      2.00000
     17       3.2461      2.00000
     18       3.8087      2.00000
     19       4.2204      2.00000
     20       4.7691      0.00000
     21       5.0778      0.00000
     22       5.7409      0.00000
     23       6.2526      0.00000
     24       6.2712      0.00000
     25       7.2249      0.00000
     26       7.2535      0.00000
     27       7.3515      0.00000
     28       7.9640      0.00000
     29       8.1252      0.00000
     30       8.3260      0.00000
     31       9.5887      0.00000
     32      10.5081      0.00000

 k-point     4 :       0.5000    0.0000    0.0000
  band No.  band energies     occupation 
      1      -9.1054      2.00000
      2      -9.1054      2.00000
      3      -8.7390      2.00000
      4      -8.7390      2.00000
      5      -4.7655      2.00000
      6      -4.7655      2.00000
      7      -3.6351      2.00000
      8      -3.6351      2.00000
      9       0.3951      2.00000
     10       0.3951      2.00000
     11       2.4178      2.00000
     12       2.4178      2.00000
     13       2.7992      2.00000
     14       2.7992      2.00000
     15       2.8769      2.00000
     16       2.8769      2.00000
     17       3.9131      2.00000
     18       3.9131      2.00000
     19       4.3164      2.00000
     20       4.3164      2.00000
     21       5.9221      0.00000
     22       5.9221      0.00000
     23       6.0271      0.00000
     24       6.0271      0.00000
     25       6.2710      0.00000
     26       6.2710      0.00000
     27       6.7828      0.00000
     28       6.7828      0.00000
     29       7.1390      0.00000
     30       7.1390      0.00000
     31      10.2631      0.00000
     32      10.2631      0.00000

 k-point     5 :       0.0000    0.1667    0.0000
  band No.  band energies     occupation 
      1     -10.1868      2.00000
      2      -9.8017      2.00000
      3      -8.8616      2.00000
      4      -8.2565      2.00000
      5      -3.5896      2.00000
      6      -3.1154      2.00000
      7      -1.7959      2.00000
      8      -1.5499      2.00000
      9      -1.1320      2.00000
     10       0.6901      2.00000
     11       0.9865      2.00000
     12       1.2844      2.00000
     13       1.3204      2.00000
     14       1.3319      2.00000
     15       2.2231      2.00000
     16       2.5613      2.00000
     17       2.9101      2.00000
     18       3.3520      2.00000
     19       3.7574      2.00000
     20       3.9358      2.00000
     21       4.8526      0.00000
     22       7.1988      0.00000
     23       7.7282      0.00000
     24       8.0432      0.00000
     25       8.0528      0.00000
     26       8.3967      0.00000
     27       8.5996      0.00000
     28       8.6553      0.00000
     29       9.1785      0.00000
     30       9.4340      0.00000
     31       9.8544      0.00000
     32      10.1254      0.00000

 k-point     6 :       0.1667    0.1667    0.0000
  band No.  band energies     occupation 
      1     -10.0105      2.00000
      2      -9.6345      2.00000
      3      -8.7765      2.00000
      4      -8.2229      2.00000
      5      -3.9683      2.00000
      6      -3.2473      2.00000
      7      -2.2743      2.00000
      8      -1.9124      2.00000
      9      -1.0053      2.00000
     10      -0.0828      2.00000
     11       0.0926      2.00000
     12       1.3131      2.00000
     13       1.5143      2.00000
     14       2.1460      2.00000
     15       2.3495      2.00000
     16       2.6037      2.00000
     17       3.7581      2.00000
     18       3.8328      2.00000
     19       4.0923      2.00000
     20       4.0984      2.00000
     21       4.7314      0.00014
     22       6.2224      0.00000
     23       6.6838      0.00000
     24       6.8286      0.00000
     25       7.8418      0.00000
     26       8.5015      0.00000
     27       8.6033      0.00000
     28       8.7842      0.00000
     29       9.4277      0.00000
     30       9.5181      0.00000
     31       9.8527      0.00000
     32      10.3398      0.00000

 k-point     7 :      -0.1667    0.1667    0.0000
  band No.  band energies     occupation 
      1     -10.0105      2.00000
      2      -9.6345      2.00000
      3      -8.7765      2.00000
      4      -8.2229      2.00000
      5      -3.9683      2.00000
      6      -3.2473      2.00000
      7      -2.2743      2.00000
      8      -1.9124      2.00000
      9      -1.0053      2.00000
     10      -0.0828      2.00000
     11       0.0926      2.00000
     12       1.3131      2.00000
     13       1.5143      2.00000
     14       2.1460      2.00000
     15       2.3495      2.00000
     16       2.6037      2.00000
     17       3.7581      2.00000
     18       3.8328      2.00000
     19       4.0923      2.00000
     20       4.0984      2.00000
     21       4.7314      0.00014
     22       6.2224      0.00000
     23       6.6838      0.00000
     24       6.8286      0.00000
     25       7.8418      0.00000
     26       8.5015      0.00000
     27       8.6033      0.00000
     28       8.7842      0.00000
     29       9.4277      0.00000
     30       9.5181      0.00000
     31       9.8527      0.00000
     32      10.3399      0.00000

 k-point     8 :       0.3333    0.1667    0.0000
  band No.  band energies     occupation 
      1      -9.5312      2.00000
      2      -9.1804      2.00000
      3      -8.6808      2.00000
      4      -8.2604      2.00000
      5      -4.6103      2.00000
      6      -3.5851      2.00000
      7      -3.5645      2.00000
      8      -2.6976      2.00000
      9      -0.4026      2.00000
     10      -0.0601      2.00000
     11       0.1184      2.00000
     12       1.2166      2.00000
     13       1.5521      2.00000
     14       2.0552      2.00000
     15       2.2847      2.00000
     16       3.1577      2.00000
     17       3.1600      2.00000
     18       3.6040      2.00000
     19       3.9761      2.00000
     20       4.0607      2.00000
     21       5.1261      0.00000
     22       5.9591      0.00000
     23       6.8604      0.00000
     24       6.8818      0.00000
     25       7.0752      0.00000
     26       7.5087      0.00000
     27       8.5854      0.00000
     28       9.3205      0.00000
     29       9.3725      0.00000
     30       9.6349      0.00000
     31      10.1390      0.00000
     32      10.1715      0.00000

 k-point     9 :      -0.3333    0.1667    0.0000
  band No.  band energies     occupation 
      1      -9.5312      2.00000
      2      -9.1804      2.00000
      3      -8.6808      2.00000
      4      -8.2604      2.00000
      5      -4.6103      2.00000
      6      -3.5851      2.00000
      7      -3.5645      2.00000
      8      -2.6976      2.00000
      9      -0.4026      2.00000
     10      -0.0601      2.00000
     11       0.1184      2.00000
     12       1.2166      2.00000
     13       1.5521      2.00000
     14       2.0552      2.00000
     15       2.2847      2.00000
     16       3.1577      2.00000
     17       3.1600      2.00000
     18       3.6040      2.00000
     19       3.9761      2.00000
     20       4.0607      2.00000
     21       5.1261      0.00000
     22       5.9591      0.00000
     23       6.8604      0.00000
     24       6.8818      0.00000
     25       7.0752      0.00000
     26       7.5087      0.00000
     27       8.5854      0.00000
     28       9.3205      0.00000
     29       9.3725      0.00000
     30       9.6349      0.00000
     31      10.1390      0.00000
     32      10.1715      0.00000

 k-point    10 :       0.5000    0.1667    0.0000
  band No.  band energies     occupation 
      1      -8.9533      2.00000
      2      -8.9533      2.00000
      3      -8.6164      2.00000
      4      -8.6164      2.00000
      5      -4.5405      2.00000
      6      -4.5405      2.00000
      7      -3.4568      2.00000
      8      -3.4568      2.00000
      9       0.3518      2.00000
     10       0.3518      2.00000
     11       0.7734      2.00000
     12       0.7734      2.00000
     13       1.3376      2.00000
     14       1.3376      2.00000
     15       2.5418      2.00000
     16       2.5419      2.00000
     17       3.2139      2.00000
     18       3.2139      2.00000
     19       3.7735      2.00000
     20       3.7735      2.00000
     21       5.6116      0.00000
     22       5.6116      0.00000
     23       7.0151      0.00000
     24       7.0151      0.00000
     25       7.8077      0.00000
     26       7.8077      0.00000
     27       8.5690      0.00000
     28       8.5690      0.00000
     29       9.2313      0.00000
     30       9.2313      0.00000
     31      10.0448      0.00000
     32      10.0448      0.00000

 k-point    11 :       0.0000    0.3333    0.0000
  band No.  band energies     occupation 
      1      -9.5841      2.00000
      2      -9.2659      2.00000
      3      -8.5732      2.00000
      4      -8.2619      2.00000
      5      -4.4912      2.00000
      6      -4.0316      2.00000
      7      -3.4731      2.00000
      8      -2.8033      2.00000
      9      -0.5343      2.00000
     10       1.2913      2.00000
     11       1.5833      2.00000
     12       1.6925      2.00000
     13       1.8404      2.00000
     14       1.9047      2.00000
     15       2.6670      2.00000
     16       2.8278      2.00000
     17       3.3702      2.00000
     18       3.4460      2.00000
     19       3.7788      2.00000
     20       4.4330      2.00000
     21       5.2004      0.00000
     22       5.3696      0.00000
     23       6.2933      0.00000
     24       6.4648      0.00000
     25       6.8064      0.00000
     26       6.8291      0.00000
     27       7.1677      0.00000
     28       7.9200      0.00000
     29       8.1209      0.00000
     30       8.3699      0.00000
     31       9.1591      0.00000
     32      10.0526      0.00000

 k-point    12 :       0.1667    0.3333    0.0000
  band No.  band energies     occupation 
      1      -9.4298      2.00000
      2      -9.1242      2.00000
      3      -8.5030      2.00000
      4      -8.2162      2.00000
      5      -4.4013      2.00000
      6      -3.8512      2.00000
      7      -3.3721      2.00000
      8      -2.8510      2.00000
      9      -0.3519      2.00000
     10      -0.2484      2.00000
     11       0.0741      2.00000
     12       1.0528      2.00000
     13       1.5901      2.00000
     14       2.1909      2.00000
     15       2.2449      2.00000
     16       2.9740      2.00000
     17       3.0076      2.00000
     18       3.1394      2.00000
     19       3.5942      2.00000
     20       4.0182      2.00000
     21       5.0540      0.00000
     22       5.9941      0.00000
     23       6.6286      0.00000
     24       6.6908      0.00000
     25       6.7907      0.00000
     26       7.6964      0.00000
     27       8.6048      0.00000
     28       8.7688      0.00000
     29       9.0459      0.00000
     30       9.4277      0.00000
     31       9.6581      0.00000
     32      10.4658      0.00000

 k-point    13 :      -0.1667    0.3333    0.0000
  band No.  band energies     occupation 
      1      -9.4298      2.00000
      2      -9.1242      2.00000
      3      -8.5030      2.00000
      4      -8.2162      2.00000
      5      -4.4013      2.00000
      6      -3.8512      2.00000
      7      -3.3721      2.00000
      8      -2.8510      2.00000
      9      -0.3519      2.00000
     10      -0.2484      2.00000
     11       0.0741      2.00000
     12       1.0528      2.00000
     13       1.5901      2.00000
     14       2.1909      2.00000
     15       2.2449      2.00000
     16       2.9740      2.00000
     17       3.0076      2.00000
     18       3.1394      2.00000
     19       3.5942      2.00000
     20       4.0182      2.00000
     21       5.0540      0.00000
     22       5.9941      0.00000
     23       6.6286      0.00000
     24       6.6908      0.00000
     25       6.7907      0.00000
     26       7.6964      0.00000
     27       8.6048      0.00000
     28       8.7688      0.00000
     29       9.0459      0.00000
     30       9.4277      0.00000
     31       9.6581      0.00000
     32      10.4658      0.00000

 k-point    14 :       0.3333    0.3333    0.0000
  band No.  band energies     occupation 
      1      -9.0264      2.00000
      2      -8.7581      2.00000
      3      -8.4147      2.00000
      4      -8.1793      2.00000
      5      -4.2311      2.00000
      6      -3.4262      2.00000
      7      -3.4102      2.00000
      8      -3.0088      2.00000
      9      -1.1965      2.00000
     10      -0.9205      2.00000
     11      -0.0528      2.00000
     12       0.1943      2.00000
     13       0.4117      2.00000
     14       1.0202      2.00000
     15       1.6925      2.00000
     16       1.7144      2.00000
     17       2.4214      2.00000
     18       2.6468      2.00000
     19       2.8363      2.00000
     20       3.3439      2.00000
     21       5.3128      0.00000
     22       7.4456      0.00000
     23       7.8357      0.00000
     24       8.2504      0.00000
     25       8.2715      0.00000
     26       8.9061      0.00000
     27       9.0304      0.00000
     28       9.4322      0.00000
     29       9.6957      0.00000
     30      10.2345      0.00000
     31      10.5980      0.00000
     32      10.6867      0.00000

 k-point    15 :      -0.3333    0.3333    0.0000
  band No.  band energies     occupation 
      1      -9.0264      2.00000
      2      -8.7581      2.00000
      3      -8.4147      2.00000
      4      -8.1793      2.00000
      5      -4.2311      2.00000
      6      -3.4262      2.00000
      7      -3.4102      2.00000
      8      -3.0088      2.00000
      9      -1.1965      2.00000
     10      -0.9205      2.00000
     11      -0.0528      2.00000
     12       0.1943      2.00000
     13       0.4117      2.00000
     14       1.0202      2.00000
     15       1.6925      2.00000
     16       1.7144      2.00000
     17       2.4214      2.00000
     18       2.6468      2.00000
     19       2.8363      2.00000
     20       3.3439      2.00000
     21       5.3128      0.00000
     22       7.4456      0.00000
     23       7.8357      0.00000
     24       8.2504      0.00000
     25       8.2715      0.00000
     26       8.9061      0.00000
     27       9.0304      0.00000
     28       9.4322      0.00000
     29       9.6957      0.00000
     30      10.2345      0.00000
     31      10.5980      0.00000
     32      10.6867      0.00000

 k-point    16 :       0.5000    0.3333    0.0000
  band No.  band energies     occupation 
      1      -8.5863      2.00000
      2      -8.5863      2.00000
      3      -8.3605      2.00000
      4      -8.3605      2.00000
      5      -3.9390      2.00000
      6      -3.9390      2.00000
      7      -3.1117      2.00000
      8      -3.1117      2.00000
      9      -0.9338      2.00000
     10      -0.9338      2.00000
     11      -0.6036      2.00000
     12      -0.6036      2.00000
     13       0.5891      2.00000
     14       0.5891      2.00000
     15       1.3595      2.00000
     16       1.3595      2.00000
     17       1.7895      2.00000
     18       1.7895      2.00000
     19       3.0055      2.00000
     20       3.0055      2.00000
     21       6.3410      0.00000
     22       6.3410      0.00000
     23       8.7281      0.00000
     24       8.7281      0.00000
     25       9.2160      0.00000
     26       9.2160      0.00000
     27       9.7803      0.00000
     28       9.7803      0.00000
     29      10.1706      0.00000
     30      10.1706      0.00000
     31      11.1283      0.00000
     32      11.1283      0.00000

 k-point    17 :       0.0000    0.5000    0.0000
  band No.  band energies     occupation 
      1      -8.7848      2.00000
      2      -8.7848      2.00000
      3      -8.6734      2.00000
      4      -8.6734      2.00000
      5      -4.5834      2.00000
      6      -4.5834      2.00000
      7      -3.9042      2.00000
      8      -3.9042      2.00000
      9       0.5431      2.00000
     10       0.5431      2.00000
     11       2.3104      2.00000
     12       2.3104      2.00000
     13       2.3122      2.00000
     14       2.3122      2.00000
     15       2.7887      2.00000
     16       2.7887      2.00000
     17       3.5084      2.00000
     18       3.5084      2.00000
     19       3.8891      2.00000
     20       3.8891      2.00000
     21       5.5627      0.00000
     22       5.5627      0.00000
     23       5.8342      0.00000
     24       5.8342      0.00000
     25       6.0383      0.00000
     26       6.0383      0.00000
     27       6.6305      0.00000
     28       6.6305      0.00000
     29       7.0253      0.00000
     30       7.0253      0.00000
     31       9.6735      0.00000
     32       9.6735      0.00000

 k-point    18 :       0.1667    0.5000    0.0000
  band No.  band energies     occupation 
      1      -8.6805      2.00000
      2      -8.6805      2.00000
      3      -8.5803      2.00000
      4      -8.5803      2.00000
      5      -4.3756      2.00000
      6      -4.3756      2.00000
      7      -3.7449      2.00000
      8      -3.7449      2.00000
      9       0.4139      2.00000
     10       0.4139      2.00000
     11       0.7150      2.00000
     12       0.7150      2.00000
     13       1.4025      2.00000
     14       1.4025      2.00000
     15       2.3296      2.00000
     16       2.3296      2.00000
     17       2.7431      2.00000
     18       2.7431      2.00000
     19       3.5409      2.00000
     20       3.5409      2.00000
     21       5.5347      0.00000
     22       5.5347      0.00000
     23       7.0097      0.00000
     24       7.0097      0.00000
     25       7.4856      0.00000
     26       7.4856      0.00000
     27       7.9830      0.00000
     28       7.9830      0.00000
     29       8.9580      0.00000
     30       8.9580      0.00000
     31       9.4620      0.00000
     32       9.4620      0.00000

 k-point    19 :       0.3333    0.5000    0.0000
  band No.  band energies     occupation 
      1      -8.4468      2.00000
      2      -8.4468      2.00000
      3      -8.3807      2.00000
      4      -8.3807      2.00000
      5      -3.8200      2.00000
      6      -3.8200      2.00000
      7      -3.3768      2.00000
      8      -3.3768      2.00000
      9      -0.8862      2.00000
     10      -0.8862      2.00000
     11      -0.4133      2.00000
     12      -0.4133      2.00000
     13       0.4388      2.00000
     14       0.4388      2.00000
     15       1.2928      2.00000
     16       1.2928      2.00000
     17       1.6636      2.00000
     18       1.6636      2.00000
     19       2.9830      2.00000
     20       2.9830      2.00000
     21       6.4924      0.00000
     22       6.4924      0.00000
     23       8.3562      0.00000
     24       8.3562      0.00000
     25       9.1794      0.00000
     26       9.1794      0.00000
     27       9.4821      0.00000
     28       9.4821      0.00000
     29       9.8313      0.00000
     30       9.8313      0.00000
     31      11.1308      0.00000
     32      11.1312      0.00000

 k-point    20 :       0.5000    0.5000    0.0000
  band No.  band energies     occupation 
      1      -8.3084      2.00000
      2      -8.3084      2.00000
      3      -8.2782      2.00000
      4      -8.2782      2.00000
      5      -3.3673      2.00000
      6      -3.3673      2.00000
      7      -3.1825      2.00000
      8      -3.1825      2.00000
      9      -1.4634      2.00000
     10      -1.4634      2.00000
     11      -1.0167      2.00000
     12      -1.0167      2.00000
     13      -0.0638      2.00000
     14      -0.0638      2.00000
     15       0.4667      2.00000
     16       0.4667      2.00000
     17       1.8947      2.00000
     18       1.8947      2.00000
[...]
     32       8.8362      0.00000

 k-point    32 :       0.1667    0.3333    0.5000
  band No.  band energies     occupation 
      1      -9.3037      2.00000
      2      -9.3037      2.00000
      3      -8.3304      2.00000
      4      -8.3304      2.00000
      5      -4.1781      2.00000
      6      -4.1781      2.00000
      7      -3.1179      2.00000
      8      -3.1179      2.00000
      9      -0.1224      2.00000
     10      -0.1224      2.00000
     11       0.7147      2.00000
     12       0.7147      2.00000
     13       1.3462      2.00000
     14       1.3462      2.00000
     15       2.7159      2.00000
     16       2.7159      2.00000
     17       2.9187      2.00000
     18       2.9187      2.00000
     19       3.8772      2.00000
     20       3.8772      2.00000
     21       6.1199      0.00000
     22       6.1199      0.00000
     23       6.6882      0.00000
     24       6.6882      0.00000
     25       7.4405      0.00000
     26       7.4405      0.00000
     27       8.0492      0.00000
     28       8.0492      0.00000
     29       8.6957      0.00000
     30       8.6957      0.00000
     31      10.1994      0.00000
     32      10.1994      0.00000

 k-point    33 :      -0.1667    0.3333    0.5000
  band No.  band energies     occupation 
      1      -9.3037      2.00000
      2      -9.3037      2.00000
      3      -8.3304      2.00000
      4      -8.3304      2.00000
      5      -4.1781      2.00000
      6      -4.1781      2.00000
      7      -3.1179      2.00000
      8      -3.1179      2.00000
      9      -0.1224      2.00000
     10      -0.1224      2.00000
     11       0.7147      2.00000
     12       0.7147      2.00000
     13       1.3462      2.00000
     14       1.3462      2.00000
     15       2.7159      2.00000
     16       2.7159      2.00000
     17       2.9187      2.00000
     18       2.9187      2.00000
     19       3.8772      2.00000
     20       3.8772      2.00000
     21       6.1199      0.00000
     22       6.1199      0.00000
     23       6.6882      0.00000
     24       6.6882      0.00000
     25       7.4405      0.00000
     26       7.4405      0.00000
     27       8.0492      0.00000
     28       8.0492      0.00000
     29       8.6957      0.00000
     30       8.6957      0.00000
     31      10.1994      0.00000
     32      10.1994      0.00000

 k-point    34 :       0.3333    0.3333    0.5000
  band No.  band energies     occupation 
      1      -8.9196      2.00000
      2      -8.9196      2.00000
      3      -8.2695      2.00000
      4      -8.2695      2.00000
      5      -3.9329      2.00000
      6      -3.9329      2.00000
      7      -3.1492      2.00000
      8      -3.1492      2.00000
      9      -1.0128      2.00000
     10      -1.0128      2.00000
     11       0.1218      2.00000
     12       0.1218      2.00000
     13       0.8136      2.00000
     14       0.8136      2.00000
     15       1.5247      2.00000
     16       1.5247      2.00000
     17       2.3656      2.00000
     18       2.3656      2.00000
     19       3.1529      2.00000
     20       3.1529      2.00000
     21       6.8346      0.00000
     22       6.8346      0.00000
     23       7.5929      0.00000
     24       7.5929      0.00000
     25       7.9955      0.00000
     26       7.9955      0.00000
     27       9.5258      0.00000
     28       9.5258      0.00000
     29      10.1607      0.00000
     30      10.1607      0.00000
     31      11.2604      0.00000
     32      11.2604      0.00000

 k-point    35 :      -0.3333    0.3333    0.5000
  band No.  band energies     occupation 
      1      -8.9196      2.00000
      2      -8.9196      2.00000
      3      -8.2695      2.00000
      4      -8.2695      2.00000
      5      -3.9329      2.00000
      6      -3.9329      2.00000
      7      -3.1492      2.00000
      8      -3.1492      2.00000
      9      -1.0128      2.00000
     10      -1.0128      2.00000
     11       0.1218      2.00000
     12       0.1218      2.00000
     13       0.8136      2.00000
     14       0.8136      2.00000
     15       1.5247      2.00000
     16       1.5247      2.00000
     17       2.3656      2.00000
     18       2.3656      2.00000
     19       3.1529      2.00000
     20       3.1529      2.00000
     21       6.8346      0.00000
     22       6.8346      0.00000
     23       7.5929      0.00000
     24       7.5929      0.00000
     25       7.9955      0.00000
     26       7.9955      0.00000
     27       9.5258      0.00000
     28       9.5258      0.00000
     29      10.1607      0.00000
     30      10.1607      0.00000
     31      11.2604      0.00000
     32      11.2604      0.00000

 k-point    36 :       0.5000    0.3333    0.5000
  band No.  band energies     occupation 
      1      -8.5817      2.00000
      2      -8.5817      2.00000
      3      -8.3663      2.00000
      4      -8.3663      2.00000
      5      -3.8832      2.00000
      6      -3.8832      2.00000
      7      -3.1968      2.00000
      8      -3.1968      2.00000
      9      -0.7944      2.00000
     10      -0.7944      2.00000
     11      -0.7468      2.00000
     12      -0.7468      2.00000
     13       0.8199      2.00000
     14       0.8199      2.00000
     15       1.0073      2.00000
     16       1.0073      2.00000
     17       2.2549      2.00000
     18       2.2549      2.00000
     19       2.6229      2.00000
     20       2.6229      2.00000
     21       6.7547      0.00000
     22       6.7547      0.00000
     23       7.7132      0.00000
     24       7.7132      0.00000
     25       9.5254      0.00000
     26       9.5254      0.00000
     27       9.7619      0.00000
     28       9.7619      0.00000
     29      10.9101      0.00000
     30      10.9101      0.00000
     31      11.1081      0.00000
     32      11.1081      0.00000

 k-point    37 :       0.0000    0.5000    0.5000
  band No.  band energies     occupation 
      1      -8.7308      2.00000
      2      -8.7308      2.00000
      3      -8.7308      2.00000
      4      -8.7308      2.00000
      5      -4.2719      2.00000
      6      -4.2719      2.00000
      7      -4.2719      2.00000
      8      -4.2719      2.00000
      9       1.4325      2.00000
     10       1.4325      2.00000
     11       1.4325      2.00000
     12       1.4325      2.00000
     13       2.4083      2.00000
     14       2.4083      2.00000
     15       2.4083      2.00000
     16       2.4083      2.00000
     17       3.6442      2.00000
     18       3.6442      2.00000
     19       3.6442      2.00000
     20       3.6442      2.00000
     21       6.0041      0.00000
     22       6.0041      0.00000
     23       6.0041      0.00000
     24       6.0041      0.00000
     25       6.3370      0.00000
     26       6.3370      0.00000
     27       6.3370      0.00000
     28       6.3370      0.00000
     29       8.0249      0.00000
     30       8.0249      0.00000
     31       8.0249      0.00000
     32       8.0249      0.00000

 k-point    38 :       0.1667    0.5000    0.5000
  band No.  band energies     occupation 
      1      -8.6319      2.00000
      2      -8.6319      2.00000
      3      -8.6319      2.00000
      4      -8.6319      2.00000
      5      -4.0853      2.00000
      6      -4.0853      2.00000
      7      -4.0853      2.00000
      8      -4.0853      2.00000
      9       0.7175      2.00000
     10       0.7175      2.00000
     11       0.7175      2.00000
     12       0.7175      2.00000
     13       1.7178      2.00000
     14       1.7178      2.00000
     15       1.7178      2.00000
     16       1.7178      2.00000
     17       2.9574      2.00000
     18       2.9574      2.00000
     19       2.9574      2.00000
     20       2.9574      2.00000
     21       6.6779      0.00000
     22       6.6779      0.00000
     23       6.6779      0.00000
     24       6.6779      0.00000
     25       7.6969      0.00000
     26       7.6969      0.00000
     27       7.6969      0.00000
     28       7.6969      0.00000
     29       8.8353      0.00000
     30       8.8353      0.00000
     31       8.8353      0.00000
     32       8.8353      0.00000

 k-point    39 :       0.3333    0.5000    0.5000
  band No.  band energies     occupation 
      1      -8.4143      2.00000
      2      -8.4143      2.00000
      3      -8.4143      2.00000
      4      -8.4143      2.00000
      5      -3.6136      2.00000
      6      -3.6136      2.00000
      7      -3.6136      2.00000
      8      -3.6136      2.00000
      9      -0.6390      2.00000
     10      -0.6390      2.00000
     11      -0.6390      2.00000
     12      -0.6390      2.00000
     13       0.7124      2.00000
     14       0.7124      2.00000
     15       0.7124      2.00000
     16       0.7124      2.00000
     17       2.4668      2.00000
     18       2.4668      2.00000
     19       2.4668      2.00000
     20       2.4668      2.00000
     21       7.1491      0.00000
     22       7.1491      0.00000
     23       7.1491      0.00000
     24       7.1491      0.00000
     25       9.3210      0.00000
     26       9.3210      0.00000
     27       9.3210      0.00000
     28       9.3210      0.00000
     29      10.9610      0.00000
     30      10.9610      0.00000
     31      10.9610      0.00000
     32      10.9610      0.00000

 k-point    40 :       0.5000    0.5000    0.5000
  band No.  band energies     occupation 
      1      -8.2934      2.00000
      2      -8.2934      2.00000
      3      -8.2934      2.00000
      4      -8.2934      2.00000
      5      -3.2885      2.00000
      6      -3.2885      2.00000
      7      -3.2885      2.00000
      8      -3.2885      2.00000
      9      -1.1510      2.00000
     10      -1.1510      2.00000
     11      -1.1510      2.00000
     12      -1.1510      2.00000
     13      -0.0303      2.00000
     14      -0.0303      2.00000
     15      -0.0303      2.00000
     16      -0.0303      2.00000
     17       2.5669      2.00000
     18       2.5669      2.00000
     19       2.5669      2.00000
     20       2.5669      2.00000
     21       6.8816      0.00000
     22       6.8816      0.00000
     23       6.8816      0.00000
     24       6.8817      0.00000
     25      10.3930      0.00000
     26      10.3930      0.00000
     27      10.3930      0.00000
     28      10.3930      0.00000
     29      11.3385      0.00000
     30      11.3385      0.00000
     31      11.3385      0.00000
     32      11.3385      0.00000


--------------------------------------------------------------------------------------------------------


 soft charge-density along one line, spin component            1
         0         1         2         3         4         5         6         7         8         9
 total charge-density along one line
 
 pseudopotential strength for first ion, spin component:            1
 14.167  17.665  -0.000   0.041   0.030  -0.000   0.074   0.055
 17.665  22.040  -0.000   0.052   0.038  -0.000   0.094   0.069
 -0.000  -0.000   3.169  -0.000   0.000   5.389  -0.000   0.000
  0.041   0.052  -0.000   3.166  -0.002  -0.000   5.385  -0.004
  0.030   0.038   0.000  -0.002   3.168   0.000  -0.004   5.387
 -0.000  -0.000   5.389  -0.000   0.000   9.222  -0.000   0.000
  0.074   0.094  -0.000   5.385  -0.004  -0.000   9.216  -0.006
  0.055   0.069   0.000  -0.004   5.387   0.000  -0.006   9.219
  0.000   0.000   0.005   0.000  -0.000   0.010   0.000  -0.000
 -0.000  -0.000   0.011   0.000   0.000   0.020   0.000   0.000
 -0.002  -0.002   0.000   0.010  -0.003   0.000   0.019  -0.006
 -0.005  -0.006   0.000   0.009   0.011   0.000   0.016   0.020
 -0.001  -0.001   0.000   0.000   0.009  -0.000   0.000   0.016
 total augmentation occupancy for first ion, spin component:            1
  2.886  -0.838  -0.000   0.338   0.279   0.000  -0.063  -0.055  -0.000  -0.000  -0.021  -0.002  -0.006
 -0.838   0.787   0.000  -0.437  -0.337   0.000   0.070   0.054   0.000   0.000   0.024   0.002   0.003
 -0.000   0.000   1.341  -0.000   0.000  -0.241  -0.000  -0.000   0.112   0.033  -0.000   0.000  -0.000
  0.338  -0.437  -0.000   1.286   0.072  -0.000  -0.217  -0.005   0.000   0.000   0.097  -0.001   0.001
  0.279  -0.337   0.000   0.072   1.335  -0.000  -0.005  -0.232   0.000   0.000  -0.069   0.035   0.000
  0.000   0.000  -0.241  -0.000  -0.000   0.048   0.000   0.000  -0.020  -0.006   0.000   0.000   0.000
 -0.063   0.070  -0.000  -0.217  -0.005   0.000   0.042  -0.000  -0.000   0.000  -0.017   0.000  -0.000
 -0.055   0.054  -0.000  -0.005  -0.232   0.000  -0.000   0.046  -0.000  -0.000   0.011  -0.006   0.000
 -0.000   0.000   0.112   0.000   0.000  -0.020  -0.000  -0.000   0.043   0.003  -0.000   0.000  -0.000
 -0.000   0.000   0.033   0.000   0.000  -0.006   0.000  -0.000   0.003   0.012   0.000   0.000  -0.000
 -0.021   0.024  -0.000   0.097  -0.069   0.000  -0.017   0.011  -0.000   0.000   0.038  -0.005   0.001
 -0.002   0.002   0.000  -0.001   0.035   0.000   0.000  -0.006   0.000   0.000  -0.005   0.012  -0.001
 -0.006   0.003  -0.000   0.001   0.000   0.000  -0.000   0.000  -0.000  -0.000   0.001  -0.001   0.011


------------------------ aborting loop because EDIFF is reached ----------------------------------------


    CHARGE:  cpu time      0.0028: real time      0.0028
    FORLOC:  cpu time      0.0002: real time      0.0001
    FORNL :  cpu time      0.0188: real time      0.0189
    STRESS:  cpu time      0.1714: real time      0.1721
    FORCOR:  cpu time      0.0035: real time      0.0035
    FORHAR:  cpu time      0.0010: real time      0.0010
    MIXING:  cpu time      0.0004: real time      0.0004
    OFIELD:  cpu time      0.0000: real time      0.0000

  FORCE on cell =-STRESS in cart. coord.  units (eV):
  Direction    XX          YY          ZZ          XY          YZ          ZX
  --------------------------------------------------------------------------------------
  Alpha Z   100.04883   100.04883   100.04883
  Ewald    -481.85881  -466.94269  -553.26111     0.00000     0.00000     0.00000
  Hartree    41.83271    48.78498    15.74334     0.00000     0.00000     0.00000
  E(xc)    -142.42931  -142.50029  -142.87562    -0.00000     0.00000     0.00000
  Local    -141.93731  -161.87792   -51.68218    -0.00000    -0.00000     0.00000
  n-local   242.57332   243.21163   243.22910     0.00000     0.00000    -0.00000
  augment   -11.54512   -11.45641   -12.04873     0.00000     0.00000    -0.00000
  Kinetic   401.29587   399.01353   402.85529    -0.00000    -0.00000    -0.00000
  Fock        0.00000     0.00000     0.00000     0.00000     0.00000     0.00000
  -------------------------------------------------------------------------------------
  Total       7.98018     8.28166     2.00892    -0.00000    -0.00000     0.00000
  in kB      75.49319    78.34525    19.00458    -0.00002    -0.00001     0.00000
  external pressure =       57.61 kB  Pullay stress =        0.00 kB


 VOLUME and BASIS-vectors are now :
 -----------------------------------------------------------------------------
  energy-cutoff  :      360.00
  volume of cell :      169.36
      direct lattice vectors                 reciprocal lattice vectors
     4.000000000  0.000000000  0.000000000     0.250000000  0.000000000  0.000000000
     0.000000000  3.800000000  0.000000000     0.000000000  0.263157895  0.000000000
     0.000000000  0.000000000 11.142221000     0.000000000  0.000000000  0.089748713

  length of vectors
     4.000000000  3.800000000 11.142221000     0.250000000  0.263157895  0.089748713


 FORCES acting on ions
    electron-ion (+dipol)            ewald-force                    non-local-force                 convergence-correction
 -----------------------------------------------------------------------------------------------
   0.912E+01 0.364E-06 0.244E+02   -.109E+02 0.230E-14 -.269E+02   0.171E+01 -.999E-07 0.257E+01   0.727E-04 -.670E-07 -.739E-03
   0.912E+01 -.236E-05 -.244E+02   -.109E+02 -.279E-14 0.269E+02   0.171E+01 0.104E-05 -.257E+01   0.723E-04 0.154E-05 0.742E-03
   -.912E+01 0.158E-05 -.244E+02   0.109E+02 0.142E-14 0.269E+02   -.171E+01 -.719E-06 -.257E+01   -.722E-04 -.115E-05 0.751E-03
   -.912E+01 -.331E-06 0.244E+02   0.109E+02 0.190E-14 -.269E+02   -.171E+01 0.260E-06 0.257E+01   -.726E-04 0.949E-07 -.754E-03
   -.847E+01 0.642E-05 -.255E+02   0.941E+01 0.136E-14 0.267E+02   -.916E+00 -.250E-05 -.127E+01   0.809E-04 -.402E-05 0.153E-02
   -.847E+01 -.229E-05 0.255E+02   0.941E+01 -.131E-14 -.267E+02   -.916E+00 0.138E-05 0.127E+01   0.787E-04 0.363E-06 -.153E-02
   0.847E+01 -.112E-05 0.255E+02   -.941E+01 -.138E-14 -.267E+02   0.916E+00 0.516E-06 0.127E+01   -.795E-04 0.545E-06 -.155E-02
   0.847E+01 -.381E-05 -.255E+02   -.941E+01 -.220E-14 0.267E+02   0.916E+00 0.110E-05 -.127E+01   -.789E-04 0.351E-05 0.154E-02
 -----------------------------------------------------------------------------------------------
   0.730E-06 -.154E-05 0.168E-05   0.711E-14 -.682E-15 -.355E-14   -.129E-05 0.972E-06 0.144E-05   0.137E-05 0.819E-06 -.353E-05
 
 
 POSITION                                       TOTAL-FORCE (eV/Angst)
 -----------------------------------------------------------------------------------
      0.36855      0.95000      1.37288        -0.026010      0.000000     -0.004137
      2.36855      2.85000      4.19823        -0.026009      0.000000      0.004138
      3.63145      2.85000      9.76934         0.026010     -0.000000      0.004137
      1.63145      0.95000      6.94399         0.026009     -0.000000     -0.004138
      0.10786      0.95000      3.96928         0.025052     -0.000000      0.009127
      2.10786      2.85000      1.60183         0.025052     -0.000001     -0.009127
      3.89214      2.85000      7.17294        -0.025052     -0.000000     -0.009127
      1.89214      0.95000      9.54039        -0.025053      0.000001      0.009127
 -----------------------------------------------------------------------------------
    total drift:                                0.000001      0.000000     -0.000000


--------------------------------------------------------------------------------------------------------



  FREE ENERGIE OF THE ION-ELECTRON SYSTEM (eV)
  ---------------------------------------------------
  free  energy   TOTEN  =       -33.31913669 eV

  energy  without entropy=      -33.31913436  energy(sigma->0) =      -33.31913552
 


--------------------------------------------------------------------------------------------------------


    POTLOK:  cpu time      0.1130: real time      0.1133


--------------------------------------------------------------------------------------------------------


     LOOP+:  cpu time      4.8558: real time      4.9007
    4ORBIT:  cpu time      0.0000: real time      0.0000

 total amount of memory used by VASP MPI-rank0    37298. kBytes
=======================================================================

   base      :      30000. kBytes
   nonl-proj :       5677. kBytes
   fftplans  :        288. kBytes
   grid      :        416. kBytes
   one-center:         16. kBytes
   wavefun   :        901. kBytes
 
  
  
 General timing and accounting informations for this job:
 ========================================================
  
                  Total CPU time used (sec):        5.562
                            User time (sec):        5.346
                          System time (sec):        0.215
                         Elapsed time (sec):        7.244
  
                   Maximum memory used (kb):      189192.
                   Average memory used (kb):          N/A
  
                          Minor page faults:        22179
                          Major page faults:           39
                 Voluntary context switches:         6184
