 running   32 mpi-ranks, with    1 threads/rank, on    2 nodes
 distrk:  each k-point on   16 cores,    2 groups
 distr:  one band on    1 cores,   16 groups
 vasp.6.4.2 20Jul23 (build Oct 12 2023 10:31:02) complex                         
 POSCAR found type information on POSCAR GeSe
 POSCAR found :  2 types and       4 ions
 Reading from existing POTCAR
 -----------------------------------------------------------------------------
|                                                                             |
|           W    W    AA    RRRRR   N    N  II  N    N   GGGG   !!!           |
|           W    W   A  A   R    R  NN   N  II  NN   N  G    G  !!!           |
|           W    W  A    A  R    R  N N  N  II  N N  N  G       !!!           |
|           W WW W  AAAAAA  RRRRR   N  N N  II  N  N N  G  GGG   !            |
|           WW  WW  A    A  R   R   N   NN  II  N   NN  G    G                |
|           W    W  A    A  R    R  N    N  II  N    N   GGGG   !!!           |
|                                                                             |
|     You use a magnetic or noncollinear calculation, but did not specify     |
|     the initial magnetic moment with the MAGMOM tag. Note that a            |
|     default of 1 will be used for all atoms. This ferromagnetic setup       |
|     may break the symmetry of the crystal, in particular it may rule        |
|     out finding an antiferromagnetic solution. Thence, we recommend         |
|     setting the initial magnetic moment manually or verifying carefully     |
|     that this magnetic setup is desired.                                    |
|                                                                             |
 -----------------------------------------------------------------------------

 scaLAPACK will be used
 Reading from existing POTCAR
 LDA part: xc-table for Pade appr. of Perdew
 -----------------------------------------------------------------------------
|                                                                             |
|           W    W    AA    RRRRR   N    N  II  N    N   GGGG   !!!           |
|           W    W   A  A   R    R  NN   N  II  NN   N  G    G  !!!           |
|           W    W  A    A  R    R  N N  N  II  N N  N  G       !!!           |
|           W WW W  AAAAAA  RRRRR   N  N N  II  N  N N  G  GGG   !            |
|           WW  WW  A    A  R   R   N   NN  II  N   NN  G    G                |
|           W    W  A    A  R    R  N    N  II  N    N   GGGG   !!!           |
|                                                                             |
|     The number of bands has been changed from the values supplied in        |
|     the INCAR file. This is a result of running the parallel version.       |
|     The orbitals not found in the WAVECAR file will be initialized with     |
|     random numbers, which is usually adequate. For correlated               |
|     calculations, however, you should redo the groundstate calculation.     |
|     I found NBANDS = 220. Now, NBANDS = 224.                                |
|                                                                             |
 -----------------------------------------------------------------------------

 POSCAR, INCAR and KPOINTS ok, starting setup
 FFT: planning ... GRIDC
 FFT: planning ... GRID_SOFT
 FFT: planning ... GRID
 WAVECAR not read
 WARNING: random wavefunctions but no delay for mixing, default for NELMDL
 entering main loop
       N       E                     dE             d eps       ncg     rms          rms(c)
DAV:   1     0.962648661786E+02    0.96265E+02   -0.39673E+03 28672   0.624E+01
DAV:   2    -0.112276445109E+02   -0.10749E+03   -0.96471E+02 34400   0.226E+01
DAV:   3    -0.162170391565E+02   -0.49894E+01   -0.49333E+01 34208   0.503E+00
DAV:   4    -0.162382329182E+02   -0.21194E-01   -0.21190E-01 33568   0.288E-01
DAV:   5    -0.162383060861E+02   -0.73168E-04   -0.73166E-04 33104   0.182E-02    0.684E+00
DAV:   6    -0.125615329005E+02    0.36768E+01   -0.35157E+00 31696   0.981E-01    0.441E+00
DAV:   7    -0.121865775659E+02    0.37496E+00   -0.30545E-01 30912   0.326E-01    0.288E+00
DAV:   8    -0.131480213091E+02   -0.96144E+00   -0.11954E-01 32080   0.232E-01    0.169E+00
DAV:   9    -0.141799708028E+02   -0.10319E+01   -0.12979E-01 31344   0.219E-01    0.125E+00
DAV:  10    -0.157086802639E+02   -0.15287E+01   -0.32087E-01 31104   0.322E-01    0.708E-01
DAV:  11    -0.165704392037E+02   -0.86176E+00   -0.12033E-01 31312   0.211E-01    0.300E-01
DAV:  12    -0.166575539795E+02   -0.87115E-01   -0.11706E-02 32112   0.724E-02    0.195E-01
DAV:  13    -0.167347990084E+02   -0.77245E-01   -0.44557E-03 31888   0.432E-02    0.112E-01
DAV:  14    -0.167454082080E+02   -0.10609E-01   -0.76388E-04 31568   0.188E-02    0.605E-02
DAV:  15    -0.167515497760E+02   -0.61416E-02   -0.27289E-04 31520   0.106E-02    0.323E-02
DAV:  16    -0.167569915508E+02   -0.54418E-02   -0.27872E-04 31216   0.104E-02    0.186E-02
DAV:  17    -0.167584503474E+02   -0.14588E-02   -0.69455E-05 30832   0.542E-03    0.125E-02
DAV:  18    -0.167594743291E+02   -0.10240E-02   -0.50579E-05 31616   0.500E-03    0.656E-03
DAV:  19    -0.167596707253E+02   -0.19640E-03   -0.10269E-05 30912   0.248E-03    0.390E-03
DAV:  20    -0.167597753226E+02   -0.10460E-03   -0.49222E-06 31360   0.173E-03    0.233E-03
DAV:  21    -0.167597833320E+02   -0.80094E-05   -0.27923E-06 32272   0.136E-03    0.119E-03
DAV:  22    -0.167598093546E+02   -0.26023E-04   -0.84303E-07 31680   0.794E-04    0.727E-04
DAV:  23    -0.167598262647E+02   -0.16910E-04   -0.37633E-07 31904   0.541E-04    0.453E-04
DAV:  24    -0.167598301843E+02   -0.39196E-05   -0.25309E-07 31920   0.474E-04    0.321E-04
DAV:  25    -0.167598310209E+02   -0.83658E-06   -0.14521E-07 32176   0.345E-04
   1 F= -.16759831E+02 E0= -.16759831E+02  d E =-.164074E-18  mag=     0.0000
 writing wavefunctions
