 running  128 mpi-ranks, with    1 threads/rank, on    2 nodes
 distrk:  each k-point on   64 cores,    2 groups
 distr:  one band on    4 cores,   16 groups
 vasp.6.4.2 20Jul23 (build Oct 12 2023 10:31:02) complex                         
 POSCAR found type information on POSCAR GeSe
 POSCAR found :  2 types and       8 ions
 Reading from existing POTCAR
 scaLAPACK will be used
 Reading from existing POTCAR
 LDA part: xc-table for Pade appr. of Perdew
 POSCAR, INCAR and KPOINTS ok, starting setup
 FFT: planning ... GRIDC
 FFT: planning ... GRID_SOFT
 FFT: planning ... GRID
 WAVECAR not read
 entering main loop
       N       E                     dE             d eps       ncg     rms          rms(c)
DAV:   1     0.133316443971E+03    0.13332E+03   -0.12624E+04  2560   0.764E+02
DAV:   2    -0.244605205707E+02   -0.15778E+03   -0.15305E+03  3760   0.136E+02
DAV:   3    -0.339049612704E+02   -0.94444E+01   -0.94241E+01  3120   0.390E+01
DAV:   4    -0.339754412831E+02   -0.70480E-01   -0.70470E-01  3216   0.388E+00
DAV:   5    -0.339758912105E+02   -0.44993E-03   -0.44993E-03  3120   0.305E-01    0.608E+00
DAV:   6    -0.334161397145E+02    0.55975E+00   -0.12385E+00  2896   0.362E+00    0.375E+00
DAV:   7    -0.334074287054E+02    0.87110E-02   -0.27302E-01  3104   0.183E+00    0.158E+00
DAV:   8    -0.334070672978E+02    0.36141E-03   -0.27763E-02  2864   0.646E-01    0.180E-01
DAV:   9    -0.334069806814E+02    0.86616E-04   -0.49874E-03  3104   0.291E-01    0.734E-02
DAV:  10    -0.334071347544E+02   -0.15407E-03   -0.54323E-04  2960   0.102E-01    0.248E-02
DAV:  11    -0.334071599503E+02   -0.25196E-04   -0.45494E-05  2832   0.309E-02    0.141E-02
DAV:  12    -0.334071601524E+02   -0.20213E-06   -0.10782E-05  3152   0.136E-02    0.370E-03
DAV:  13    -0.334071609767E+02   -0.82431E-06   -0.12522E-06  1936   0.422E-03
   1 F= -.33407161E+02 E0= -.33407161E+02  d E =-.678575E-14
