 vasp.6.4.2 20Jul23 (build Oct 12 2023 10:31:02) complex                         
 executed on              LinuxNV date 2025.05.19  00:46:27
 running  160 mpi-ranks, with    1 threads/rank, on   10 nodes
 distrk:  each k-point on   80 cores,    2 groups
 distr:  one band on NCORE=   5 cores,   16 groups


--------------------------------------------------------------------------------------------------------


 INCAR:
   ENCUT = 360.000000
   SIGMA = 0.050000
   EDIFF = 1.00e-06
   ALGO = Normal
   GGA = PE
   PREC = Normal
   SYSTEM = ./
   ICHARG = 2
   ISMEAR = 0
   ISPIN = 1
   ISTART = 0
   ISYM = 0
   KPAR = 2
   LMAXMIX = 4
   NELM = 100
   NPAR = 16
   LASPH = .TRUE.
   LCHARG = .FALSE.
   LWAVE = .FALSE.

 POTCAR:    PAW_PBE Ge 05Jan2001                  
 POTCAR:    PAW_PBE Se 06Sep2000                  
 POTCAR:    PAW_PBE Ge 05Jan2001                  
   VRHFIN =Ge: s2p2                                                                                 
   LEXCH  = PE                                                                                      
   EATOM  =   104.9960 eV,    7.7170 Ry                                                             
                                                                                                    
   TITEL  = PAW_PBE Ge 05Jan2001                                                                    
   LULTRA =        F    use ultrasoft PP ?                                                          
   IUNSCR =        1    unscreen: 0-lin 1-nonlin 2-no                                               
   RPACOR =    2.170    partial core radius                                                         
   POMASS =   72.610; ZVAL   =    4.000    mass and valenz                                          
   RCORE  =    2.300    outmost cutoff radius                                                       
   RWIGS  =    2.300; RWIGS  =    1.217    wigner-seitz radius (au A)                               
   ENMAX  =  173.807; ENMIN  =  130.355 eV                                                          
   ICORE  =        3    local potential                                                             
   LCOR   =        T    correct aug charges                                                         
   LPAW   =        T    paw PP                                                                      
   EAUG   =  385.843                                                                                
   DEXC   =    0.000                                                                                
   RMAX   =    2.342    core radius for proj-oper                                                   
   RAUG   =    1.300    factor for augmentation sphere                                              
   RDEP   =    2.318    radius for radial grids                                                     
   RDEPT  =    2.103    core radius for aug-charge                                                  
                                                                                                    
   Atomic configuration                                                                             
   10 entries                                                                                       
     n  l   j            E        occ.                                                              
     1  0  0.50    -10959.8463   2.0000                                                             
     2  0  0.50     -1371.6056   2.0000                                                             
     2  1  1.50     -1198.4791   6.0000                                                             
     3  0  0.50      -168.4733   2.0000                                                             
     3  1  1.50      -115.6019   6.0000                                                             
     3  2  2.50       -29.3106  10.0000                                                             
     4  0  0.50       -11.7309   2.0000                                                             
     4  1  0.50        -3.8952   2.0000                                                             
     4  2  1.50        -4.0817   0.0000                                                             
     4  3  2.50        -4.0817   0.0000                                                             
   Description                                                                                      
     l       E           TYP  RCUT    TYP  RCUT                                                     
     0    -11.7309493     23  2.300                                                                 
     0     -7.4578696     23  2.300                                                                 
     1     -3.8952261     23  2.300                                                                 
     1      6.1178114     23  2.300                                                                 
     2     -4.0817478     23  2.300                                                                 
     3     -1.3605826      7  2.300                                                                 
  local pseudopotential read in
  partial core-charges read in
  partial kinetic energy density read in
  atomic valenz-charges read in
  non local Contribution for L=            0  read in
    real space projection operators read in
  non local Contribution for L=            0  read in
    real space projection operators read in
  non local Contribution for L=            1  read in
    real space projection operators read in
  non local Contribution for L=            1  read in
    real space projection operators read in
  non local Contribution for L=            2  read in
    real space projection operators read in
    PAW grid and wavefunctions read in
 
   number of l-projection  operators is LMAX  =            5
   number of lm-projection operators is LMMAX =           13
 
 POTCAR:    PAW_PBE Se 06Sep2000                  
   VRHFIN =Se: s2p4                                                                                 
   LEXCH  = PE                                                                                      
   EATOM  =   257.1286 eV,   18.8984 Ry                                                             
                                                                                                    
   TITEL  = PAW_PBE Se 06Sep2000                                                                    
   LULTRA =        F    use ultrasoft PP ?                                                          
   IUNSCR =        1    unscreen: 0-lin 1-nonlin 2-no                                               
   RPACOR =    1.900    partial core radius                                                         
   POMASS =   78.960; ZVAL   =    6.000    mass and valenz                                          
   RCORE  =    2.100    outmost cutoff radius                                                       
   RWIGS  =    2.200; RWIGS  =    1.164    wigner-seitz radius (au A)                               
   ENMAX  =  211.555; ENMIN  =  158.666 eV                                                          
   ICORE  =        3    local potential                                                             
   LCOR   =        T    correct aug charges                                                         
   LPAW   =        T    paw PP                                                                      
   EAUG   =  446.842                                                                                
   DEXC   =    0.000                                                                                
   RMAX   =    2.147    core radius for proj-oper                                                   
   RAUG   =    1.300    factor for augmentation sphere                                              
   RDEP   =    2.177    radius for radial grids                                                     
   RDEPT  =    1.928    core radius for aug-charge                                                  
                                                                                                    
   Atomic configuration                                                                             
   10 entries                                                                                       
     n  l   j            E        occ.                                                              
     1  0  0.50    -12503.4787   2.0000                                                             
     2  0  0.50     -1606.9547   2.0000                                                             
     2  1  1.50     -1413.3140   6.0000                                                             
     3  0  0.50      -213.4885   2.0000                                                             
     3  1  1.50      -152.9538   6.0000                                                             
     3  2  2.50       -53.1221  10.0000                                                             
     4  0  0.50       -17.2865   2.0000                                                             
     4  1  0.50        -6.5110   4.0000                                                             
     4  2  2.50        -6.8029   0.0000                                                             
     4  3  2.50        -6.8029   0.0000                                                             
   Description                                                                                      
     l       E           TYP  RCUT    TYP  RCUT                                                     
     0    -17.2865377     23  2.100                                                                 
     0    -15.3094411     23  2.100                                                                 
     1     -6.5110275     23  2.100                                                                 
     1     -0.0695192     23  2.100                                                                 
     2     -6.8029130     23  2.100                                                                 
     3     -1.3605826      7  2.100                                                                 
  local pseudopotential read in
  partial core-charges read in
  partial kinetic energy density read in
  atomic valenz-charges read in
  non local Contribution for L=            0  read in
    real space projection operators read in
  non local Contribution for L=            0  read in
    real space projection operators read in
  non local Contribution for L=            1  read in
    real space projection operators read in
  non local Contribution for L=            1  read in
    real space projection operators read in
  non local Contribution for L=            2  read in
    real space projection operators read in
    PAW grid and wavefunctions read in
 
   number of l-projection  operators is LMAX  =            5
   number of lm-projection operators is LMMAX =           13
 
  PAW_PBE Ge 05Jan2001                  :
 energy of atom  1       EATOM= -104.9960
 kinetic energy error for atom=    0.0005 (will be added to EATOM!!)
  PAW_PBE Se 06Sep2000                  :
 energy of atom  2       EATOM= -257.1286
 kinetic energy error for atom=    0.0030 (will be added to EATOM!!)
 
 
 POSCAR: Ge Se
  positions in cartesian coordinates
  No initial velocities read in
 exchange correlation table for  LEXCH =        8
   RHO(1)=    0.500       N(1)  =     2000
   RHO(2)=  100.500       N(2)  =     4000
 


--------------------------------------------------------------------------------------------------------


 ion  position               nearest neighbor table
   1  0.322  0.256  0.132-   5 2.59   6 2.60   6 2.60
   2  0.822  0.756  0.368-   6 2.59   5 2.60   5 2.60
   3  0.750  0.904  0.868-   7 2.59   8 2.60   8 2.60
   4  0.250  0.404  0.632-   8 2.59   7 2.60   7 2.60
   5  0.322  0.139  0.351-   1 2.59   2 2.60   2 2.60
   6  0.822  0.639  0.149-   2 2.59   1 2.60   1 2.60
   7  0.750  0.021  0.649-   3 2.59   4 2.60   4 2.60
   8  0.250  0.521  0.851-   4 2.59   3 2.60   3 2.60
 

IMPORTANT INFORMATION: All symmetrisations will be switched off!
NOSYMM: (Re-)initialisation of all symmetry stuff for point group C_1.


----------------------------------------------------------------------------------------

                                     Primitive cell                                     

  volume of cell :     202.3233

  direct lattice vectors                    reciprocal lattice vectors
     3.858100176  0.000000000  0.000000000     0.259194929  0.000000000  0.000000000
     0.000000000  4.526575088  0.000000000     0.000000000  0.220917577  0.000000000
     0.000000000  0.000000000 11.585176468     0.000000000  0.000000000  0.086317200

  length of vectors
     3.858100176  4.526575088 11.585176468     0.259194929  0.220917577  0.086317200

  position of ions in fractional coordinates (direct lattice)
     0.322463771  0.255663647  0.131971745
     0.822463735  0.755663635  0.368028228
     0.749999855  0.903756548  0.868028249
     0.249999781  0.403756501  0.631971759
     0.322463755  0.138885995  0.351109927
     0.822463772  0.638886015  0.148890049
     0.749999761  0.020534152  0.648890076
     0.249999838  0.520534176  0.851109946

  ion indices of the primitive-cell ions
   primitive index   ion index
                 1           1
                 2           2
                 3           3
                 4           4
                 5           5
                 6           6
                 7           7
                 8           8

----------------------------------------------------------------------------------------

 
 
 KPOINTS: KPOINTS created by Atomic Simulation Env

Automatic generation of k-mesh.
 Grid dimensions read from file:
 generate k-points for:    6    6    2

 Generating k-lattice:

  Cartesian coordinates                     Fractional coordinates (reciprocal lattice)
     0.043199155  0.000000000  0.000000000     0.166666667  0.000000000  0.000000000
     0.000000000  0.036819596  0.000000000     0.000000000  0.166666667  0.000000000
     0.000000000  0.000000000  0.043158600     0.000000000  0.000000000  0.500000000

  Length of vectors
     0.043199155  0.036819596  0.043158600

  Shift w.r.t. Gamma in fractional coordinates (k-lattice)
     0.000000000  0.000000000  0.000000000

 
 Subroutine IBZKPT returns following result:
 ===========================================
 
 Found     40 irreducible k-points:
 
 Following reciprocal coordinates:
            Coordinates               Weight
  0.000000  0.000000  0.000000      1.000000
  0.166667  0.000000  0.000000      2.000000
  0.333333  0.000000  0.000000      2.000000
  0.500000  0.000000  0.000000      1.000000
  0.000000  0.166667  0.000000      2.000000
  0.166667  0.166667  0.000000      2.000000
  0.166667 -0.166667  0.000000      2.000000
  0.333333  0.166667  0.000000      2.000000
  0.333333 -0.166667  0.000000      2.000000
  0.500000  0.166667  0.000000      2.000000
  0.000000  0.333333  0.000000      2.000000
  0.166667  0.333333  0.000000      2.000000
  0.166667 -0.333333  0.000000      2.000000
  0.333333  0.333333  0.000000      2.000000
  0.333333 -0.333333  0.000000      2.000000
  0.500000  0.333333  0.000000      2.000000
  0.000000  0.500000  0.000000      1.000000
  0.166667  0.500000  0.000000      2.000000
  0.333333  0.500000  0.000000      2.000000
  0.500000  0.500000  0.000000      1.000000
  0.000000  0.000000  0.500000      1.000000
  0.166667  0.000000  0.500000      2.000000
  0.333333  0.000000  0.500000      2.000000
  0.500000  0.000000  0.500000      1.000000
  0.000000  0.166667  0.500000      2.000000
  0.166667  0.166667  0.500000      2.000000
  0.166667 -0.166667  0.500000      2.000000
  0.333333  0.166667  0.500000      2.000000
  0.333333 -0.166667  0.500000      2.000000
  0.500000  0.166667  0.500000      2.000000
  0.000000  0.333333  0.500000      2.000000
  0.166667  0.333333  0.500000      2.000000
  0.166667 -0.333333  0.500000      2.000000
  0.333333  0.333333  0.500000      2.000000
  0.333333 -0.333333  0.500000      2.000000
  0.500000  0.333333  0.500000      2.000000
  0.000000  0.500000  0.500000      1.000000
  0.166667  0.500000  0.500000      2.000000
  0.333333  0.500000  0.500000      2.000000
  0.500000  0.500000  0.500000      1.000000
 
 Following cartesian coordinates:
            Coordinates               Weight
  0.000000  0.000000  0.000000      1.000000
  0.043199  0.000000  0.000000      2.000000
  0.086398  0.000000  0.000000      2.000000
  0.129597  0.000000  0.000000      1.000000
  0.000000  0.036820  0.000000      2.000000
  0.043199  0.036820  0.000000      2.000000
  0.043199 -0.036820  0.000000      2.000000
  0.086398  0.036820  0.000000      2.000000
  0.086398 -0.036820  0.000000      2.000000
  0.129597  0.036820  0.000000      2.000000
  0.000000  0.073639  0.000000      2.000000
  0.043199  0.073639  0.000000      2.000000
  0.043199 -0.073639  0.000000      2.000000
  0.086398  0.073639  0.000000      2.000000
  0.086398 -0.073639  0.000000      2.000000
  0.129597  0.073639  0.000000      2.000000
  0.000000  0.110459  0.000000      1.000000
  0.043199  0.110459  0.000000      2.000000
  0.086398  0.110459  0.000000      2.000000
  0.129597  0.110459  0.000000      1.000000
  0.000000  0.000000  0.043159      1.000000
  0.043199  0.000000  0.043159      2.000000
  0.086398  0.000000  0.043159      2.000000
  0.129597  0.000000  0.043159      1.000000
  0.000000  0.036820  0.043159      2.000000
  0.043199  0.036820  0.043159      2.000000
  0.043199 -0.036820  0.043159      2.000000
  0.086398  0.036820  0.043159      2.000000
  0.086398 -0.036820  0.043159      2.000000
  0.129597  0.036820  0.043159      2.000000
  0.000000  0.073639  0.043159      2.000000
  0.043199  0.073639  0.043159      2.000000
  0.043199 -0.073639  0.043159      2.000000
  0.086398  0.073639  0.043159      2.000000
  0.086398 -0.073639  0.043159      2.000000
  0.129597  0.073639  0.043159      2.000000
  0.000000  0.110459  0.043159      1.000000
  0.043199  0.110459  0.043159      2.000000
  0.086398  0.110459  0.043159      2.000000
  0.129597  0.110459  0.043159      1.000000
 


--------------------------------------------------------------------------------------------------------




 Dimension of arrays:
   k-points           NKPTS =     40   k-points in BZ     NKDIM =     40   number of bands    NBANDS=     32
   number of dos      NEDOS =    301   number of ions     NIONS =      8
   non local maximal  LDIM  =      5   non local SUM 2l+1 LMDIM =     13
   total plane-waves  NPLWV =  23328
   max r-space proj   IRMAX =      1   max aug-charges    IRDMAX=   6465
   dimension x,y,z NGX =    18 NGY =   24 NGZ =   54
   dimension x,y,z NGXF=    36 NGYF=   48 NGZF=  108
   support grid    NGXF=    36 NGYF=   48 NGZF=  108
   ions per type =               4   4
   NGX,Y,Z   is equivalent  to a cutoff of   7.76,  8.81,  7.75 a.u.
   NGXF,Y,Z  is equivalent  to a cutoff of  15.51, 17.63, 15.50 a.u.

 SYSTEM =  ./                                      
 POSCAR =  Ge Se                                   

 Startparameter for this run:
   NWRITE =      2    write-flag & timer
   PREC   = normal    normal or accurate (medium, high low for compatibility)
   ISTART =      0    job   : 0-new  1-cont  2-samecut
   ICHARG =      2    charge: 1-file 2-atom 10-const
   ISPIN  =      1    spin polarized calculation?
   LNONCOLLINEAR =      F non collinear calculations
   LSORBIT =      F    spin-orbit coupling
   INIWAV =      1    electr: 0-lowe 1-rand  2-diag
   LASPH  =      T    aspherical Exc in radial PAW
 Electronic Relaxation 1
   ENCUT  =  360.0 eV  26.46 Ry    5.14 a.u.   5.97  7.00 17.92*2*pi/ulx,y,z
   ENINI  =  360.0     initial cutoff
   ENAUG  =  446.8 eV  augmentation charge cutoff
   NELM   =    100;   NELMIN=  2; NELMDL= -5     # of ELM steps 
   EDIFF  = 0.1E-05   stopping-criterion for ELM
   LREAL  =      F    real-space projection
   NLSPLINE    = F    spline interpolate recip. space projectors
   LCOMPAT=      F    compatible to vasp.4.4
   GGA_COMPAT  = T    GGA compatible to vasp.4.4-vasp.4.6
   LMAXPAW     = -100 max onsite density
   LMAXMIX     =    4 max onsite mixed and CHGCAR
   VOSKOWN=      0    Vosko Wilk Nusair interpolation
   ROPT   =    0.00000   0.00000
 Ionic relaxation
   EDIFFG = 0.1E-04   stopping-criterion for IOM
   NSW    =      0    number of steps for IOM
   NBLOCK =      1;   KBLOCK =      1    inner block; outer block 
   IBRION =     -1    ionic relax: 0-MD 1-quasi-New 2-CG
   NFREE  =      0    steps in history (QN), initial steepest desc. (CG)
   ISIF   =      2    stress and relaxation
   IWAVPR =     10    prediction:  0-non 1-charg 2-wave 3-comb
   ISYM   =      0    0-nonsym 1-usesym 2-fastsym
   LCORR  =      T    Harris-Foulkes like correction to forces

   POTIM  = 0.5000    time-step for ionic-motion
   TEIN   =    0.0    initial temperature
   TEBEG  =    0.0;   TEEND  =   0.0 temperature during run
   SMASS  =  -3.00    Nose mass-parameter (am)
   estimated Nose-frequenzy (Omega)   =  0.10E-29 period in steps = 0.13E+47 mass=  -0.340E-27a.u.
   SCALEE = 1.0000    scale energy and forces
   NPACO  =    256;   APACO  = 10.0  distance and # of slots for P.C.
   PSTRESS=    0.0 pullay stress

  Mass of Ions in am
   POMASS =  72.61 78.96
  Ionic Valenz
   ZVAL   =   4.00  6.00
  Atomic Wigner-Seitz radii
   RWIGS  =  -1.00 -1.00
  virtual crystal weights 
   VCA    =   1.00  1.00
   NELECT =      40.0000    total number of electrons
   NUPDOWN=      -1.0000    fix difference up-down

 DOS related values:
   EMIN   =  10.00;   EMAX   =-10.00  energy-range for DOS
   EFERMI =   0.00;   METHOD = LEGACY      
   ISMEAR =     0;   SIGMA  =   0.05  broadening in eV -4-tet -1-fermi 0-gaus

 Electronic relaxation 2 (details)
   IALGO  =     38    algorithm
   LDIAG  =      T    sub-space diagonalisation (order eigenvalues)
   LSUBROT=      F    optimize rotation matrix (better conditioning)
   TURBO    =      0    0=normal 1=particle mesh
   IRESTART =      0    0=no restart 2=restart with 2 vectors
   NREBOOT  =      0    no. of reboots
   NMIN     =      0    reboot dimension
   EREF     =   0.00    reference energy to select bands
   IMIX   =      4    mixing-type and parameters
     AMIX     =   0.40;   BMIX     =  1.00
     AMIX_MAG =   1.60;   BMIX_MAG =  1.00
     AMIN     =   0.10
     WC   =   100.;   INIMIX=   1;  MIXPRE=   1;  MAXMIX= -45

 Intra band minimization:
   WEIMIN = 0.0000     energy-eigenvalue tresh-hold
   EBREAK =  0.78E-08  absolut break condition
   DEPER  =   0.30     relativ break condition  

   TIME   =   0.40     timestep for ELM

  volume/ion in A,a.u.               =      25.29       170.67
  Fermi-wavevector in a.u.,A,eV,Ry     =   0.953702  1.802236 12.375155  0.909548
  Thomas-Fermi vector in A             =   2.082382
 
 Write flags
   LWAVE        =      F    write WAVECAR
   LDOWNSAMPLE  =      F    k-point downsampling of WAVECAR
   LCHARG       =      F    write CHGCAR
   LVTOT        =      F    write LOCPOT, total local potential
   LVHAR        =      F    write LOCPOT, Hartree potential only
   LELF         =      F    write electronic localiz. function (ELF)
   LORBIT       =      0    0 simple, 1 ext, 2 COOP (PROOUT), +10 PAW based schemes


 Dipole corrections
   LMONO  =      F    monopole corrections only (constant potential shift)
   LDIPOL =      F    correct potential (dipole corrections)
   IDIPOL =      0    1-x, 2-y, 3-z, 4-all directions 
   EPSILON=  1.0000000 bulk dielectric constant

 Exchange correlation treatment:
   GGA     =    PE    GGA type
   LEXCH   =     8    internal setting for exchange type
   LIBXC   =     F    Libxc                    
   VOSKOWN =     0    Vosko Wilk Nusair interpolation
   LHFCALC =     F    Hartree Fock is set to
   LHFONE  =     F    Hartree Fock one center treatment
   AEXX    =    0.0000 exact exchange contribution

 Linear response parameters
   LEPSILON=     F    determine dielectric tensor
   LRPA    =     F    only Hartree local field effects (RPA)
   LNABLA  =     F    use nabla operator in PAW spheres
   LVEL    =     F    velocity operator in full k-point grid
   CSHIFT  =0.1000    complex shift for real part using Kramers Kronig
   OMEGAMAX=  -1.0    maximum frequency
   DEG_THRESHOLD= 0.2000000E-02 threshold for treating states as degnerate
   RTIME   =   -0.100 relaxation time in fs
  (WPLASMAI=    0.000 imaginary part of plasma frequency in eV, 0.658/RTIME)
   DFIELD  = 0.0000000 0.0000000 0.0000000 field for delta impulse in time
 
  Optional k-point grid parameters
   LKPOINTS_OPT  =     F    use optional k-point grid
   KPOINTS_OPT_MODE=     1    mode for optional k-point grid
 
 Orbital magnetization related:
   ORBITALMAG=     F  switch on orbital magnetization
   LCHIMAG   =     F  perturbation theory with respect to B field
   DQ        =  0.001000  dq finite difference perturbation B field
   LLRAUG    =     F  two centre corrections for induced B field
   LBONE     =     F  B-component reconstruction in AE one-centre
   LVGVCALC  =     T  calculate vGv susceptibility
   LVGVAPPL  =     F  apply vGv susceptibility instead of pGv for G=0

 Random number generation:
   RANDOM_GENERATOR = DEFAULT
   PCG_SEED         = not used


--------------------------------------------------------------------------------------------------------


 Static calculation
 charge density and potential will be updated during run
 non-spin polarized calculation
 Variant of blocked Davidson
 Davidson routine will perform the subspace rotation
 perform sub-space diagonalisation
    after iterative eigenvector-optimisation
 modified Broyden-mixing scheme, WC =      100.0
 initial mixing is a Kerker type mixing with AMIX =  0.4000 and BMIX =      1.0000
 Hartree-type preconditioning will be used
 using additional bands            12
 reciprocal scheme for non local part
 use partial core corrections
 calculate Harris-corrections to forces 
   (improved forces if not selfconsistent)
 use gradient corrections 
 use of overlap-Matrix (Vanderbilt PP)
 Gauss-broadening in eV      SIGMA  =   0.05


--------------------------------------------------------------------------------------------------------


  energy-cutoff  :      360.00
  volume of cell :      202.32
      direct lattice vectors                 reciprocal lattice vectors
     3.858100176  0.000000000  0.000000000     0.259194929  0.000000000  0.000000000
     0.000000000  4.526575088  0.000000000     0.000000000  0.220917577  0.000000000
     0.000000000  0.000000000 11.585176468     0.000000000  0.000000000  0.086317200

  length of vectors
     3.858100176  4.526575088 11.585176468     0.259194929  0.220917577  0.086317200


 
 k-points in units of 2pi/SCALE and weight: KPOINTS created by Atomic Simulation Env
   0.00000000  0.00000000  0.00000000       0.014
   0.04319915  0.00000000  0.00000000       0.028
   0.08639831  0.00000000  0.00000000       0.028
   0.12959746  0.00000000  0.00000000       0.014
   0.00000000  0.03681960  0.00000000       0.028
   0.04319915  0.03681960  0.00000000       0.028
   0.04319915 -0.03681960  0.00000000       0.028
   0.08639831  0.03681960  0.00000000       0.028
   0.08639831 -0.03681960  0.00000000       0.028
   0.12959746  0.03681960  0.00000000       0.028
   0.00000000  0.07363919  0.00000000       0.028
   0.04319915  0.07363919  0.00000000       0.028
   0.04319915 -0.07363919  0.00000000       0.028
   0.08639831  0.07363919  0.00000000       0.028
   0.08639831 -0.07363919  0.00000000       0.028
   0.12959746  0.07363919  0.00000000       0.028
   0.00000000  0.11045879  0.00000000       0.014
   0.04319915  0.11045879  0.00000000       0.028
   0.08639831  0.11045879  0.00000000       0.028
   0.12959746  0.11045879  0.00000000       0.014
   0.00000000  0.00000000  0.04315860       0.014
   0.04319915  0.00000000  0.04315860       0.028
   0.08639831  0.00000000  0.04315860       0.028
   0.12959746  0.00000000  0.04315860       0.014
   0.00000000  0.03681960  0.04315860       0.028
   0.04319915  0.03681960  0.04315860       0.028
   0.04319915 -0.03681960  0.04315860       0.028
   0.08639831  0.03681960  0.04315860       0.028
   0.08639831 -0.03681960  0.04315860       0.028
   0.12959746  0.03681960  0.04315860       0.028
   0.00000000  0.07363919  0.04315860       0.028
   0.04319915  0.07363919  0.04315860       0.028
   0.04319915 -0.07363919  0.04315860       0.028
   0.08639831  0.07363919  0.04315860       0.028
   0.08639831 -0.07363919  0.04315860       0.028
   0.12959746  0.07363919  0.04315860       0.028
   0.00000000  0.11045879  0.04315860       0.014
   0.04319915  0.11045879  0.04315860       0.028
   0.08639831  0.11045879  0.04315860       0.028
   0.12959746  0.11045879  0.04315860       0.014
 
 k-points in reciprocal lattice and weights: KPOINTS created by Atomic Simulation Env
   0.00000000  0.00000000  0.00000000       0.014
   0.16666667  0.00000000  0.00000000       0.028
   0.33333333  0.00000000  0.00000000       0.028
   0.50000000  0.00000000  0.00000000       0.014
   0.00000000  0.16666667  0.00000000       0.028
   0.16666667  0.16666667  0.00000000       0.028
   0.16666667 -0.16666667  0.00000000       0.028
   0.33333333  0.16666667  0.00000000       0.028
   0.33333333 -0.16666667  0.00000000       0.028
   0.50000000  0.16666667  0.00000000       0.028
   0.00000000  0.33333333  0.00000000       0.028
   0.16666667  0.33333333  0.00000000       0.028
   0.16666667 -0.33333333  0.00000000       0.028
   0.33333333  0.33333333  0.00000000       0.028
   0.33333333 -0.33333333  0.00000000       0.028
   0.50000000  0.33333333  0.00000000       0.028
   0.00000000  0.50000000  0.00000000       0.014
   0.16666667  0.50000000  0.00000000       0.028
   0.33333333  0.50000000  0.00000000       0.028
   0.50000000  0.50000000  0.00000000       0.014
   0.00000000  0.00000000  0.50000000       0.014
   0.16666667  0.00000000  0.50000000       0.028
   0.33333333  0.00000000  0.50000000       0.028
   0.50000000  0.00000000  0.50000000       0.014
   0.00000000  0.16666667  0.50000000       0.028
   0.16666667  0.16666667  0.50000000       0.028
   0.16666667 -0.16666667  0.50000000       0.028
   0.33333333  0.16666667  0.50000000       0.028
   0.33333333 -0.16666667  0.50000000       0.028
   0.50000000  0.16666667  0.50000000       0.028
   0.00000000  0.33333333  0.50000000       0.028
   0.16666667  0.33333333  0.50000000       0.028
   0.16666667 -0.33333333  0.50000000       0.028
   0.33333333  0.33333333  0.50000000       0.028
   0.33333333 -0.33333333  0.50000000       0.028
   0.50000000  0.33333333  0.50000000       0.028
   0.00000000  0.50000000  0.50000000       0.014
   0.16666667  0.50000000  0.50000000       0.028
   0.33333333  0.50000000  0.50000000       0.028
   0.50000000  0.50000000  0.50000000       0.014
 
 position of ions in fractional coordinates (direct lattice) 
   0.32246377  0.25566365  0.13197174
   0.82246374  0.75566363  0.36802823
   0.74999985  0.90375655  0.86802825
   0.24999978  0.40375650  0.63197176
   0.32246376  0.13888599  0.35110993
   0.82246377  0.63888602  0.14889005
   0.74999976  0.02053415  0.64889008
   0.24999984  0.52053418  0.85110995
 
 position of ions in cartesian coordinates  (Angst):
   1.24409753  1.15728070  1.52891595
   3.17314748  3.42056818  4.26367197
   2.89357457  4.09092188 10.05626045
   0.96452420  1.82763412  7.32150435
   1.24409747  0.62867788  4.06767047
   3.17314762  2.89196552  1.72491749
   2.89357421  0.09294938  7.51750603
   0.96452442  2.35623703  9.86025892
 


--------------------------------------------------------------------------------------------------------


 k-point   1 :   0.0000 0.0000 0.0000  plane waves:    3119
 k-point   2 :   0.1667 0.0000 0.0000  plane waves:    3116
 k-point   3 :   0.3333 0.0000 0.0000  plane waves:    3142
 k-point   4 :   0.5000 0.0000 0.0000  plane waves:    3148
 k-point   5 :   0.0000 0.1667 0.0000  plane waves:    3108
 k-point   6 :   0.1667 0.1667 0.0000  plane waves:    3123
 k-point   7 :   0.1667-0.1667 0.0000  plane waves:    3123
 k-point   8 :   0.3333 0.1667 0.0000  plane waves:    3135
 k-point   9 :   0.3333-0.1667 0.0000  plane waves:    3135
 k-point  10 :   0.5000 0.1667 0.0000  plane waves:    3138
 k-point  11 :   0.0000 0.3333 0.0000  plane waves:    3116
 k-point  12 :   0.1667 0.3333 0.0000  plane waves:    3133
 k-point  13 :   0.1667-0.3333 0.0000  plane waves:    3133
 k-point  14 :   0.3333 0.3333 0.0000  plane waves:    3155
 k-point  15 :   0.3333-0.3333 0.0000  plane waves:    3155
 k-point  16 :   0.5000 0.3333 0.0000  plane waves:    3152
 k-point  17 :   0.0000 0.5000 0.0000  plane waves:    3134
 k-point  18 :   0.1667 0.5000 0.0000  plane waves:    3140
 k-point  19 :   0.3333 0.5000 0.0000  plane waves:    3144
 k-point  20 :   0.5000 0.5000 0.0000  plane waves:    3144
 k-point  21 :   0.0000 0.0000 0.5000  plane waves:    3092
 k-point  22 :   0.1667 0.0000 0.5000  plane waves:    3124
 k-point  23 :   0.3333 0.0000 0.5000  plane waves:    3140
 k-point  24 :   0.5000 0.0000 0.5000  plane waves:    3132
 k-point  25 :   0.0000 0.1667 0.5000  plane waves:    3112
 k-point  26 :   0.1667 0.1667 0.5000  plane waves:    3140
 k-point  27 :   0.1667-0.1667 0.5000  plane waves:    3140
 k-point  28 :   0.3333 0.1667 0.5000  plane waves:    3134
 k-point  29 :   0.3333-0.1667 0.5000  plane waves:    3134
 k-point  30 :   0.5000 0.1667 0.5000  plane waves:    3144
 k-point  31 :   0.0000 0.3333 0.5000  plane waves:    3130
 k-point  32 :   0.1667 0.3333 0.5000  plane waves:    3148
 k-point  33 :   0.1667-0.3333 0.5000  plane waves:    3148
 k-point  34 :   0.3333 0.3333 0.5000  plane waves:    3142
 k-point  35 :   0.3333-0.3333 0.5000  plane waves:    3142
 k-point  36 :   0.5000 0.3333 0.5000  plane waves:    3152
 k-point  37 :   0.0000 0.5000 0.5000  plane waves:    3132
 k-point  38 :   0.1667 0.5000 0.5000  plane waves:    3148
 k-point  39 :   0.3333 0.5000 0.5000  plane waves:    3140
 k-point  40 :   0.5000 0.5000 0.5000  plane waves:    3160

 maximum and minimum number of plane-waves per node :       659      606

 maximum number of plane-waves:      3160
 maximum index in each direction: 
   IXMAX=    5   IYMAX=    7   IZMAX=   17
   IXMIN=   -6   IYMIN=   -7   IZMIN=  -18


 parallel 3D FFT for wavefunctions:
    minimum data exchange during FFTs selected (reduces bandwidth)
 parallel 3D FFT for charge:
    minimum data exchange during FFTs selected (reduces bandwidth)


 total amount of memory used by VASP MPI-rank0    37119. kBytes
=======================================================================

   base      :      30000. kBytes
   nonl-proj :       5406. kBytes
   fftplans  :        334. kBytes
   grid      :        503. kBytes
   one-center:         16. kBytes
   wavefun   :        860. kBytes
 
     INWAV:  cpu time      0.0000: real time      0.0001
 Broyden mixing: mesh for mixing (old mesh)
   NGX = 11   NGY = 15   NGZ = 35
  (NGX  = 36   NGY  = 48   NGZ  =108)
  gives a total of   5775 points

 initial charge density was supplied:
 charge density of overlapping atoms calculated
 number of electron      40.0000000 magnetization 
 keeping initial charge density in first step


--------------------------------------------------------------------------------------------------------


 Maximum index for augmentation-charges           274 (set IRDMAX)


--------------------------------------------------------------------------------------------------------


 First call to EWALD:  gamma=   0.302
 Maximum number of real-space cells 4x 3x 2
 Maximum number of reciprocal cells 2x 2x 5

    FEWALD:  cpu time      0.0010: real time      0.0010


--------------------------------------- Ionic step        1  -------------------------------------------




--------------------------------------- Iteration      1(   1)  ---------------------------------------


    POTLOK:  cpu time      0.0085: real time      0.0086
    SETDIJ:  cpu time      0.2160: real time      0.2165
     EDDAV:  cpu time      0.3297: real time      0.3311
       DOS:  cpu time      0.0011: real time      0.0011
    --------------------------------------------
      LOOP:  cpu time      0.5553: real time      0.5572

 eigenvalue-minimisations  :  2560
 total energy-change (2. order) : 0.1329319E+03  (-0.1286696E+04)
 number of electron      40.0000000 magnetization 
 augmentation part       40.0000000 magnetization 

 Free energy of the ion-electron system (eV)
  ---------------------------------------------------
  alpha Z        PSCENC =        83.74935623
  Ewald energy   TEWEN  =     -1381.80399585
  -Hartree energ DENC   =      -147.80875053
  -exchange      EXHF   =         0.00000000
  -V(xc)+E(xc)   XCENC  =       -33.76899619
  PAW double counting   =      1193.78262552    -1080.73714043
  entropy T*S    EENTRO =        -0.00470942
  eigenvalues    EBANDS =        51.03888756
  atomic energy  EATOM  =      1448.48460880
  Solvation  Ediel_sol  =         0.00000000
  ---------------------------------------------------
  free energy    TOTEN  =       132.93188568 eV

  energy without entropy =      132.93659510  energy(sigma->0) =      132.93424039


--------------------------------------------------------------------------------------------------------




--------------------------------------- Iteration      1(   2)  ---------------------------------------


     EDDAV:  cpu time      0.4351: real time      0.4382
       DOS:  cpu time      0.0006: real time      0.0006
    --------------------------------------------
      LOOP:  cpu time      0.4357: real time      0.4388

 eigenvalue-minimisations  :  3760
 total energy-change (2. order) :-0.1581137E+03  (-0.1533257E+03)
 number of electron      40.0000000 magnetization 
 augmentation part       40.0000000 magnetization 

 Free energy of the ion-electron system (eV)
  ---------------------------------------------------
  alpha Z        PSCENC =        83.74935623
  Ewald energy   TEWEN  =     -1381.80399585
  -Hartree energ DENC   =      -147.80875053
  -exchange      EXHF   =         0.00000000
  -V(xc)+E(xc)   XCENC  =       -33.76899619
  PAW double counting   =      1193.78262552    -1080.73714043
  entropy T*S    EENTRO =        -0.00000000
  eigenvalues    EBANDS =      -107.07955281
  atomic energy  EATOM  =      1448.48460880
  Solvation  Ediel_sol  =         0.00000000
  ---------------------------------------------------
  free energy    TOTEN  =       -25.18184527 eV

  energy without entropy =      -25.18184527  energy(sigma->0) =      -25.18184527


--------------------------------------------------------------------------------------------------------




--------------------------------------- Iteration      1(   3)  ---------------------------------------


     EDDAV:  cpu time      0.3641: real time      0.3656
       DOS:  cpu time      0.0005: real time      0.0005
    --------------------------------------------
      LOOP:  cpu time      0.3647: real time      0.3661

 eigenvalue-minimisations  :  3184
 total energy-change (2. order) :-0.8950474E+01  (-0.8930496E+01)
 number of electron      40.0000000 magnetization 
 augmentation part       40.0000000 magnetization 

 Free energy of the ion-electron system (eV)
  ---------------------------------------------------
  alpha Z        PSCENC =        83.74935623
  Ewald energy   TEWEN  =     -1381.80399585
  -Hartree energ DENC   =      -147.80875053
  -exchange      EXHF   =         0.00000000
  -V(xc)+E(xc)   XCENC  =       -33.76899619
  PAW double counting   =      1193.78262552    -1080.73714043
  entropy T*S    EENTRO =        -0.00000000
  eigenvalues    EBANDS =      -116.03002726
  atomic energy  EATOM  =      1448.48460880
  Solvation  Ediel_sol  =         0.00000000
  ---------------------------------------------------
  free energy    TOTEN  =       -34.13231972 eV

  energy without entropy =      -34.13231972  energy(sigma->0) =      -34.13231972


--------------------------------------------------------------------------------------------------------




--------------------------------------- Iteration      1(   4)  ---------------------------------------


     EDDAV:  cpu time      0.4261: real time      0.4284
       DOS:  cpu time      0.0005: real time      0.0005
    --------------------------------------------
      LOOP:  cpu time      0.4266: real time      0.4290

 eigenvalue-minimisations  :  3264
 total energy-change (2. order) :-0.6388968E-01  (-0.6387597E-01)
 number of electron      40.0000000 magnetization 
 augmentation part       40.0000000 magnetization 

 Free energy of the ion-electron system (eV)
  ---------------------------------------------------
  alpha Z        PSCENC =        83.74935623
  Ewald energy   TEWEN  =     -1381.80399585
  -Hartree energ DENC   =      -147.80875053
  -exchange      EXHF   =         0.00000000
  -V(xc)+E(xc)   XCENC  =       -33.76899619
  PAW double counting   =      1193.78262552    -1080.73714043
  entropy T*S    EENTRO =        -0.00000000
  eigenvalues    EBANDS =      -116.09391694
  atomic energy  EATOM  =      1448.48460880
  Solvation  Ediel_sol  =         0.00000000
  ---------------------------------------------------
  free energy    TOTEN  =       -34.19620940 eV

  energy without entropy =      -34.19620940  energy(sigma->0) =      -34.19620940


--------------------------------------------------------------------------------------------------------




--------------------------------------- Iteration      1(   5)  ---------------------------------------


     EDDAV:  cpu time      0.3886: real time      0.3910
       DOS:  cpu time      0.0006: real time      0.0006
    CHARGE:  cpu time      0.0057: real time      0.0057
    MIXING:  cpu time      0.0004: real time      0.0004
    --------------------------------------------
      LOOP:  cpu time      0.3953: real time      0.3977

 eigenvalue-minimisations  :  3216
 total energy-change (2. order) :-0.4365361E-03  (-0.4365252E-03)
 number of electron      39.9999970 magnetization 
 augmentation part       -7.4233204 magnetization 

 Broyden mixing:
  rms(total) = 0.64456E+00    rms(broyden)= 0.64455E+00
  rms(prec ) = 0.72567E+00
  weight for this iteration     100.00

 Free energy of the ion-electron system (eV)
  ---------------------------------------------------
  alpha Z        PSCENC =        83.74935623
  Ewald energy   TEWEN  =     -1381.80399585
  -Hartree energ DENC   =      -147.80875053
  -exchange      EXHF   =         0.00000000
  -V(xc)+E(xc)   XCENC  =       -33.76899619
  PAW double counting   =      1193.78262552    -1080.73714043
  entropy T*S    EENTRO =        -0.00000000
  eigenvalues    EBANDS =      -116.09435348
  atomic energy  EATOM  =      1448.48460880
  Solvation  Ediel_sol  =         0.00000000
  ---------------------------------------------------
  free energy    TOTEN  =       -34.19664594 eV

  energy without entropy =      -34.19664594  energy(sigma->0) =      -34.19664594


--------------------------------------------------------------------------------------------------------




--------------------------------------- Iteration      1(   6)  ---------------------------------------


    POTLOK:  cpu time      0.0078: real time      0.0080
    SETDIJ:  cpu time      0.2176: real time      0.2180
     EDDAV:  cpu time      0.4310: real time      0.4332
       DOS:  cpu time      0.0005: real time      0.0005
    CHARGE:  cpu time      0.0054: real time      0.0054
    MIXING:  cpu time      0.0005: real time      0.0005
    --------------------------------------------
      LOOP:  cpu time      0.6628: real time      0.6656

 eigenvalue-minimisations  :  3168
 total energy-change (2. order) : 0.4039049E+00  (-0.8112287E-01)
 number of electron      39.9999971 magnetization 
 augmentation part       -7.3622854 magnetization 

 Broyden mixing:
  rms(total) = 0.40425E+00    rms(broyden)= 0.40425E+00
  rms(prec ) = 0.42508E+00
  weight for this iteration     100.00

 eigenvalues of (default mixing * dielectric matrix)
  average eigenvalue GAMMA=   2.1715
  2.1715

 Free energy of the ion-electron system (eV)
  ---------------------------------------------------
  alpha Z        PSCENC =        83.74935623
  Ewald energy   TEWEN  =     -1381.80399585
  -Hartree energ DENC   =      -154.14306751
  -exchange      EXHF   =         0.00000000
  -V(xc)+E(xc)   XCENC  =       -33.14337687
  PAW double counting   =      1454.18547551    -1341.45696906
  entropy T*S    EENTRO =        -0.00000000
  eigenvalues    EBANDS =      -109.66477232
  atomic energy  EATOM  =      1448.48460880
  Solvation  Ediel_sol  =         0.00000000
  ---------------------------------------------------
  free energy    TOTEN  =       -33.79274107 eV

  energy without entropy =      -33.79274107  energy(sigma->0) =      -33.79274107


--------------------------------------------------------------------------------------------------------




--------------------------------------- Iteration      1(   7)  ---------------------------------------


    POTLOK:  cpu time      0.0080: real time      0.0081
    SETDIJ:  cpu time      0.2175: real time      0.2182
     EDDAV:  cpu time      0.3696: real time      0.3714
       DOS:  cpu time      0.0005: real time      0.0005
    CHARGE:  cpu time      0.0053: real time      0.0054
    MIXING:  cpu time      0.0005: real time      0.0005
    --------------------------------------------
      LOOP:  cpu time      0.6014: real time      0.6041

 eigenvalue-minimisations  :  3232
 total energy-change (2. order) : 0.9368017E-02  (-0.2475634E-01)
 number of electron      39.9999971 magnetization 
 augmentation part       -7.3449589 magnetization 

 Broyden mixing:
  rms(total) = 0.13075E+00    rms(broyden)= 0.13074E+00
  rms(prec ) = 0.13933E+00
  weight for this iteration     100.00

 eigenvalues of (default mixing * dielectric matrix)
  average eigenvalue GAMMA=   1.8081
  1.2212  2.3950

 Free energy of the ion-electron system (eV)
  ---------------------------------------------------
  alpha Z        PSCENC =        83.74935623
  Ewald energy   TEWEN  =     -1381.80399585
  -Hartree energ DENC   =      -157.11533292
  -exchange      EXHF   =         0.00000000
  -V(xc)+E(xc)   XCENC  =       -32.64929655
  PAW double counting   =      1777.95131184    -1665.45712451
  entropy T*S    EENTRO =        -0.00000000
  eigenvalues    EBANDS =      -106.94290008
  atomic energy  EATOM  =      1448.48460880
  Solvation  Ediel_sol  =         0.00000000
  ---------------------------------------------------
  free energy    TOTEN  =       -33.78337305 eV

  energy without entropy =      -33.78337305  energy(sigma->0) =      -33.78337305


--------------------------------------------------------------------------------------------------------




--------------------------------------- Iteration      1(   8)  ---------------------------------------


    POTLOK:  cpu time      0.0078: real time      0.0079
    SETDIJ:  cpu time      0.2193: real time      0.2198
     EDDAV:  cpu time      0.3662: real time      0.3685
       DOS:  cpu time      0.0006: real time      0.0006
    CHARGE:  cpu time      0.0055: real time      0.0055
    MIXING:  cpu time      0.0005: real time      0.0005
    --------------------------------------------
      LOOP:  cpu time      0.5998: real time      0.6028

 eigenvalue-minimisations  :  3056
 total energy-change (2. order) : 0.1372782E-02  (-0.2648964E-02)
 number of electron      39.9999971 magnetization 
 augmentation part       -7.3547699 magnetization 

 Broyden mixing:
  rms(total) = 0.17653E-01    rms(broyden)= 0.17652E-01
  rms(prec ) = 0.21702E-01
  weight for this iteration     100.00

 eigenvalues of (default mixing * dielectric matrix)
  average eigenvalue GAMMA=   1.7015
  2.5046  1.3000  1.3000

 Free energy of the ion-electron system (eV)
  ---------------------------------------------------
  alpha Z        PSCENC =        83.74935623
  Ewald energy   TEWEN  =     -1381.80399585
  -Hartree energ DENC   =      -157.18542642
  -exchange      EXHF   =         0.00000000
  -V(xc)+E(xc)   XCENC  =       -32.50849697
  PAW double counting   =      1916.14172517    -1803.70261449
  entropy T*S    EENTRO =        -0.00000000
  eigenvalues    EBANDS =      -106.95715673
  atomic energy  EATOM  =      1448.48460880
  Solvation  Ediel_sol  =         0.00000000
  ---------------------------------------------------
  free energy    TOTEN  =       -33.78200027 eV

  energy without entropy =      -33.78200027  energy(sigma->0) =      -33.78200027


--------------------------------------------------------------------------------------------------------




--------------------------------------- Iteration      1(   9)  ---------------------------------------


    POTLOK:  cpu time      0.0077: real time      0.0079
    SETDIJ:  cpu time      0.2177: real time      0.2182
     EDDAV:  cpu time      0.3774: real time      0.3792
       DOS:  cpu time      0.0006: real time      0.0006
    CHARGE:  cpu time      0.0054: real time      0.0055
    MIXING:  cpu time      0.0005: real time      0.0005
    --------------------------------------------
      LOOP:  cpu time      0.6092: real time      0.6118

 eigenvalue-minimisations  :  3232
 total energy-change (2. order) :-0.3120079E-03  (-0.3932932E-03)
 number of electron      39.9999971 magnetization 
 augmentation part       -7.3522566 magnetization 

 Broyden mixing:
  rms(total) = 0.66008E-02    rms(broyden)= 0.66008E-02
  rms(prec ) = 0.74704E-02
  weight for this iteration     100.00

 eigenvalues of (default mixing * dielectric matrix)
  average eigenvalue GAMMA=   1.7621
  2.3431  2.3431  1.1812  1.1812

 Free energy of the ion-electron system (eV)
  ---------------------------------------------------
  alpha Z        PSCENC =        83.74935623
  Ewald energy   TEWEN  =     -1381.80399585
  -Hartree energ DENC   =      -157.61733676
  -exchange      EXHF   =         0.00000000
  -V(xc)+E(xc)   XCENC  =       -32.46540819
  PAW double counting   =      1928.55363196    -1816.12424407
  entropy T*S    EENTRO =        -0.00000000
  eigenvalues    EBANDS =      -106.55892439
  atomic energy  EATOM  =      1448.48460880
  Solvation  Ediel_sol  =         0.00000000
  ---------------------------------------------------
  free energy    TOTEN  =       -33.78231228 eV

  energy without entropy =      -33.78231228  energy(sigma->0) =      -33.78231228


--------------------------------------------------------------------------------------------------------




--------------------------------------- Iteration      1(  10)  ---------------------------------------


    POTLOK:  cpu time      0.0077: real time      0.0079
    SETDIJ:  cpu time      0.2173: real time      0.2179
     EDDAV:  cpu time      0.3562: real time      0.3586
       DOS:  cpu time      0.0006: real time      0.0006
    CHARGE:  cpu time      0.0054: real time      0.0054
    MIXING:  cpu time      0.0005: real time      0.0005
    --------------------------------------------
      LOOP:  cpu time      0.5876: real time      0.5909

 eigenvalue-minimisations  :  3040
 total energy-change (2. order) :-0.1335897E-03  (-0.3357826E-04)
 number of electron      39.9999971 magnetization 
 augmentation part       -7.3521984 magnetization 

 Broyden mixing:
  rms(total) = 0.23895E-02    rms(broyden)= 0.23895E-02
  rms(prec ) = 0.28749E-02
  weight for this iteration     100.00

 eigenvalues of (default mixing * dielectric matrix)
  average eigenvalue GAMMA=   1.7750
  2.7897  2.4806  1.1399  1.2323  1.2323

 Free energy of the ion-electron system (eV)
  ---------------------------------------------------
  alpha Z        PSCENC =        83.74935623
  Ewald energy   TEWEN  =     -1381.80399585
  -Hartree energ DENC   =      -157.65431914
  -exchange      EXHF   =         0.00000000
  -V(xc)+E(xc)   XCENC  =       -32.46157618
  PAW double counting   =      1921.84161515    -1809.40669409
  entropy T*S    EENTRO =        -0.00000000
  eigenvalues    EBANDS =      -106.53144078
  atomic energy  EATOM  =      1448.48460880
  Solvation  Ediel_sol  =         0.00000000
  ---------------------------------------------------
  free energy    TOTEN  =       -33.78244587 eV

  energy without entropy =      -33.78244587  energy(sigma->0) =      -33.78244587


--------------------------------------------------------------------------------------------------------




--------------------------------------- Iteration      1(  11)  ---------------------------------------


    POTLOK:  cpu time      0.0077: real time      0.0078
    SETDIJ:  cpu time      0.2181: real time      0.2186
     EDDAV:  cpu time      0.3793: real time      0.3815
       DOS:  cpu time      0.0005: real time      0.0005
    CHARGE:  cpu time      0.0141: real time      0.0141
    MIXING:  cpu time      0.0005: real time      0.0005
    --------------------------------------------
      LOOP:  cpu time      0.6201: real time      0.6230

 eigenvalue-minimisations  :  3088
 total energy-change (2. order) :-0.3280273E-04  (-0.4371012E-05)
 number of electron      39.9999971 magnetization 
 augmentation part       -7.3524066 magnetization 

 Broyden mixing:
  rms(total) = 0.12394E-02    rms(broyden)= 0.12394E-02
  rms(prec ) = 0.13913E-02
  weight for this iteration     100.00

 eigenvalues of (default mixing * dielectric matrix)
  average eigenvalue GAMMA=   1.7549
  2.6065  2.6065  2.0326  1.1650  1.1650  0.9541

 Free energy of the ion-electron system (eV)
  ---------------------------------------------------
  alpha Z        PSCENC =        83.74935623
  Ewald energy   TEWEN  =     -1381.80399585
  -Hartree energ DENC   =      -157.68535711
  -exchange      EXHF   =         0.00000000
  -V(xc)+E(xc)   XCENC  =       -32.45480168
  PAW double counting   =      1923.44054305    -1811.00595930
  entropy T*S    EENTRO =        -0.00000000
  eigenvalues    EBANDS =      -106.50687280
  atomic energy  EATOM  =      1448.48460880
  Solvation  Ediel_sol  =         0.00000000
  ---------------------------------------------------
  free energy    TOTEN  =       -33.78247867 eV

  energy without entropy =      -33.78247867  energy(sigma->0) =      -33.78247867


--------------------------------------------------------------------------------------------------------




--------------------------------------- Iteration      1(  12)  ---------------------------------------


    POTLOK:  cpu time      0.0076: real time      0.0077
    SETDIJ:  cpu time      0.2183: real time      0.2191
     EDDAV:  cpu time      0.4111: real time      0.4131
       DOS:  cpu time      0.0005: real time      0.0005
    --------------------------------------------
      LOOP:  cpu time      0.6376: real time      0.6405

 eigenvalue-minimisations  :  3296
 total energy-change (2. order) :-0.6746340E-06  (-0.6897521E-06)
 number of electron      39.9999971 magnetization 
 augmentation part       -7.3524066 magnetization 

 Free energy of the ion-electron system (eV)
  ---------------------------------------------------
  alpha Z        PSCENC =        83.74935623
  Ewald energy   TEWEN  =     -1381.80399585
  -Hartree energ DENC   =      -157.69797079
  -exchange      EXHF   =         0.00000000
  -V(xc)+E(xc)   XCENC  =       -32.45376712
  PAW double counting   =      1922.71143778    -1810.27667678
  entropy T*S    EENTRO =        -0.00000000
  eigenvalues    EBANDS =      -106.49547160
  atomic energy  EATOM  =      1448.48460880
  Solvation  Ediel_sol  =         0.00000000
  ---------------------------------------------------
  free energy    TOTEN  =       -33.78247934 eV

  energy without entropy =      -33.78247934  energy(sigma->0) =      -33.78247934


--------------------------------------------------------------------------------------------------------




 average (electrostatic) potential at core
  the test charge radii are     1.1631  1.0808
  (the norm of the test charge is              1.0000)
       1 -33.8076       2 -33.8076       3 -33.8076       4 -33.8076       5 -55.2931
       6 -55.2931       7 -55.2931       8 -55.2931
 
 
 
 E-fermi :   3.2355     XC(G=0):  -9.0676     alpha+bet : -8.3433

 Fermi energy:         3.2355119771

 k-point     1 :       0.0000    0.0000    0.0000
  band No.  band energies     occupation 
      1     -11.2300      2.00000
      2     -10.9945      2.00000
      3      -9.9773      2.00000
      4      -9.6130      2.00000
      5      -4.8377      2.00000
      6      -4.5784      2.00000
      7      -2.8466      2.00000
      8      -2.6346      2.00000
      9      -2.1170      2.00000
     10      -0.7377      2.00000
     11      -0.4745      2.00000
     12      -0.3715      2.00000
     13      -0.0854      2.00000
     14       0.1580      2.00000
     15       0.9147      2.00000
     16       1.1354      2.00000
     17       1.5055      2.00000
     18       1.7604      2.00000
     19       2.2890      2.00000
     20       2.4896      2.00000
     21       3.8236      0.00000
     22       5.5439      0.00000
     23       5.5675      0.00000
     24       5.7441      0.00000
     25       6.0403      0.00000
     26       6.0460      0.00000
     27       6.7327      0.00000
     28       6.8611      0.00000
     29       7.7259      0.00000
     30       8.2566      0.00000
     31       8.3603      0.00000
     32       8.7529      0.00000

 k-point     2 :       0.1667    0.0000    0.0000
  band No.  band energies     occupation 
      1     -11.0432      2.00000
      2     -10.8184      2.00000
      3      -9.8695      2.00000
      4      -9.5499      2.00000
      5      -5.0642      2.00000
      6      -4.8007      2.00000
      7      -3.3767      2.00000
      8      -3.0458      2.00000
      9      -1.9033      2.00000
     10      -0.5502      2.00000
     11      -0.5397      2.00000
     12      -0.3035      2.00000
     13      -0.1225      2.00000
     14       0.0080      2.00000
     15       0.8927      2.00000
     16       0.9941      2.00000
     17       1.2948      2.00000
     18       2.0787      2.00000
     19       2.2124      2.00000
     20       2.3928      2.00000
     21       3.8874      0.00000
     22       5.3345      0.00000
     23       5.3674      0.00000
     24       6.1749      0.00000
     25       6.2318      0.00000
     26       6.2797      0.00000
     27       6.4652      0.00000
     28       6.4897      0.00000
     29       7.2042      0.00000
     30       7.5462      0.00000
     31       7.6337      0.00000
     32       8.7060      0.00000

 k-point     3 :       0.3333    0.0000    0.0000
  band No.  band energies     occupation 
      1     -10.5345      2.00000
      2     -10.3517      2.00000
      3      -9.6963      2.00000
      4      -9.5291      2.00000
      5      -5.5162      2.00000
      6      -5.1924      2.00000
      7      -4.5263      2.00000
      8      -4.0736      2.00000
      9      -1.3014      2.00000
     10      -0.5260      2.00000
     11      -0.2569      2.00000
     12       0.1040      2.00000
     13       0.1777      2.00000
     14       0.3178      2.00000
     15       0.9006      2.00000
     16       0.9522      2.00000
     17       1.4571      2.00000
     18       1.6594      2.00000
     19       2.2350      2.00000
     20       2.2761      2.00000
     21       4.0545      0.00000
     22       4.1315      0.00000
     23       4.2174      0.00000
     24       5.0805      0.00000
     25       5.3193      0.00000
     26       5.3663      0.00000
     27       5.5772      0.00000
     28       6.2844      0.00000
     29       6.6305      0.00000
     30       6.6790      0.00000
     31       6.8909      0.00000
     32       8.3582      0.00000

 k-point     4 :       0.5000    0.0000    0.0000
  band No.  band energies     occupation 
      1      -9.9101      2.00000
      2      -9.9101      2.00000
      3      -9.8324      2.00000
      4      -9.8324      2.00000
      5      -5.4349      2.00000
      6      -5.4349      2.00000
      7      -4.9960      2.00000
      8      -4.9960      2.00000
      9      -0.5425      2.00000
     10      -0.5425      2.00000
     11       0.1713      2.00000
     12       0.1713      2.00000
     13       0.4715      2.00000
     14       0.4716      2.00000
     15       0.8869      2.00000
     16       0.8869      2.00000
     17       1.5628      2.00000
     18       1.5628      2.00000
     19       1.9640      2.00000
     20       1.9640      2.00000
     21       3.9650      0.00000
     22       3.9650      0.00000
     23       4.2531      0.00000
     24       4.2531      0.00000
     25       4.9131      0.00000
     26       4.9131      0.00000
     27       5.2486      0.00000
     28       5.2486      0.00000
     29       5.8033      0.00000
     30       5.8033      0.00000
     31       7.6711      0.00000
     32       7.6711      0.00000

 k-point     5 :       0.0000    0.1667    0.0000
  band No.  band energies     occupation 
      1     -11.1183      2.00000
      2     -10.8844      2.00000
      3      -9.9964      2.00000
      4      -9.6580      2.00000
      5      -5.1587      2.00000
      6      -4.7145      2.00000
      7      -3.5646      2.00000
      8      -3.1146      2.00000
      9      -1.8668      2.00000
     10      -0.3289      2.00000
     11       0.0114      2.00000
     12       0.0489      2.00000
     13       0.0666      2.00000
     14       0.2918      2.00000
     15       1.1630      2.00000
     16       1.3901      2.00000
     17       1.5250      2.00000
     18       1.7823      2.00000
     19       2.1998      2.00000
     20       2.6076      2.00000
     21       3.7706      0.00000
     22       5.1042      0.00000
     23       5.5741      0.00000
     24       5.6063      0.00000
     25       5.7269      0.00000
     26       6.1798      0.00000
     27       6.5048      0.00000
     28       6.5450      0.00000
     29       7.3139      0.00000
     30       7.4876      0.00000
     31       7.8976      0.00000
     32       8.7057      0.00000

 k-point     6 :       0.1667    0.1667    0.0000
  band No.  band energies     occupation 
      1     -10.9373      2.00000
      2     -10.7140      2.00000
      3      -9.8884      2.00000
      4      -9.5910      2.00000
      5      -5.2228      2.00000
      6      -4.8434      2.00000
      7      -3.7293      2.00000
      8      -3.4210      2.00000
      9      -1.7132      2.00000
     10      -1.0628      2.00000
     11      -0.8056      2.00000
     12      -0.1083      2.00000
     13       0.3989      2.00000
     14       0.6006      2.00000
     15       0.8115      2.00000
     16       0.9038      2.00000
     17       1.7453      2.00000
     18       1.9326      2.00000
     19       2.3857      2.00000
     20       2.4347      2.00000
     21       3.9336      0.00000
     22       4.7872      0.00000
     23       5.2242      0.00000
     24       5.4773      0.00000
     25       6.0843      0.00000
     26       6.4494      0.00000
     27       6.5871      0.00000
     28       6.8060      0.00000
     29       7.2122      0.00000
     30       7.2783      0.00000
     31       7.5095      0.00000
     32       8.5641      0.00000

 k-point     7 :       0.1667   -0.1667    0.0000
  band No.  band energies     occupation 
      1     -10.9366      2.00000
      2     -10.7146      2.00000
      3      -9.8890      2.00000
      4      -9.5897      2.00000
      5      -5.2461      2.00000
      6      -4.8206      2.00000
      7      -3.8038      2.00000
      8      -3.3357      2.00000
      9      -1.7042      2.00000
     10      -1.0575      2.00000
     11      -0.7840      2.00000
     12      -0.1581      2.00000
     13       0.4184      2.00000
     14       0.6374      2.00000
     15       0.7040      2.00000
     16       0.9486      2.00000
     17       1.7561      2.00000
     18       1.8606      2.00000
     19       2.3211      2.00000
     20       2.6092      2.00000
     21       3.8834      0.00000
     22       4.8087      0.00000
     23       5.1537      0.00000
     24       5.4670      0.00000
     25       6.0915      0.00000
     26       6.5368      0.00000
     27       6.6291      0.00000
     28       6.9110      0.00000
     29       7.0076      0.00000
     30       7.3069      0.00000
     31       7.4781      0.00000
     32       8.8386      0.00000

 k-point     8 :       0.3333    0.1667    0.0000
  band No.  band energies     occupation 
      1     -10.4495      2.00000
      2     -10.2688      2.00000
      3      -9.7033      2.00000
      4      -9.5463      2.00000
      5      -5.4430      2.00000
      6      -5.1187      2.00000
      7      -4.5285      2.00000
      8      -4.1720      2.00000
      9      -1.3322      2.00000
     10      -1.2260      2.00000
     11      -1.0462      2.00000
     12      -0.2108      2.00000
     13       0.3184      2.00000
     14       0.5216      2.00000
     15       0.6182      2.00000
     16       1.0164      2.00000
     17       1.0742      2.00000
     18       1.8442      2.00000
     19       1.9656      2.00000
     20       2.2396      2.00000
     21       3.9377      0.00000
     22       4.6433      0.00000
     23       4.8170      0.00000
     24       4.9569      0.00000
     25       5.3046      0.00000
     26       6.0433      0.00000
     27       6.3735      0.00000
     28       6.8004      0.00000
     29       6.8452      0.00000
     30       7.2481      0.00000
     31       7.9595      0.00000
     32       8.0226      0.00000

 k-point     9 :       0.3333   -0.1667    0.0000
  band No.  band energies     occupation 
      1     -10.4472      2.00000
      2     -10.2709      2.00000
      3      -9.7073      2.00000
      4      -9.5411      2.00000
      5      -5.4716      2.00000
      6      -5.0904      2.00000
      7      -4.5792      2.00000
      8      -4.1159      2.00000
      9      -1.3575      2.00000
     10      -1.2080      2.00000
     11      -0.9878      2.00000
     12      -0.2346      2.00000
     13       0.2888      2.00000
     14       0.5012      2.00000
     15       0.5211      2.00000
     16       1.0524      2.00000
     17       1.2043      2.00000
     18       1.7781      2.00000
     19       1.8426      2.00000
     20       2.4157      2.00000
     21       3.8900      0.00000
     22       4.5842      0.00000
     23       4.8300      0.00000
     24       4.9313      0.00000
     25       5.4017      0.00000
     26       6.0694      0.00000
     27       6.4860      0.00000
     28       6.5403      0.00000
     29       6.8669      0.00000
     30       7.2682      0.00000
     31       7.9171      0.00000
     32       8.3318      0.00000

 k-point    10 :       0.5000    0.1667    0.0000
  band No.  band energies     occupation 
      1      -9.8745      2.00000
      2      -9.8644      2.00000
      3      -9.8015      2.00000
      4      -9.7909      2.00000
      5      -5.3437      2.00000
      6      -5.3390      2.00000
      7      -4.9360      2.00000
      8      -4.9306      2.00000
      9      -0.8399      2.00000
     10      -0.8063      2.00000
     11      -0.4994      2.00000
     12      -0.3825      2.00000
     13      -0.1574      2.00000
     14      -0.0399      2.00000
     15       0.7292      2.00000
     16       0.7602      2.00000
     17       1.0802      2.00000
     18       1.1343      2.00000
     19       2.0841      2.00000
     20       2.1812      2.00000
     21       4.0639      0.00000
     22       4.0927      0.00000
     23       4.9673      0.00000
     24       5.0401      0.00000
     25       5.6883      0.00000
     26       5.8055      0.00000
     27       5.9736      0.00000
     28       6.0659      0.00000
     29       6.7439      0.00000
     30       6.8215      0.00000
     31       7.4542      0.00000
     32       7.4853      0.00000

 k-point    11 :       0.0000    0.3333    0.0000
  band No.  band energies     occupation 
      1     -10.8149      2.00000
      2     -10.5826      2.00000
      3     -10.1201      2.00000
      4      -9.8382      2.00000
      5      -5.5003      2.00000
      6      -4.8910      2.00000
      7      -4.6030      2.00000
      8      -3.9940      2.00000
      9      -1.3486      2.00000
     10       0.0846      2.00000
     11       0.4184      2.00000
     12       0.6547      2.00000
     13       0.6791      2.00000
     14       0.8743      2.00000
     15       1.1450      2.00000
     16       1.4279      2.00000
     17       1.6263      2.00000
     18       2.1957      2.00000
     19       2.4196      2.00000
     20       2.9684      2.00000
     21       4.0089      0.00000
     22       4.2196      0.00000
     23       4.6360      0.00000
     24       5.2313      0.00000
     25       5.5316      0.00000
     26       5.6911      0.00000
     27       6.0480      0.00000
     28       6.2769      0.00000
     29       6.3494      0.00000
     30       6.9034      0.00000
     31       7.3890      0.00000
     32       8.6613      0.00000

 k-point    12 :       0.1667    0.3333    0.0000
  band No.  band energies     occupation 
      1     -10.6509      2.00000
      2     -10.4306      2.00000
      3     -10.0040      2.00000
      4      -9.7527      2.00000
      5      -5.4148      2.00000
      6      -4.8552      2.00000
      7      -4.5492      2.00000
      8      -4.0554      2.00000
      9      -1.2273      2.00000
     10      -1.0433      2.00000
     11      -0.7870      2.00000
     12       0.0402      2.00000
     13       0.1174      2.00000
     14       0.5725      2.00000
     15       0.8081      2.00000
     16       1.3433      2.00000
     17       1.7898      2.00000
     18       2.2368      2.00000
     19       2.3795      2.00000
     20       2.4474      2.00000
     21       4.1636      0.00000
     22       4.8383      0.00000
     23       5.2904      0.00000
     24       5.3754      0.00000
     25       5.4567      0.00000
     26       6.0545      0.00000
     27       6.5028      0.00000
     28       6.8842      0.00000
     29       7.1857      0.00000
     30       7.4133      0.00000
     31       7.6496      0.00000
     32       8.3042      0.00000

 k-point    13 :       0.1667   -0.3333    0.0000
  band No.  band energies     occupation 
      1     -10.6494      2.00000
      2     -10.4320      2.00000
      3     -10.0054      2.00000
      4      -9.7505      2.00000
      5      -5.4220      2.00000
      6      -4.8510      2.00000
      7      -4.5903      2.00000
      8      -4.0073      2.00000
      9      -1.2105      2.00000
     10      -1.0090      2.00000
     11      -0.7849      2.00000
     12      -0.0626      2.00000
     13       0.1829      2.00000
     14       0.4399      2.00000
     15       0.8185      2.00000
     16       1.4747      2.00000
     17       1.9263      2.00000
     18       2.1584      2.00000
     19       2.2911      2.00000
     20       2.4472      2.00000
     21       4.1397      0.00000
     22       4.8183      0.00000
     23       5.2467      0.00000
     24       5.3550      0.00000
     25       5.5190      0.00000
     26       6.1438      0.00000
     27       6.5435      0.00000
     28       6.7386      0.00000
     29       7.1741      0.00000
     30       7.4954      0.00000
     31       7.5378      0.00000
     32       8.5987      0.00000

 k-point    14 :       0.3333    0.3333    0.0000
  band No.  band energies     occupation 
      1     -10.2261      2.00000
      2     -10.0542      2.00000
      3      -9.7697      2.00000
      4      -9.6243      2.00000
      5      -5.2871      2.00000
      6      -4.8898      2.00000
      7      -4.6816      2.00000
      8      -4.3872      2.00000
      9      -1.8912      2.00000
     10      -1.5434      2.00000
     11      -1.1902      2.00000
     12      -0.7213      2.00000
     13      -0.5864      2.00000
     14       0.1417      2.00000
     15       0.3004      2.00000
     16       0.5427      2.00000
     17       0.8761      2.00000
     18       1.5542      2.00000
     19       1.8878      2.00000
     20       2.1071      2.00000
     21       4.2311      0.00000
     22       5.5682      0.00000
     23       5.8263      0.00000
     24       5.9249      0.00000
     25       6.4860      0.00000
     26       6.6045      0.00000
     27       7.0225      0.00000
     28       7.3512      0.00000
     29       7.7273      0.00000
     30       8.0508      0.00000
     31       8.0655      0.00000
     32       8.9024      0.00000

 k-point    15 :       0.3333   -0.3333    0.0000
  band No.  band energies     occupation 
      1     -10.2213      2.00000
      2     -10.0590      2.00000
      3      -9.7767      2.00000
      4      -9.6159      2.00000
      5      -5.3060      2.00000
      6      -4.8729      2.00000
      7      -4.7553      2.00000
      8      -4.3030      2.00000
      9      -1.8953      2.00000
     10      -1.5087      2.00000
     11      -1.2073      2.00000
     12      -0.6940      2.00000
     13      -0.5879      2.00000
     14       0.0271      2.00000
     15       0.1697      2.00000
     16       0.7743      2.00000
     17       1.0258      2.00000
     18       1.3001      2.00000
     19       1.7122      2.00000
     20       2.4242      2.00000
     21       4.1433      0.00000
     22       5.5762      0.00000
     23       5.6789      0.00000
     24       5.9782      0.00000
     25       6.4962      0.00000
     26       6.7367      0.00000
     27       6.9522      0.00000
     28       7.5483      0.00000
     29       7.6168      0.00000
     30       7.8932      0.00000
     31       8.1214      0.00000
     32       8.9180      0.00000

 k-point    16 :       0.5000    0.3333    0.0000
  band No.  band energies     occupation 
      1      -9.7947      2.00000
      2      -9.7724      2.00000
      3      -9.7339      2.00000
      4      -9.7107      2.00000
      5      -5.1343      2.00000
      6      -5.1219      2.00000
      7      -4.8133      2.00000
      8      -4.7988      2.00000
      9      -1.5383      2.00000
     10      -1.5211      2.00000
     11      -1.1678      2.00000
     12      -1.1197      2.00000
     13      -0.6455      2.00000
     14      -0.6411      2.00000
     15       0.0119      2.00000
     16       0.0149      2.00000
     17       0.6339      2.00000
     18       0.8524      2.00000
     19       1.8036      2.00000
     20       2.0935      2.00000
     21       4.9799      0.00000
     22       5.0214      0.00000
     23       6.3939      0.00000
     24       6.3949      0.00000
     25       6.6992      0.00000
     26       6.7132      0.00000
     27       7.2722      0.00000
     28       7.3058      0.00000
     29       7.6944      0.00000
     30       7.7105      0.00000
     31       8.3209      0.00000
     32       8.4785      0.00000

 k-point    17 :       0.0000    0.5000    0.0000
  band No.  band energies     occupation 
      1     -10.4251      2.00000
      2     -10.4251      2.00000
      3     -10.1830      2.00000
      4     -10.1830      2.00000
      5      -5.3273      2.00000
      6      -5.3273      2.00000
      7      -4.6670      2.00000
      8      -4.6670      2.00000
      9      -0.6122      2.00000
     10      -0.6122      2.00000
     11       0.8680      2.00000
     12       0.8680      2.00000
     13       1.1016      2.00000
     14       1.1016      2.00000
     15       1.3071      2.00000
     16       1.3071      2.00000
     17       2.1860      2.00000
     18       2.1860      2.00000
     19       2.5568      2.00000
     20       2.5568      2.00000
     21       4.2695      0.00000
     22       4.2695      0.00000
     23       4.8561      0.00000
     24       4.8561      0.00000
     25       5.1785      0.00000
     26       5.1785      0.00000
     27       5.5852      0.00000
     28       5.5852      0.00000
     29       6.1625      0.00000
     30       6.1625      0.00000
     31       8.1854      0.00000
     32       8.1854      0.00000

 k-point    18 :       0.1667    0.5000    0.0000
  band No.  band energies     occupation 
      1     -10.2874      2.00000
      2     -10.2855      2.00000
      3     -10.0640      2.00000
      4     -10.0619      2.00000
      5      -5.2202      2.00000
      6      -5.2067      2.00000
      7      -4.6119      2.00000
      8      -4.5941      2.00000
      9      -0.7320      2.00000
     10      -0.6987      2.00000
     11      -0.4378      2.00000
     12      -0.4372      2.00000
     13      -0.1103      2.00000
     14      -0.0418      2.00000
     15       1.1218      2.00000
     16       1.2223      2.00000
     17       1.9437      2.00000
     18       2.1149      2.00000
     19       2.4201      2.00000
     20       2.5498      2.00000
     21       4.5085      0.00000
     22       4.5404      0.00000
     23       5.3746      0.00000
     24       5.3765      0.00000
     25       5.8905      0.00000
     26       5.9844      0.00000
     27       6.6436      0.00000
     28       6.7256      0.00000
     29       7.0089      0.00000
     30       7.1226      0.00000
     31       7.9181      0.00000
     32       8.0585      0.00000

 k-point    19 :       0.3333    0.5000    0.0000
  band No.  band energies     occupation 
      1      -9.9623      2.00000
      2      -9.9553      2.00000
      3      -9.8075      2.00000
      4      -9.7998      2.00000
      5      -5.0453      2.00000
      6      -5.0187      2.00000
      7      -4.6250      2.00000
      8      -4.5904      2.00000
      9      -1.7603      2.00000
     10      -1.7308      2.00000
     11      -1.3344      2.00000
     12      -1.3291      2.00000
     13      -0.4186      2.00000
     14      -0.3445      2.00000
     15       0.2860      2.00000
     16       0.4295      2.00000
     17       0.7014      2.00000
     18       0.9841      2.00000
     19       1.8562      2.00000
     20       2.1221      2.00000
     21       5.0237      0.00000
     22       5.0321      0.00000
     23       6.5970      0.00000
     24       6.7532      0.00000
     25       7.1314      0.00000
     26       7.1634      0.00000
     27       7.5153      0.00000
     28       7.5798      0.00000
     29       7.9871      0.00000
     30       8.0170      0.00000
     31       8.5942      0.00000
     32       8.6678      0.00000

 k-point    20 :       0.5000    0.5000    0.0000
  band No.  band energies     occupation 
      1      -9.7526      2.00000
      2      -9.7199      2.00000
      3      -9.7031      2.00000
      4      -9.6693      2.00000
      5      -5.0131      2.00000
      6      -4.9927      2.00000
      7      -4.7567      2.00000
      8      -4.7328      2.00000
      9      -1.8068      2.00000
     10      -1.7943      2.00000
     11      -1.4505      2.00000
     12      -1.4222      2.00000
     13      -0.9581      2.00000
     14      -0.8733      2.00000
     15      -0.4095      2.00000
     16      -0.3729      2.00000
     17       0.5853      2.00000
     18       0.9072      2.00000
[...]
     32       7.4175      0.00000

 k-point    32 :       0.1667    0.3333    0.5000
  band No.  band energies     occupation 
      1     -10.5608      2.00000
      2     -10.5608      2.00000
      3      -9.8585      2.00000
      4      -9.8585      2.00000
      5      -5.1846      2.00000
      6      -5.1846      2.00000
      7      -4.2872      2.00000
      8      -4.2872      2.00000
      9      -0.9625      2.00000
     10      -0.9625      2.00000
     11      -0.4239      2.00000
     12      -0.4239      2.00000
     13       0.1626      2.00000
     14       0.1626      2.00000
     15       1.1405      2.00000
     16       1.1405      2.00000
     17       1.8891      2.00000
     18       1.8891      2.00000
     19       2.3549      2.00000
     20       2.3549      2.00000
     21       4.9051      0.00000
     22       4.9051      0.00000
     23       5.4556      0.00000
     24       5.4556      0.00000
     25       5.8891      0.00000
     26       5.8891      0.00000
     27       6.4252      0.00000
     28       6.4252      0.00000
     29       7.1335      0.00000
     30       7.1335      0.00000
     31       7.6121      0.00000
     32       7.6121      0.00000

 k-point    33 :       0.1667   -0.3333    0.5000
  band No.  band energies     occupation 
      1     -10.5605      2.00000
      2     -10.5605      2.00000
      3      -9.8585      2.00000
      4      -9.8585      2.00000
      5      -5.1924      2.00000
      6      -5.1924      2.00000
      7      -4.2802      2.00000
      8      -4.2802      2.00000
      9      -0.9883      2.00000
     10      -0.9883      2.00000
     11      -0.3741      2.00000
     12      -0.3741      2.00000
     13       0.1938      2.00000
     14       0.1938      2.00000
     15       1.0772      2.00000
     16       1.0772      2.00000
     17       1.9611      2.00000
     18       1.9611      2.00000
     19       2.2549      2.00000
     20       2.2549      2.00000
     21       4.9219      0.00000
     22       4.9219      0.00000
     23       5.4629      0.00000
     24       5.4629      0.00000
     25       5.8780      0.00000
     26       5.8780      0.00000
     27       6.4108      0.00000
     28       6.4108      0.00000
     29       7.2846      0.00000
     30       7.2846      0.00000
     31       7.6326      0.00000
     32       7.6326      0.00000

 k-point    34 :       0.3333    0.3333    0.5000
  band No.  band energies     occupation 
      1     -10.1547      2.00000
      2     -10.1547      2.00000
      3      -9.6824      2.00000
      4      -9.6824      2.00000
      5      -5.1104      2.00000
      6      -5.1104      2.00000
      7      -4.5313      2.00000
      8      -4.5313      2.00000
      9      -1.7271      2.00000
     10      -1.7271      2.00000
     11      -0.9329      2.00000
     12      -0.9329      2.00000
     13      -0.2565      2.00000
     14      -0.2565      2.00000
     15       0.5984      2.00000
     16       0.5984      2.00000
     17       0.9871      2.00000
     18       0.9871      2.00000
     19       1.9622      2.00000
     20       1.9622      2.00000
     21       5.2242      0.00000
     22       5.2242      0.00000
     23       5.8650      0.00000
     24       5.8650      0.00000
     25       6.3805      0.00000
     26       6.3805      0.00000
     27       6.9926      0.00000
     28       6.9926      0.00000
     29       7.5812      0.00000
     30       7.5812      0.00000
     31       8.8897      0.00000
     32       8.8897      0.00000

 k-point    35 :       0.3333   -0.3333    0.5000
  band No.  band energies     occupation 
      1     -10.1542      2.00000
      2     -10.1542      2.00000
      3      -9.6826      2.00000
      4      -9.6826      2.00000
      5      -5.1276      2.00000
      6      -5.1275      2.00000
      7      -4.5128      2.00000
      8      -4.5128      2.00000
      9      -1.7436      2.00000
     10      -1.7436      2.00000
     11      -0.9037      2.00000
     12      -0.9036      2.00000
     13      -0.2424      2.00000
     14      -0.2424      2.00000
     15       0.5711      2.00000
     16       0.5711      2.00000
     17       1.0218      2.00000
     18       1.0218      2.00000
     19       1.8958      2.00000
     20       1.8958      2.00000
     21       5.2130      0.00000
     22       5.2130      0.00000
     23       5.9148      0.00000
     24       5.9148      0.00000
     25       6.4105      0.00000
     26       6.4105      0.00000
     27       7.0847      0.00000
     28       7.0847      0.00000
     29       7.5769      0.00000
     30       7.5769      0.00000
     31       8.7590      0.00000
     32       8.7590      0.00000

 k-point    36 :       0.5000    0.3333    0.5000
  band No.  band energies     occupation 
      1      -9.7780      2.00000
      2      -9.7780      2.00000
      3      -9.7284      2.00000
      4      -9.7284      2.00000
      5      -5.0043      2.00000
      6      -5.0043      2.00000
      7      -4.9452      2.00000
      8      -4.9452      2.00000
      9      -1.3787      2.00000
     10      -1.3787      2.00000
     11      -1.2890      2.00000
     12      -1.2890      2.00000
     13      -0.4513      2.00000
     14      -0.4513      2.00000
     15      -0.3249      2.00000
     16      -0.3249      2.00000
     17       1.3081      2.00000
     18       1.3081      2.00000
     19       1.4365      2.00000
     20       1.4365      2.00000
     21       5.6388      0.00000
     22       5.6388      0.00000
     23       5.9060      0.00000
     24       5.9060      0.00000
     25       6.6252      0.00000
     26       6.6252      0.00000
     27       6.7589      0.00000
     28       6.7589      0.00000
     29       8.2219      0.00000
     30       8.2219      0.00000
     31       8.3525      0.00000
     32       8.3525      0.00000

 k-point    37 :       0.0000    0.5000    0.5000
  band No.  band energies     occupation 
      1     -10.4223      2.00000
      2     -10.4223      2.00000
      3     -10.1866      2.00000
      4     -10.1866      2.00000
      5      -5.2185      2.00000
      6      -5.2185      2.00000
      7      -4.8196      2.00000
      8      -4.8196      2.00000
      9      -0.0327      2.00000
     10      -0.0327      2.00000
     11       0.4284      2.00000
     12       0.4284      2.00000
     13       0.8734      2.00000
     14       0.8734      2.00000
     15       1.1072      2.00000
     16       1.1072      2.00000
     17       2.4379      2.00000
     18       2.4379      2.00000
     19       2.4451      2.00000
     20       2.4451      2.00000
     21       4.3048      0.00000
     22       4.3048      0.00000
     23       4.8114      0.00000
     24       4.8114      0.00000
     25       5.6149      0.00000
     26       5.6149      0.00000
     27       6.0968      0.00000
     28       6.0968      0.00000
     29       6.1634      0.00000
     30       6.1634      0.00000
     31       7.0856      0.00000
     32       7.0856      0.00000

 k-point    38 :       0.1667    0.5000    0.5000
  band No.  band energies     occupation 
      1     -10.2837      2.00000
      2     -10.2837      2.00000
      3     -10.0664      2.00000
      4     -10.0664      2.00000
      5      -5.1131      2.00000
      6      -5.1131      2.00000
      7      -4.7398      2.00000
      8      -4.7398      2.00000
      9      -0.5573      2.00000
     10      -0.5573      2.00000
     11      -0.4767      2.00000
     12      -0.4767      2.00000
     13       0.4055      2.00000
     14       0.4055      2.00000
     15       0.4863      2.00000
     16       0.4863      2.00000
     17       1.9977      2.00000
     18       1.9977      2.00000
     19       2.3450      2.00000
     20       2.3450      2.00000
     21       5.1652      0.00000
     22       5.1652      0.00000
     23       5.4379      0.00000
     24       5.4379      0.00000
     25       6.0350      0.00000
     26       6.0350      0.00000
     27       6.6502      0.00000
     28       6.6502      0.00000
     29       7.0328      0.00000
     30       7.0328      0.00000
     31       7.2212      0.00000
     32       7.2212      0.00000

 k-point    39 :       0.3333    0.5000    0.5000
  band No.  band energies     occupation 
      1      -9.9562      2.00000
      2      -9.9562      2.00000
      3      -9.8068      2.00000
      4      -9.8068      2.00000
      5      -4.9533      2.00000
      6      -4.9533      2.00000
      7      -4.7039      2.00000
      8      -4.7039      2.00000
      9      -1.6133      2.00000
     10      -1.6133      2.00000
     11      -1.5163      2.00000
     12      -1.5163      2.00000
     13      -0.0409      2.00000
     14      -0.0409      2.00000
     15       0.0498      2.00000
     16       0.0498      2.00000
     17       1.1206      2.00000
     18       1.1206      2.00000
     19       1.6000      2.00000
     20       1.6000      2.00000
     21       5.6712      0.00000
     22       5.6712      0.00000
     23       6.2132      0.00000
     24       6.2132      0.00000
     25       6.9969      0.00000
     26       6.9969      0.00000
     27       7.1859      0.00000
     28       7.1859      0.00000
     29       8.4151      0.00000
     30       8.4151      0.00000
     31       8.6675      0.00000
     32       8.6675      0.00000

 k-point    40 :       0.5000    0.5000    0.5000
  band No.  band energies     occupation 
      1      -9.7360      2.00000
      2      -9.7360      2.00000
      3      -9.6867      2.00000
      4      -9.6867      2.00000
      5      -4.8863      2.00000
      6      -4.8863      2.00000
      7      -4.8730      2.00000
      8      -4.8730      2.00000
      9      -1.6431      2.00000
     10      -1.6431      2.00000
     11      -1.5372      2.00000
     12      -1.5372      2.00000
     13      -0.8238      2.00000
     14      -0.8238      2.00000
     15      -0.7045      2.00000
     16      -0.7045      2.00000
     17       1.3143      2.00000
     18       1.3143      2.00000
     19       1.4384      2.00000
     20       1.4384      2.00000
     21       5.5857      0.00000
     22       5.5857      0.00000
     23       5.9371      0.00000
     24       5.9371      0.00000
     25       7.5787      0.00000
     26       7.5787      0.00000
     27       7.6503      0.00000
     28       7.6503      0.00000
     29       8.8197      0.00000
     30       8.8197      0.00000
     31       9.2744      0.00000
     32       9.2744      0.00000


--------------------------------------------------------------------------------------------------------


 soft charge-density along one line, spin component            1
         0         1         2         3         4         5         6         7         8         9
 total charge-density along one line
 
 pseudopotential strength for first ion, spin component:            1
 14.613  18.234   0.044   0.046   0.000   0.078   0.084   0.000
 18.234  22.767   0.055   0.059   0.000   0.099   0.106   0.000
  0.044   0.055   3.240  -0.003   0.000   5.516  -0.005   0.000
  0.046   0.059  -0.003   3.239   0.000  -0.005   5.514   0.000
  0.000   0.000   0.000   0.000   3.241   0.000   0.000   5.519
  0.078   0.099   5.516  -0.005   0.000   9.450  -0.008   0.000
  0.084   0.106  -0.005   5.514   0.000  -0.008   9.447   0.000
  0.000   0.000   0.000   0.000   5.519   0.000   0.000   9.455
  0.000   0.000   0.000  -0.000   0.007   0.000  -0.000   0.014
 -0.006  -0.007   0.012   0.013  -0.000   0.022   0.024  -0.000
 -0.002  -0.003  -0.004   0.012  -0.000  -0.008   0.022  -0.000
  0.000   0.000  -0.000   0.000   0.012  -0.000   0.000   0.022
  0.002   0.002  -0.013  -0.000   0.000  -0.023  -0.000   0.000
 total augmentation occupancy for first ion, spin component:            1
  2.700  -0.682   0.349   0.380   0.001  -0.063  -0.070  -0.000  -0.000  -0.013  -0.006  -0.000   0.008
 -0.682   0.660  -0.452  -0.491  -0.001   0.071   0.077   0.000   0.000   0.009   0.005   0.000  -0.004
  0.349  -0.452   1.238   0.054  -0.001  -0.202   0.004   0.000   0.000   0.041  -0.094   0.001  -0.000
  0.380  -0.491   0.054   1.262  -0.002   0.004  -0.204   0.000   0.000  -0.016   0.107   0.000  -0.003
  0.001  -0.001  -0.001  -0.002   1.233   0.000   0.000  -0.211   0.146   0.000  -0.000   0.037   0.000
 -0.063   0.071  -0.202   0.004   0.000   0.037  -0.003  -0.000  -0.000  -0.007   0.016  -0.000   0.000
 -0.070   0.077   0.004  -0.204   0.000  -0.003   0.037  -0.000  -0.000   0.003  -0.019  -0.000   0.000
 -0.000   0.000   0.000   0.000  -0.211  -0.000  -0.000   0.040  -0.025  -0.000   0.000  -0.006  -0.000
 -0.000   0.000   0.000   0.000   0.146  -0.000  -0.000  -0.025   0.031  -0.000   0.000   0.002   0.000
 -0.013   0.009   0.041  -0.016   0.000  -0.007   0.003  -0.000  -0.000   0.011  -0.007  -0.000   0.001
 -0.006   0.005  -0.094   0.107  -0.000   0.016  -0.019   0.000   0.000  -0.007   0.031   0.000  -0.002
 -0.000   0.000   0.001   0.000   0.037  -0.000  -0.000  -0.006   0.002  -0.000   0.000   0.009  -0.000
  0.008  -0.004  -0.000  -0.003   0.000   0.000   0.000  -0.000   0.000   0.001  -0.002  -0.000   0.008


------------------------ aborting loop because EDIFF is reached ----------------------------------------


    CHARGE:  cpu time      0.0056: real time      0.0056
    FORLOC:  cpu time      0.0002: real time      0.0002
    FORNL :  cpu time      0.0269: real time      0.0270
    STRESS:  cpu time      0.2726: real time      0.2739
    FORCOR:  cpu time      0.0067: real time      0.0067
    FORHAR:  cpu time      0.0017: real time      0.0017
    MIXING:  cpu time      0.0005: real time      0.0005
    OFIELD:  cpu time      0.0000: real time      0.0000

  FORCE on cell =-STRESS in cart. coord.  units (eV):
  Direction    XX          YY          ZZ          XY          YZ          ZX
  --------------------------------------------------------------------------------------
  Alpha Z    83.74936    83.74936    83.74936
  Ewald    -406.00243  -460.66919  -515.13403    -2.66813    -0.00001     0.00000
  Hartree    82.04393    55.08484    20.57767    -1.14124    -0.00000     0.00000
  E(xc)    -140.95055  -140.94870  -141.29839    -0.02153     0.00000     0.00000
  Local    -236.90368  -161.28683   -75.88973     3.84017     0.00001    -0.00000
  n-local   240.41849   240.06333   241.55908    -0.01032    -0.00000     0.00000
  augment   -11.33198   -11.73917   -12.09905     0.00289     0.00000     0.00000
  Kinetic   389.75584   396.05923   399.03785    -0.05571    -0.00000    -0.00000
  Fock        0.00000     0.00000     0.00000     0.00000     0.00000     0.00000
  -------------------------------------------------------------------------------------
  Total       0.77898     0.31287     0.50276    -0.05386    -0.00000    -0.00000
  in kB       6.16869     2.47762     3.98133    -0.42654    -0.00001    -0.00001
  external pressure =        4.21 kB  Pullay stress =        0.00 kB


 VOLUME and BASIS-vectors are now :
 -----------------------------------------------------------------------------
  energy-cutoff  :      360.00
  volume of cell :      202.32
      direct lattice vectors                 reciprocal lattice vectors
     3.858100176  0.000000000  0.000000000     0.259194929  0.000000000  0.000000000
     0.000000000  4.526575088  0.000000000     0.000000000  0.220917577  0.000000000
     0.000000000  0.000000000 11.585176468     0.000000000  0.000000000  0.086317200

  length of vectors
     3.858100176  4.526575088 11.585176468     0.259194929  0.220917577  0.086317200


 FORCES acting on ions
    electron-ion (+dipol)            ewald-force                    non-local-force                 convergence-correction
 -----------------------------------------------------------------------------------------------
   -.133E+00 0.167E+02 0.326E+02   0.125E+00 -.195E+02 -.355E+02   -.112E-02 0.271E+01 0.291E+01   0.114E-04 -.156E-03 -.160E-02
   -.133E+00 0.167E+02 -.326E+02   0.125E+00 -.195E+02 0.355E+02   -.112E-02 0.271E+01 -.291E+01   0.114E-04 -.152E-03 0.160E-02
   0.133E+00 -.167E+02 -.326E+02   -.125E+00 0.195E+02 0.355E+02   0.123E-02 -.271E+01 -.291E+01   -.108E-04 0.154E-03 0.160E-02
   0.133E+00 -.167E+02 0.326E+02   -.125E+00 0.195E+02 -.355E+02   0.123E-02 -.271E+01 0.291E+01   -.114E-04 0.153E-03 -.160E-02
   0.204E+00 -.158E+02 -.338E+02   -.165E+00 0.172E+02 0.355E+02   -.522E-01 -.146E+01 -.164E+01   -.297E-04 0.553E-03 0.291E-02
   0.204E+00 -.158E+02 0.338E+02   -.165E+00 0.172E+02 -.355E+02   -.522E-01 -.146E+01 0.164E+01   -.293E-04 0.552E-03 -.292E-02
   -.204E+00 0.158E+02 0.338E+02   0.165E+00 -.172E+02 -.355E+02   0.520E-01 0.146E+01 0.164E+01   0.300E-04 -.555E-03 -.291E-02
   -.204E+00 0.158E+02 -.338E+02   0.165E+00 -.172E+02 0.355E+02   0.520E-01 0.146E+01 -.164E+01   0.287E-04 -.551E-03 0.292E-02
 -----------------------------------------------------------------------------------------------
   -.536E-04 -.766E-05 -.208E-05   0.488E-14 -.711E-14 0.711E-14   -.172E-03 0.158E-03 -.132E-05   0.169E-06 -.118E-05 0.161E-05
 
 
 POSITION                                       TOTAL-FORCE (eV/Angst)
 -----------------------------------------------------------------------------------
      1.24410      1.15728      1.52892        -0.008725     -0.070344     -0.008544
      3.17315      3.42057      4.26367        -0.008725     -0.070343      0.008544
      2.89357      4.09092     10.05626         0.008878      0.070493      0.008458
      0.96452      1.82763      7.32150         0.008878      0.070493     -0.008457
      1.24410      0.62868      4.06767        -0.013822      0.013825      0.101530
      3.17315      2.89197      1.72492        -0.013822      0.013825     -0.101530
      2.89357      0.09295      7.51751         0.013669     -0.013975     -0.101133
      0.96452      2.35624      9.86026         0.013669     -0.013975      0.101132
 -----------------------------------------------------------------------------------
    total drift:                               -0.000225      0.000149     -0.000002


--------------------------------------------------------------------------------------------------------



  FREE ENERGIE OF THE ION-ELECTRON SYSTEM (eV)
  ---------------------------------------------------
  free  energy   TOTEN  =       -33.78247934 eV

  energy  without entropy=      -33.78247934  energy(sigma->0) =      -33.78247934
 


--------------------------------------------------------------------------------------------------------


    POTLOK:  cpu time      0.2261: real time      0.2268


--------------------------------------------------------------------------------------------------------


     LOOP+:  cpu time      7.2492: real time      7.2849
    4ORBIT:  cpu time      0.0000: real time      0.0000

 total amount of memory used by VASP MPI-rank0    37119. kBytes
=======================================================================

   base      :      30000. kBytes
   nonl-proj :       5406. kBytes
   fftplans  :        334. kBytes
   grid      :        503. kBytes
   one-center:         16. kBytes
   wavefun   :        860. kBytes
 
  
  
 General timing and accounting informations for this job:
 ========================================================
  
                  Total CPU time used (sec):        8.869
                            User time (sec):        8.618
                          System time (sec):        0.250
                         Elapsed time (sec):        9.205
  
                   Maximum memory used (kb):      174204.
                   Average memory used (kb):          N/A
  
                          Minor page faults:        17614
                          Major page faults:           46
                 Voluntary context switches:         2150
