 vasp.6.4.2 20Jul23 (build Oct 12 2023 10:31:02) complex                         
 executed on              LinuxNV date 2025.05.18  05:03:25
 running  160 mpi-ranks, with    1 threads/rank, on   10 nodes
 distrk:  each k-point on   80 cores,    2 groups
 distr:  one band on NCORE=   5 cores,   16 groups


--------------------------------------------------------------------------------------------------------


 INCAR:
   ENCUT = 520.000000
   SIGMA = 0.050000
   EDIFF = 1.00e-06
   ALGO = Normal
   GGA = PE
   PREC = Normal
   SYSTEM = ./
   ICHARG = 2
   ISMEAR = 0
   ISPIN = 1
   ISTART = 0
   ISYM = 0
   KPAR = 2
   LMAXMIX = 4
   NELM = 100
   NPAR = 16
   LASPH = .TRUE.
   LCHARG = .FALSE.
   LWAVE = .FALSE.

 POTCAR:    PAW_PBE Ge 05Jan2001                  
 POTCAR:    PAW_PBE Se 06Sep2000                  
 POTCAR:    PAW_PBE Ge 05Jan2001                  
   VRHFIN =Ge: s2p2                                                                                 
   LEXCH  = PE                                                                                      
   EATOM  =   104.9960 eV,    7.7170 Ry                                                             
                                                                                                    
   TITEL  = PAW_PBE Ge 05Jan2001                                                                    
   LULTRA =        F    use ultrasoft PP ?                                                          
   IUNSCR =        1    unscreen: 0-lin 1-nonlin 2-no                                               
   RPACOR =    2.170    partial core radius                                                         
   POMASS =   72.610; ZVAL   =    4.000    mass and valenz                                          
   RCORE  =    2.300    outmost cutoff radius                                                       
   RWIGS  =    2.300; RWIGS  =    1.217    wigner-seitz radius (au A)                               
   ENMAX  =  173.807; ENMIN  =  130.355 eV                                                          
   ICORE  =        3    local potential                                                             
   LCOR   =        T    correct aug charges                                                         
   LPAW   =        T    paw PP                                                                      
   EAUG   =  385.843                                                                                
   DEXC   =    0.000                                                                                
   RMAX   =    2.342    core radius for proj-oper                                                   
   RAUG   =    1.300    factor for augmentation sphere                                              
   RDEP   =    2.318    radius for radial grids                                                     
   RDEPT  =    2.103    core radius for aug-charge                                                  
                                                                                                    
   Atomic configuration                                                                             
   10 entries                                                                                       
     n  l   j            E        occ.                                                              
     1  0  0.50    -10959.8463   2.0000                                                             
     2  0  0.50     -1371.6056   2.0000                                                             
     2  1  1.50     -1198.4791   6.0000                                                             
     3  0  0.50      -168.4733   2.0000                                                             
     3  1  1.50      -115.6019   6.0000                                                             
     3  2  2.50       -29.3106  10.0000                                                             
     4  0  0.50       -11.7309   2.0000                                                             
     4  1  0.50        -3.8952   2.0000                                                             
     4  2  1.50        -4.0817   0.0000                                                             
     4  3  2.50        -4.0817   0.0000                                                             
   Description                                                                                      
     l       E           TYP  RCUT    TYP  RCUT                                                     
     0    -11.7309493     23  2.300                                                                 
     0     -7.4578696     23  2.300                                                                 
     1     -3.8952261     23  2.300                                                                 
     1      6.1178114     23  2.300                                                                 
     2     -4.0817478     23  2.300                                                                 
     3     -1.3605826      7  2.300                                                                 
  local pseudopotential read in
  partial core-charges read in
  partial kinetic energy density read in
  atomic valenz-charges read in
  non local Contribution for L=            0  read in
    real space projection operators read in
  non local Contribution for L=            0  read in
    real space projection operators read in
  non local Contribution for L=            1  read in
    real space projection operators read in
  non local Contribution for L=            1  read in
    real space projection operators read in
  non local Contribution for L=            2  read in
    real space projection operators read in
    PAW grid and wavefunctions read in
 
   number of l-projection  operators is LMAX  =            5
   number of lm-projection operators is LMMAX =           13
 
 POTCAR:    PAW_PBE Se 06Sep2000                  
   VRHFIN =Se: s2p4                                                                                 
   LEXCH  = PE                                                                                      
   EATOM  =   257.1286 eV,   18.8984 Ry                                                             
                                                                                                    
   TITEL  = PAW_PBE Se 06Sep2000                                                                    
   LULTRA =        F    use ultrasoft PP ?                                                          
   IUNSCR =        1    unscreen: 0-lin 1-nonlin 2-no                                               
   RPACOR =    1.900    partial core radius                                                         
   POMASS =   78.960; ZVAL   =    6.000    mass and valenz                                          
   RCORE  =    2.100    outmost cutoff radius                                                       
   RWIGS  =    2.200; RWIGS  =    1.164    wigner-seitz radius (au A)                               
   ENMAX  =  211.555; ENMIN  =  158.666 eV                                                          
   ICORE  =        3    local potential                                                             
   LCOR   =        T    correct aug charges                                                         
   LPAW   =        T    paw PP                                                                      
   EAUG   =  446.842                                                                                
   DEXC   =    0.000                                                                                
   RMAX   =    2.147    core radius for proj-oper                                                   
   RAUG   =    1.300    factor for augmentation sphere                                              
   RDEP   =    2.177    radius for radial grids                                                     
   RDEPT  =    1.928    core radius for aug-charge                                                  
                                                                                                    
   Atomic configuration                                                                             
   10 entries                                                                                       
     n  l   j            E        occ.                                                              
     1  0  0.50    -12503.4787   2.0000                                                             
     2  0  0.50     -1606.9547   2.0000                                                             
     2  1  1.50     -1413.3140   6.0000                                                             
     3  0  0.50      -213.4885   2.0000                                                             
     3  1  1.50      -152.9538   6.0000                                                             
     3  2  2.50       -53.1221  10.0000                                                             
     4  0  0.50       -17.2865   2.0000                                                             
     4  1  0.50        -6.5110   4.0000                                                             
     4  2  2.50        -6.8029   0.0000                                                             
     4  3  2.50        -6.8029   0.0000                                                             
   Description                                                                                      
     l       E           TYP  RCUT    TYP  RCUT                                                     
     0    -17.2865377     23  2.100                                                                 
     0    -15.3094411     23  2.100                                                                 
     1     -6.5110275     23  2.100                                                                 
     1     -0.0695192     23  2.100                                                                 
     2     -6.8029130     23  2.100                                                                 
     3     -1.3605826      7  2.100                                                                 
  local pseudopotential read in
  partial core-charges read in
  partial kinetic energy density read in
  atomic valenz-charges read in
  non local Contribution for L=            0  read in
    real space projection operators read in
  non local Contribution for L=            0  read in
    real space projection operators read in
  non local Contribution for L=            1  read in
    real space projection operators read in
  non local Contribution for L=            1  read in
    real space projection operators read in
  non local Contribution for L=            2  read in
    real space projection operators read in
    PAW grid and wavefunctions read in
 
   number of l-projection  operators is LMAX  =            5
   number of lm-projection operators is LMMAX =           13
 
  PAW_PBE Ge 05Jan2001                  :
 energy of atom  1       EATOM= -104.9960
 kinetic energy error for atom=    0.0002 (will be added to EATOM!!)
  PAW_PBE Se 06Sep2000                  :
 energy of atom  2       EATOM= -257.1286
 kinetic energy error for atom=    0.0007 (will be added to EATOM!!)
 
 
 POSCAR: Ge Se
  positions in cartesian coordinates
  No initial velocities read in
 exchange correlation table for  LEXCH =        8
   RHO(1)=    0.500       N(1)  =     2000
   RHO(2)=  100.500       N(2)  =     4000
 


--------------------------------------------------------------------------------------------------------


 ion  position               nearest neighbor table
   1  0.482  0.085  0.123-   6 2.60   6 2.60   5 2.60
   2  0.982  0.585  0.377-   5 2.60   5 2.60   6 2.60
   3  0.750  0.886  0.877-   8 2.60   8 2.60   7 2.60
   4  0.250  0.386  0.623-   7 2.60   7 2.60   8 2.60
   5  0.482  0.964  0.352-   2 2.60   2 2.60   1 2.60
   6  0.982  0.464  0.148-   1 2.60   1 2.60   2 2.60
   7  0.750  0.007  0.648-   4 2.60   4 2.60   3 2.60
   8  0.250  0.507  0.852-   3 2.60   3 2.60   4 2.60
 

IMPORTANT INFORMATION: All symmetrisations will be switched off!
NOSYMM: (Re-)initialisation of all symmetry stuff for point group C_1.


----------------------------------------------------------------------------------------

                                     Primitive cell                                     

  volume of cell :     193.5913

  direct lattice vectors                    reciprocal lattice vectors
     3.858100176  0.000000000  0.000000000     0.259194929  0.000000000  0.000000000
     0.000000000  4.526575088  0.000000000     0.000000000  0.220917577  0.000000000
     0.000000000  0.000000000 11.085176468     0.000000000  0.000000000  0.090210562

  length of vectors
     3.858100176  4.526575088 11.085176468     0.259194929  0.220917577  0.090210562

  position of ions in fractional coordinates (direct lattice)
     0.481884058  0.085134927  0.122982664
     0.981884058  0.585134927  0.377017336
     0.750000000  0.885879566  0.877017336
     0.250000000  0.385879566  0.622982664
     0.481884058  0.964324382  0.352381810
     0.981884058  0.464324382  0.147618190
     0.750000000  0.006690111  0.647618190
     0.250000000  0.506690111  0.852381810

  ion indices of the primitive-cell ions
   primitive index   ion index
                 1           1
                 2           2
                 3           3
                 4           4
                 5           5
                 6           6
                 7           7
                 8           8

----------------------------------------------------------------------------------------

 
 
 KPOINTS: KPOINTS created by Atomic Simulation Env

Automatic generation of k-mesh.
 Grid dimensions read from file:
 generate k-points for:    6    6    2

 Generating k-lattice:

  Cartesian coordinates                     Fractional coordinates (reciprocal lattice)
     0.043199155  0.000000000  0.000000000     0.166666667  0.000000000  0.000000000
     0.000000000  0.036819596  0.000000000     0.000000000  0.166666667  0.000000000
     0.000000000  0.000000000  0.045105281     0.000000000  0.000000000  0.500000000

  Length of vectors
     0.043199155  0.036819596  0.045105281

  Shift w.r.t. Gamma in fractional coordinates (k-lattice)
     0.000000000  0.000000000  0.000000000

 
 Subroutine IBZKPT returns following result:
 ===========================================
 
 Found     40 irreducible k-points:
 
 Following reciprocal coordinates:
            Coordinates               Weight
  0.000000  0.000000  0.000000      1.000000
  0.166667  0.000000  0.000000      2.000000
  0.333333  0.000000  0.000000      2.000000
  0.500000  0.000000  0.000000      1.000000
  0.000000  0.166667  0.000000      2.000000
  0.166667  0.166667  0.000000      2.000000
  0.166667 -0.166667  0.000000      2.000000
  0.333333  0.166667  0.000000      2.000000
  0.333333 -0.166667  0.000000      2.000000
  0.500000  0.166667  0.000000      2.000000
  0.000000  0.333333  0.000000      2.000000
  0.166667  0.333333  0.000000      2.000000
  0.166667 -0.333333  0.000000      2.000000
  0.333333  0.333333  0.000000      2.000000
  0.333333 -0.333333  0.000000      2.000000
  0.500000  0.333333  0.000000      2.000000
  0.000000  0.500000  0.000000      1.000000
  0.166667  0.500000  0.000000      2.000000
  0.333333  0.500000  0.000000      2.000000
  0.500000  0.500000  0.000000      1.000000
  0.000000  0.000000  0.500000      1.000000
  0.166667  0.000000  0.500000      2.000000
  0.333333  0.000000  0.500000      2.000000
  0.500000  0.000000  0.500000      1.000000
  0.000000  0.166667  0.500000      2.000000
  0.166667  0.166667  0.500000      2.000000
  0.166667 -0.166667  0.500000      2.000000
  0.333333  0.166667  0.500000      2.000000
  0.333333 -0.166667  0.500000      2.000000
  0.500000  0.166667  0.500000      2.000000
  0.000000  0.333333  0.500000      2.000000
  0.166667  0.333333  0.500000      2.000000
  0.166667 -0.333333  0.500000      2.000000
  0.333333  0.333333  0.500000      2.000000
  0.333333 -0.333333  0.500000      2.000000
  0.500000  0.333333  0.500000      2.000000
  0.000000  0.500000  0.500000      1.000000
  0.166667  0.500000  0.500000      2.000000
  0.333333  0.500000  0.500000      2.000000
  0.500000  0.500000  0.500000      1.000000
 
 Following cartesian coordinates:
            Coordinates               Weight
  0.000000  0.000000  0.000000      1.000000
  0.043199  0.000000  0.000000      2.000000
  0.086398  0.000000  0.000000      2.000000
  0.129597  0.000000  0.000000      1.000000
  0.000000  0.036820  0.000000      2.000000
  0.043199  0.036820  0.000000      2.000000
  0.043199 -0.036820  0.000000      2.000000
  0.086398  0.036820  0.000000      2.000000
  0.086398 -0.036820  0.000000      2.000000
  0.129597  0.036820  0.000000      2.000000
  0.000000  0.073639  0.000000      2.000000
  0.043199  0.073639  0.000000      2.000000
  0.043199 -0.073639  0.000000      2.000000
  0.086398  0.073639  0.000000      2.000000
  0.086398 -0.073639  0.000000      2.000000
  0.129597  0.073639  0.000000      2.000000
  0.000000  0.110459  0.000000      1.000000
  0.043199  0.110459  0.000000      2.000000
  0.086398  0.110459  0.000000      2.000000
  0.129597  0.110459  0.000000      1.000000
  0.000000  0.000000  0.045105      1.000000
  0.043199  0.000000  0.045105      2.000000
  0.086398  0.000000  0.045105      2.000000
  0.129597  0.000000  0.045105      1.000000
  0.000000  0.036820  0.045105      2.000000
  0.043199  0.036820  0.045105      2.000000
  0.043199 -0.036820  0.045105      2.000000
  0.086398  0.036820  0.045105      2.000000
  0.086398 -0.036820  0.045105      2.000000
  0.129597  0.036820  0.045105      2.000000
  0.000000  0.073639  0.045105      2.000000
  0.043199  0.073639  0.045105      2.000000
  0.043199 -0.073639  0.045105      2.000000
  0.086398  0.073639  0.045105      2.000000
  0.086398 -0.073639  0.045105      2.000000
  0.129597  0.073639  0.045105      2.000000
  0.000000  0.110459  0.045105      1.000000
  0.043199  0.110459  0.045105      2.000000
  0.086398  0.110459  0.045105      2.000000
  0.129597  0.110459  0.045105      1.000000
 


--------------------------------------------------------------------------------------------------------




 Dimension of arrays:
   k-points           NKPTS =     40   k-points in BZ     NKDIM =     40   number of bands    NBANDS=     32
   number of dos      NEDOS =    301   number of ions     NIONS =      8
   non local maximal  LDIM  =      5   non local SUM 2l+1 LMDIM =     13
   total plane-waves  NPLWV =  43008
   max r-space proj   IRMAX =      1   max aug-charges    IRDMAX=  12272
   dimension x,y,z NGX =    24 NGY =   28 NGZ =   64
   dimension x,y,z NGXF=    48 NGYF=   56 NGZF=  128
   support grid    NGXF=    48 NGYF=   56 NGZF=  128
   ions per type =               4   4
   NGX,Y,Z   is equivalent  to a cutoff of  10.34, 10.28,  9.60 a.u.
   NGXF,Y,Z  is equivalent  to a cutoff of  20.68, 20.57, 19.20 a.u.

 SYSTEM =  ./                                      
 POSCAR =  Ge Se                                   

 Startparameter for this run:
   NWRITE =      2    write-flag & timer
   PREC   = normal    normal or accurate (medium, high low for compatibility)
   ISTART =      0    job   : 0-new  1-cont  2-samecut
   ICHARG =      2    charge: 1-file 2-atom 10-const
   ISPIN  =      1    spin polarized calculation?
   LNONCOLLINEAR =      F non collinear calculations
   LSORBIT =      F    spin-orbit coupling
   INIWAV =      1    electr: 0-lowe 1-rand  2-diag
   LASPH  =      T    aspherical Exc in radial PAW
 Electronic Relaxation 1
   ENCUT  =  520.0 eV  38.22 Ry    6.18 a.u.   7.17  8.42 20.61*2*pi/ulx,y,z
   ENINI  =  520.0     initial cutoff
   ENAUG  =  446.8 eV  augmentation charge cutoff
   NELM   =    100;   NELMIN=  2; NELMDL= -5     # of ELM steps 
   EDIFF  = 0.1E-05   stopping-criterion for ELM
   LREAL  =      F    real-space projection
   NLSPLINE    = F    spline interpolate recip. space projectors
   LCOMPAT=      F    compatible to vasp.4.4
   GGA_COMPAT  = T    GGA compatible to vasp.4.4-vasp.4.6
   LMAXPAW     = -100 max onsite density
   LMAXMIX     =    4 max onsite mixed and CHGCAR
   VOSKOWN=      0    Vosko Wilk Nusair interpolation
   ROPT   =    0.00000   0.00000
 Ionic relaxation
   EDIFFG = 0.1E-04   stopping-criterion for IOM
   NSW    =      0    number of steps for IOM
   NBLOCK =      1;   KBLOCK =      1    inner block; outer block 
   IBRION =     -1    ionic relax: 0-MD 1-quasi-New 2-CG
   NFREE  =      0    steps in history (QN), initial steepest desc. (CG)
   ISIF   =      2    stress and relaxation
   IWAVPR =     10    prediction:  0-non 1-charg 2-wave 3-comb
   ISYM   =      0    0-nonsym 1-usesym 2-fastsym
   LCORR  =      T    Harris-Foulkes like correction to forces

   POTIM  = 0.5000    time-step for ionic-motion
   TEIN   =    0.0    initial temperature
   TEBEG  =    0.0;   TEEND  =   0.0 temperature during run
   SMASS  =  -3.00    Nose mass-parameter (am)
   estimated Nose-frequenzy (Omega)   =  0.10E-29 period in steps = 0.13E+47 mass=  -0.340E-27a.u.
   SCALEE = 1.0000    scale energy and forces
   NPACO  =    256;   APACO  = 10.0  distance and # of slots for P.C.
   PSTRESS=    0.0 pullay stress

  Mass of Ions in am
   POMASS =  72.61 78.96
  Ionic Valenz
   ZVAL   =   4.00  6.00
  Atomic Wigner-Seitz radii
   RWIGS  =  -1.00 -1.00
  virtual crystal weights 
   VCA    =   1.00  1.00
   NELECT =      40.0000    total number of electrons
   NUPDOWN=      -1.0000    fix difference up-down

 DOS related values:
   EMIN   =  10.00;   EMAX   =-10.00  energy-range for DOS
   EFERMI =   0.00;   METHOD = LEGACY      
   ISMEAR =     0;   SIGMA  =   0.05  broadening in eV -4-tet -1-fermi 0-gaus

 Electronic relaxation 2 (details)
   IALGO  =     38    algorithm
   LDIAG  =      T    sub-space diagonalisation (order eigenvalues)
   LSUBROT=      F    optimize rotation matrix (better conditioning)
   TURBO    =      0    0=normal 1=particle mesh
   IRESTART =      0    0=no restart 2=restart with 2 vectors
   NREBOOT  =      0    no. of reboots
   NMIN     =      0    reboot dimension
   EREF     =   0.00    reference energy to select bands
   IMIX   =      4    mixing-type and parameters
     AMIX     =   0.40;   BMIX     =  1.00
     AMIX_MAG =   1.60;   BMIX_MAG =  1.00
     AMIN     =   0.10
     WC   =   100.;   INIMIX=   1;  MIXPRE=   1;  MAXMIX= -45

 Intra band minimization:
   WEIMIN = 0.0000     energy-eigenvalue tresh-hold
   EBREAK =  0.78E-08  absolut break condition
   DEPER  =   0.30     relativ break condition  

   TIME   =   0.40     timestep for ELM

  volume/ion in A,a.u.               =      24.20       163.30
  Fermi-wavevector in a.u.,A,eV,Ry     =   0.967831  1.828935 12.744535  0.936697
  Thomas-Fermi vector in A             =   2.097750
 
 Write flags
   LWAVE        =      F    write WAVECAR
   LDOWNSAMPLE  =      F    k-point downsampling of WAVECAR
   LCHARG       =      F    write CHGCAR
   LVTOT        =      F    write LOCPOT, total local potential
   LVHAR        =      F    write LOCPOT, Hartree potential only
   LELF         =      F    write electronic localiz. function (ELF)
   LORBIT       =      0    0 simple, 1 ext, 2 COOP (PROOUT), +10 PAW based schemes


 Dipole corrections
   LMONO  =      F    monopole corrections only (constant potential shift)
   LDIPOL =      F    correct potential (dipole corrections)
   IDIPOL =      0    1-x, 2-y, 3-z, 4-all directions 
   EPSILON=  1.0000000 bulk dielectric constant

 Exchange correlation treatment:
   GGA     =    PE    GGA type
   LEXCH   =     8    internal setting for exchange type
   LIBXC   =     F    Libxc                    
   VOSKOWN =     0    Vosko Wilk Nusair interpolation
   LHFCALC =     F    Hartree Fock is set to
   LHFONE  =     F    Hartree Fock one center treatment
   AEXX    =    0.0000 exact exchange contribution

 Linear response parameters
   LEPSILON=     F    determine dielectric tensor
   LRPA    =     F    only Hartree local field effects (RPA)
   LNABLA  =     F    use nabla operator in PAW spheres
   LVEL    =     F    velocity operator in full k-point grid
   CSHIFT  =0.1000    complex shift for real part using Kramers Kronig
   OMEGAMAX=  -1.0    maximum frequency
   DEG_THRESHOLD= 0.2000000E-02 threshold for treating states as degnerate
   RTIME   =   -0.100 relaxation time in fs
  (WPLASMAI=    0.000 imaginary part of plasma frequency in eV, 0.658/RTIME)
   DFIELD  = 0.0000000 0.0000000 0.0000000 field for delta impulse in time
 
  Optional k-point grid parameters
   LKPOINTS_OPT  =     F    use optional k-point grid
   KPOINTS_OPT_MODE=     1    mode for optional k-point grid
 
 Orbital magnetization related:
   ORBITALMAG=     F  switch on orbital magnetization
   LCHIMAG   =     F  perturbation theory with respect to B field
   DQ        =  0.001000  dq finite difference perturbation B field
   LLRAUG    =     F  two centre corrections for induced B field
   LBONE     =     F  B-component reconstruction in AE one-centre
   LVGVCALC  =     T  calculate vGv susceptibility
   LVGVAPPL  =     F  apply vGv susceptibility instead of pGv for G=0

 Random number generation:
   RANDOM_GENERATOR = DEFAULT
   PCG_SEED         = not used


--------------------------------------------------------------------------------------------------------


 Static calculation
 charge density and potential will be updated during run
 non-spin polarized calculation
 Variant of blocked Davidson
 Davidson routine will perform the subspace rotation
 perform sub-space diagonalisation
    after iterative eigenvector-optimisation
 modified Broyden-mixing scheme, WC =      100.0
 initial mixing is a Kerker type mixing with AMIX =  0.4000 and BMIX =      1.0000
 Hartree-type preconditioning will be used
 using additional bands            12
 reciprocal scheme for non local part
 use partial core corrections
 calculate Harris-corrections to forces 
   (improved forces if not selfconsistent)
 use gradient corrections 
 use of overlap-Matrix (Vanderbilt PP)
 Gauss-broadening in eV      SIGMA  =   0.05


--------------------------------------------------------------------------------------------------------


  energy-cutoff  :      520.00
  volume of cell :      193.59
      direct lattice vectors                 reciprocal lattice vectors
     3.858100176  0.000000000  0.000000000     0.259194929  0.000000000  0.000000000
     0.000000000  4.526575088  0.000000000     0.000000000  0.220917577  0.000000000
     0.000000000  0.000000000 11.085176468     0.000000000  0.000000000  0.090210562

  length of vectors
     3.858100176  4.526575088 11.085176468     0.259194929  0.220917577  0.090210562


 
 k-points in units of 2pi/SCALE and weight: KPOINTS created by Atomic Simulation Env
   0.00000000  0.00000000  0.00000000       0.014
   0.04319915  0.00000000  0.00000000       0.028
   0.08639831  0.00000000  0.00000000       0.028
   0.12959746  0.00000000  0.00000000       0.014
   0.00000000  0.03681960  0.00000000       0.028
   0.04319915  0.03681960  0.00000000       0.028
   0.04319915 -0.03681960  0.00000000       0.028
   0.08639831  0.03681960  0.00000000       0.028
   0.08639831 -0.03681960  0.00000000       0.028
   0.12959746  0.03681960  0.00000000       0.028
   0.00000000  0.07363919  0.00000000       0.028
   0.04319915  0.07363919  0.00000000       0.028
   0.04319915 -0.07363919  0.00000000       0.028
   0.08639831  0.07363919  0.00000000       0.028
   0.08639831 -0.07363919  0.00000000       0.028
   0.12959746  0.07363919  0.00000000       0.028
   0.00000000  0.11045879  0.00000000       0.014
   0.04319915  0.11045879  0.00000000       0.028
   0.08639831  0.11045879  0.00000000       0.028
   0.12959746  0.11045879  0.00000000       0.014
   0.00000000  0.00000000  0.04510528       0.014
   0.04319915  0.00000000  0.04510528       0.028
   0.08639831  0.00000000  0.04510528       0.028
   0.12959746  0.00000000  0.04510528       0.014
   0.00000000  0.03681960  0.04510528       0.028
   0.04319915  0.03681960  0.04510528       0.028
   0.04319915 -0.03681960  0.04510528       0.028
   0.08639831  0.03681960  0.04510528       0.028
   0.08639831 -0.03681960  0.04510528       0.028
   0.12959746  0.03681960  0.04510528       0.028
   0.00000000  0.07363919  0.04510528       0.028
   0.04319915  0.07363919  0.04510528       0.028
   0.04319915 -0.07363919  0.04510528       0.028
   0.08639831  0.07363919  0.04510528       0.028
   0.08639831 -0.07363919  0.04510528       0.028
   0.12959746  0.07363919  0.04510528       0.028
   0.00000000  0.11045879  0.04510528       0.014
   0.04319915  0.11045879  0.04510528       0.028
   0.08639831  0.11045879  0.04510528       0.028
   0.12959746  0.11045879  0.04510528       0.014
 
 k-points in reciprocal lattice and weights: KPOINTS created by Atomic Simulation Env
   0.00000000  0.00000000  0.00000000       0.014
   0.16666667  0.00000000  0.00000000       0.028
   0.33333333  0.00000000  0.00000000       0.028
   0.50000000  0.00000000  0.00000000       0.014
   0.00000000  0.16666667  0.00000000       0.028
   0.16666667  0.16666667  0.00000000       0.028
   0.16666667 -0.16666667  0.00000000       0.028
   0.33333333  0.16666667  0.00000000       0.028
   0.33333333 -0.16666667  0.00000000       0.028
   0.50000000  0.16666667  0.00000000       0.028
   0.00000000  0.33333333  0.00000000       0.028
   0.16666667  0.33333333  0.00000000       0.028
   0.16666667 -0.33333333  0.00000000       0.028
   0.33333333  0.33333333  0.00000000       0.028
   0.33333333 -0.33333333  0.00000000       0.028
   0.50000000  0.33333333  0.00000000       0.028
   0.00000000  0.50000000  0.00000000       0.014
   0.16666667  0.50000000  0.00000000       0.028
   0.33333333  0.50000000  0.00000000       0.028
   0.50000000  0.50000000  0.00000000       0.014
   0.00000000  0.00000000  0.50000000       0.014
   0.16666667  0.00000000  0.50000000       0.028
   0.33333333  0.00000000  0.50000000       0.028
   0.50000000  0.00000000  0.50000000       0.014
   0.00000000  0.16666667  0.50000000       0.028
   0.16666667  0.16666667  0.50000000       0.028
   0.16666667 -0.16666667  0.50000000       0.028
   0.33333333  0.16666667  0.50000000       0.028
   0.33333333 -0.16666667  0.50000000       0.028
   0.50000000  0.16666667  0.50000000       0.028
   0.00000000  0.33333333  0.50000000       0.028
   0.16666667  0.33333333  0.50000000       0.028
   0.16666667 -0.33333333  0.50000000       0.028
   0.33333333  0.33333333  0.50000000       0.028
   0.33333333 -0.33333333  0.50000000       0.028
   0.50000000  0.33333333  0.50000000       0.028
   0.00000000  0.50000000  0.50000000       0.014
   0.16666667  0.50000000  0.50000000       0.028
   0.33333333  0.50000000  0.50000000       0.028
   0.50000000  0.50000000  0.50000000       0.014
 
 position of ions in fractional coordinates (direct lattice) 
   0.48188406  0.08513493  0.12298266
   0.98188406  0.58513493  0.37701734
   0.75000000  0.88587957  0.87701734
   0.25000000  0.38587957  0.62298266
   0.48188406  0.96432438  0.35238181
   0.98188406  0.46432438  0.14761819
   0.75000000  0.00669011  0.64761819
   0.25000000  0.50669011  0.85238181
 
 position of ions in cartesian coordinates  (Angst):
   1.85915697  0.38536964  1.36328454
   3.78820706  2.64865718  4.17930370
   2.89357513  4.01000037  9.72189193
   0.96452504  1.74671283  6.90587277
   1.85915697  4.36508672  3.90621455
   3.78820706  2.10179918  1.63637368
   2.89357513  0.03028329  7.17896192
   0.96452504  2.29357083  9.44880278
 


--------------------------------------------------------------------------------------------------------


 k-point   1 :   0.0000 0.0000 0.0000  plane waves:    5211
 k-point   2 :   0.1667 0.0000 0.0000  plane waves:    5225
 k-point   3 :   0.3333 0.0000 0.0000  plane waves:    5224
 k-point   4 :   0.5000 0.0000 0.0000  plane waves:    5258
 k-point   5 :   0.0000 0.1667 0.0000  plane waves:    5209
 k-point   6 :   0.1667 0.1667 0.0000  plane waves:    5201
 k-point   7 :   0.1667-0.1667 0.0000  plane waves:    5201
 k-point   8 :   0.3333 0.1667 0.0000  plane waves:    5230
 k-point   9 :   0.3333-0.1667 0.0000  plane waves:    5230
 k-point  10 :   0.5000 0.1667 0.0000  plane waves:    5236
 k-point  11 :   0.0000 0.3333 0.0000  plane waves:    5213
 k-point  12 :   0.1667 0.3333 0.0000  plane waves:    5199
 k-point  13 :   0.1667-0.3333 0.0000  plane waves:    5199
 k-point  14 :   0.3333 0.3333 0.0000  plane waves:    5211
 k-point  15 :   0.3333-0.3333 0.0000  plane waves:    5211
 k-point  16 :   0.5000 0.3333 0.0000  plane waves:    5230
 k-point  17 :   0.0000 0.5000 0.0000  plane waves:    5220
 k-point  18 :   0.1667 0.5000 0.0000  plane waves:    5208
 k-point  19 :   0.3333 0.5000 0.0000  plane waves:    5230
 k-point  20 :   0.5000 0.5000 0.0000  plane waves:    5180
 k-point  21 :   0.0000 0.0000 0.5000  plane waves:    5210
 k-point  22 :   0.1667 0.0000 0.5000  plane waves:    5178
 k-point  23 :   0.3333 0.0000 0.5000  plane waves:    5214
 k-point  24 :   0.5000 0.0000 0.5000  plane waves:    5232
 k-point  25 :   0.0000 0.1667 0.5000  plane waves:    5224
 k-point  26 :   0.1667 0.1667 0.5000  plane waves:    5210
 k-point  27 :   0.1667-0.1667 0.5000  plane waves:    5210
 k-point  28 :   0.3333 0.1667 0.5000  plane waves:    5196
 k-point  29 :   0.3333-0.1667 0.5000  plane waves:    5196
 k-point  30 :   0.5000 0.1667 0.5000  plane waves:    5224
 k-point  31 :   0.0000 0.3333 0.5000  plane waves:    5202
 k-point  32 :   0.1667 0.3333 0.5000  plane waves:    5214
 k-point  33 :   0.1667-0.3333 0.5000  plane waves:    5214
 k-point  34 :   0.3333 0.3333 0.5000  plane waves:    5216
 k-point  35 :   0.3333-0.3333 0.5000  plane waves:    5216
 k-point  36 :   0.5000 0.3333 0.5000  plane waves:    5216
 k-point  37 :   0.0000 0.5000 0.5000  plane waves:    5212
 k-point  38 :   0.1667 0.5000 0.5000  plane waves:    5192
 k-point  39 :   0.3333 0.5000 0.5000  plane waves:    5208
 k-point  40 :   0.5000 0.5000 0.5000  plane waves:    5208

 maximum and minimum number of plane-waves per node :      1076     1017

 maximum number of plane-waves:      5258
 maximum index in each direction: 
   IXMAX=    7   IYMAX=    8   IZMAX=   20
   IXMIN=   -7   IYMIN=   -8   IZMIN=  -21


 parallel 3D FFT for wavefunctions:
    minimum data exchange during FFTs selected (reduces bandwidth)
 parallel 3D FFT for charge:
    minimum data exchange during FFTs selected (reduces bandwidth)


 total amount of memory used by VASP MPI-rank0    41770. kBytes
=======================================================================

   base      :      30000. kBytes
   nonl-proj :       9056. kBytes
   fftplans  :        519. kBytes
   grid      :        766. kBytes
   one-center:         16. kBytes
   wavefun   :       1413. kBytes
 
     INWAV:  cpu time      0.0000: real time      0.0001
 Broyden mixing: mesh for mixing (old mesh)
   NGX = 15   NGY = 17   NGZ = 41
  (NGX  = 48   NGY  = 56   NGZ  =128)
  gives a total of  10455 points

 initial charge density was supplied:
 charge density of overlapping atoms calculated
 number of electron      40.0000000 magnetization 
 keeping initial charge density in first step


--------------------------------------------------------------------------------------------------------


 Maximum index for augmentation-charges           608 (set IRDMAX)


--------------------------------------------------------------------------------------------------------


 First call to EWALD:  gamma=   0.306
 Maximum number of real-space cells 4x 3x 2
 Maximum number of reciprocal cells 2x 2x 5

    FEWALD:  cpu time      0.0010: real time      0.0010


--------------------------------------- Ionic step        1  -------------------------------------------




--------------------------------------- Iteration      1(   1)  ---------------------------------------


    POTLOK:  cpu time      0.0116: real time      0.0118
    SETDIJ:  cpu time      0.2184: real time      0.2190
     EDDAV:  cpu time      0.3543: real time      0.3563
       DOS:  cpu time      0.0011: real time      0.0011
    --------------------------------------------
      LOOP:  cpu time      0.5854: real time      0.5882

 eigenvalue-minimisations  :  2560
 total energy-change (2. order) : 0.1639518E+03  (-0.1588780E+04)
 number of electron      40.0000000 magnetization 
 augmentation part       40.0000000 magnetization 

 Free energy of the ion-electron system (eV)
  ---------------------------------------------------
  alpha Z        PSCENC =        87.52689448
  Ewald energy   TEWEN  =     -1419.49053956
  -Hartree energ DENC   =      -127.42390115
  -exchange      EXHF   =         0.00000000
  -V(xc)+E(xc)   XCENC  =       -33.38231308
  PAW double counting   =      1193.78262552    -1080.73714043
  entropy T*S    EENTRO =        -0.00280734
  eigenvalues    EBANDS =        95.18434318
  atomic energy  EATOM  =      1448.49460871
  Solvation  Ediel_sol  =         0.00000000
  ---------------------------------------------------
  free energy    TOTEN  =       163.95177032 eV

  energy without entropy =      163.95457766  energy(sigma->0) =      163.95317399


--------------------------------------------------------------------------------------------------------




--------------------------------------- Iteration      1(   2)  ---------------------------------------


     EDDAV:  cpu time      0.4813: real time      0.4854
       DOS:  cpu time      0.0021: real time      0.0021
    --------------------------------------------
      LOOP:  cpu time      0.4834: real time      0.4875

 eigenvalue-minimisations  :  3664
 total energy-change (2. order) :-0.1863762E+03  (-0.1809621E+03)
 number of electron      40.0000000 magnetization 
 augmentation part       40.0000000 magnetization 

 Free energy of the ion-electron system (eV)
  ---------------------------------------------------
  alpha Z        PSCENC =        87.52689448
  Ewald energy   TEWEN  =     -1419.49053956
  -Hartree energ DENC   =      -127.42390115
  -exchange      EXHF   =         0.00000000
  -V(xc)+E(xc)   XCENC  =       -33.38231308
  PAW double counting   =      1193.78262552    -1080.73714043
  entropy T*S    EENTRO =        -0.00024538
  eigenvalues    EBANDS =       -91.19440361
  atomic energy  EATOM  =      1448.49460871
  Solvation  Ediel_sol  =         0.00000000
  ---------------------------------------------------
  free energy    TOTEN  =       -22.42441451 eV

  energy without entropy =      -22.42416913  energy(sigma->0) =      -22.42429182


--------------------------------------------------------------------------------------------------------




--------------------------------------- Iteration      1(   3)  ---------------------------------------


     EDDAV:  cpu time      0.5015: real time      0.5044
       DOS:  cpu time      0.0006: real time      0.0006
    --------------------------------------------
      LOOP:  cpu time      0.5020: real time      0.5050

 eigenvalue-minimisations  :  3328
 total energy-change (2. order) :-0.1147544E+02  (-0.1144381E+02)
 number of electron      40.0000000 magnetization 
 augmentation part       40.0000000 magnetization 

 Free energy of the ion-electron system (eV)
  ---------------------------------------------------
  alpha Z        PSCENC =        87.52689448
  Ewald energy   TEWEN  =     -1419.49053956
  -Hartree energ DENC   =      -127.42390115
  -exchange      EXHF   =         0.00000000
  -V(xc)+E(xc)   XCENC  =       -33.38231308
  PAW double counting   =      1193.78262552    -1080.73714043
  entropy T*S    EENTRO =        -0.00000000
  eigenvalues    EBANDS =      -102.67009168
  atomic energy  EATOM  =      1448.49460871
  Solvation  Ediel_sol  =         0.00000000
  ---------------------------------------------------
  free energy    TOTEN  =       -33.89985720 eV

  energy without entropy =      -33.89985720  energy(sigma->0) =      -33.89985720


--------------------------------------------------------------------------------------------------------




--------------------------------------- Iteration      1(   4)  ---------------------------------------


     EDDAV:  cpu time      0.4592: real time      0.4616
       DOS:  cpu time      0.0005: real time      0.0005
    --------------------------------------------
      LOOP:  cpu time      0.4598: real time      0.4622

 eigenvalue-minimisations  :  3232
 total energy-change (2. order) :-0.8870484E-01  (-0.8868692E-01)
 number of electron      40.0000000 magnetization 
 augmentation part       40.0000000 magnetization 

 Free energy of the ion-electron system (eV)
  ---------------------------------------------------
  alpha Z        PSCENC =        87.52689448
  Ewald energy   TEWEN  =     -1419.49053956
  -Hartree energ DENC   =      -127.42390115
  -exchange      EXHF   =         0.00000000
  -V(xc)+E(xc)   XCENC  =       -33.38231308
  PAW double counting   =      1193.78262552    -1080.73714043
  entropy T*S    EENTRO =        -0.00000000
  eigenvalues    EBANDS =      -102.75879652
  atomic energy  EATOM  =      1448.49460871
  Solvation  Ediel_sol  =         0.00000000
  ---------------------------------------------------
  free energy    TOTEN  =       -33.98856204 eV

  energy without entropy =      -33.98856204  energy(sigma->0) =      -33.98856204


--------------------------------------------------------------------------------------------------------




--------------------------------------- Iteration      1(   5)  ---------------------------------------


     EDDAV:  cpu time      0.4541: real time      0.4570
       DOS:  cpu time      0.0017: real time      0.0017
    CHARGE:  cpu time      0.0092: real time      0.0092
    MIXING:  cpu time      0.0006: real time      0.0006
    --------------------------------------------
      LOOP:  cpu time      0.4657: real time      0.4686

 eigenvalue-minimisations  :  3312
 total energy-change (2. order) :-0.5337664E-03  (-0.5337608E-03)
 number of electron      39.9999994 magnetization 
 augmentation part       -7.4154584 magnetization 

 Broyden mixing:
  rms(total) = 0.65212E+00    rms(broyden)= 0.65212E+00
  rms(prec ) = 0.73403E+00
  weight for this iteration     100.00

 Free energy of the ion-electron system (eV)
  ---------------------------------------------------
  alpha Z        PSCENC =        87.52689448
  Ewald energy   TEWEN  =     -1419.49053956
  -Hartree energ DENC   =      -127.42390115
  -exchange      EXHF   =         0.00000000
  -V(xc)+E(xc)   XCENC  =       -33.38231308
  PAW double counting   =      1193.78262552    -1080.73714043
  entropy T*S    EENTRO =        -0.00000000
  eigenvalues    EBANDS =      -102.75933029
  atomic energy  EATOM  =      1448.49460871
  Solvation  Ediel_sol  =         0.00000000
  ---------------------------------------------------
  free energy    TOTEN  =       -33.98909581 eV

  energy without entropy =      -33.98909581  energy(sigma->0) =      -33.98909581


--------------------------------------------------------------------------------------------------------




--------------------------------------- Iteration      1(   6)  ---------------------------------------


    POTLOK:  cpu time      0.0102: real time      0.0103
    SETDIJ:  cpu time      0.2201: real time      0.2207
     EDDAV:  cpu time      0.4211: real time      0.4232
       DOS:  cpu time      0.0010: real time      0.0010
    CHARGE:  cpu time      0.0086: real time      0.0087
    MIXING:  cpu time      0.0006: real time      0.0006
    --------------------------------------------
      LOOP:  cpu time      0.6616: real time      0.6644

 eigenvalue-minimisations  :  3152
 total energy-change (2. order) : 0.3642813E+00  (-0.7596119E-01)
 number of electron      39.9999994 magnetization 
 augmentation part       -7.3602517 magnetization 

 Broyden mixing:
  rms(total) = 0.40952E+00    rms(broyden)= 0.40952E+00
  rms(prec ) = 0.43135E+00
  weight for this iteration     100.00

 eigenvalues of (default mixing * dielectric matrix)
  average eigenvalue GAMMA=   2.2136
  2.2136

 Free energy of the ion-electron system (eV)
  ---------------------------------------------------
  alpha Z        PSCENC =        87.52689448
  Ewald energy   TEWEN  =     -1419.49053956
  -Hartree energ DENC   =      -133.36482807
  -exchange      EXHF   =         0.00000000
  -V(xc)+E(xc)   XCENC  =       -32.77723810
  PAW double counting   =      1458.62521779    -1345.90042276
  entropy T*S    EENTRO =        -0.00001584
  eigenvalues    EBANDS =       -96.73849121
  atomic energy  EATOM  =      1448.49460871
  Solvation  Ediel_sol  =         0.00000000
  ---------------------------------------------------
  free energy    TOTEN  =       -33.62481455 eV

  energy without entropy =      -33.62479871  energy(sigma->0) =      -33.62480663


--------------------------------------------------------------------------------------------------------




--------------------------------------- Iteration      1(   7)  ---------------------------------------


    POTLOK:  cpu time      0.0101: real time      0.0102
    SETDIJ:  cpu time      0.2181: real time      0.2186
     EDDAV:  cpu time      0.4337: real time      0.4359
       DOS:  cpu time      0.0014: real time      0.0014
    CHARGE:  cpu time      0.0088: real time      0.0089
    MIXING:  cpu time      0.0006: real time      0.0006
    --------------------------------------------
      LOOP:  cpu time      0.6728: real time      0.6757

 eigenvalue-minimisations  :  2976
 total energy-change (2. order) : 0.1336695E-01  (-0.2209589E-01)
 number of electron      39.9999994 magnetization 
 augmentation part       -7.3456020 magnetization 

 Broyden mixing:
  rms(total) = 0.12703E+00    rms(broyden)= 0.12703E+00
  rms(prec ) = 0.13555E+00
  weight for this iteration     100.00

 eigenvalues of (default mixing * dielectric matrix)
  average eigenvalue GAMMA=   1.7833
  1.1774  2.3892

 Free energy of the ion-electron system (eV)
  ---------------------------------------------------
  alpha Z        PSCENC =        87.52689448
  Ewald energy   TEWEN  =     -1419.49053956
  -Hartree energ DENC   =      -136.13428373
  -exchange      EXHF   =         0.00000000
  -V(xc)+E(xc)   XCENC  =       -32.29714772
  PAW double counting   =      1788.08222138    -1675.60095307
  entropy T*S    EENTRO =        -0.00013809
  eigenvalues    EBANDS =       -94.19210999
  atomic energy  EATOM  =      1448.49460871
  Solvation  Ediel_sol  =         0.00000000
  ---------------------------------------------------
  free energy    TOTEN  =       -33.61144759 eV

  energy without entropy =      -33.61130950  energy(sigma->0) =      -33.61137854


--------------------------------------------------------------------------------------------------------




--------------------------------------- Iteration      1(   8)  ---------------------------------------


    POTLOK:  cpu time      0.0101: real time      0.0103
    SETDIJ:  cpu time      0.2187: real time      0.2192
     EDDAV:  cpu time      0.4325: real time      0.4351
       DOS:  cpu time      0.0098: real time      0.0098
    CHARGE:  cpu time      0.0087: real time      0.0088
    MIXING:  cpu time      0.0006: real time      0.0006
    --------------------------------------------
      LOOP:  cpu time      0.6803: real time      0.6837

 eigenvalue-minimisations  :  3120
 total energy-change (2. order) : 0.9327250E-03  (-0.1974284E-02)
 number of electron      39.9999994 magnetization 
 augmentation part       -7.3530049 magnetization 

 Broyden mixing:
  rms(total) = 0.17955E-01    rms(broyden)= 0.17955E-01
  rms(prec ) = 0.21942E-01
  weight for this iteration     100.00

 eigenvalues of (default mixing * dielectric matrix)
  average eigenvalue GAMMA=   1.6910
  2.5060  1.2835  1.2835

 Free energy of the ion-electron system (eV)
  ---------------------------------------------------
  alpha Z        PSCENC =        87.52689448
  Ewald energy   TEWEN  =     -1419.49053956
  -Hartree energ DENC   =      -136.32995703
  -exchange      EXHF   =         0.00000000
  -V(xc)+E(xc)   XCENC  =       -32.15390410
  PAW double counting   =      1924.98931465    -1812.57001981
  entropy T*S    EENTRO =        -0.00005514
  eigenvalues    EBANDS =       -94.07685707
  atomic energy  EATOM  =      1448.49460871
  Solvation  Ediel_sol  =         0.00000000
  ---------------------------------------------------
  free energy    TOTEN  =       -33.61051487 eV

  energy without entropy =      -33.61045973  energy(sigma->0) =      -33.61048730


--------------------------------------------------------------------------------------------------------




--------------------------------------- Iteration      1(   9)  ---------------------------------------


    POTLOK:  cpu time      0.0104: real time      0.0106
    SETDIJ:  cpu time      0.2214: real time      0.2220
     EDDAV:  cpu time      0.4221: real time      0.4242
       DOS:  cpu time      0.0010: real time      0.0010
    CHARGE:  cpu time      0.0086: real time      0.0086
    MIXING:  cpu time      0.0006: real time      0.0006
    --------------------------------------------
      LOOP:  cpu time      0.6641: real time      0.6669

 eigenvalue-minimisations  :  3232
 total energy-change (2. order) :-0.2937273E-03  (-0.3319323E-03)
 number of electron      39.9999994 magnetization 
 augmentation part       -7.3515395 magnetization 

 Broyden mixing:
  rms(total) = 0.65973E-02    rms(broyden)= 0.65973E-02
  rms(prec ) = 0.74081E-02
  weight for this iteration     100.00

 eigenvalues of (default mixing * dielectric matrix)
  average eigenvalue GAMMA=   1.7162
  2.2761  2.2761  1.1564  1.1564

 Free energy of the ion-electron system (eV)
  ---------------------------------------------------
  alpha Z        PSCENC =        87.52689448
  Ewald energy   TEWEN  =     -1419.49053956
  -Hartree energ DENC   =      -136.66224618
  -exchange      EXHF   =         0.00000000
  -V(xc)+E(xc)   XCENC  =       -32.11500158
  PAW double counting   =      1938.88946913    -1826.47878538
  entropy T*S    EENTRO =        -0.00006838
  eigenvalues    EBANDS =       -93.77513984
  atomic energy  EATOM  =      1448.49460871
  Solvation  Ediel_sol  =         0.00000000
  ---------------------------------------------------
  free energy    TOTEN  =       -33.61080859 eV

  energy without entropy =      -33.61074021  energy(sigma->0) =      -33.61077440


--------------------------------------------------------------------------------------------------------




--------------------------------------- Iteration      1(  10)  ---------------------------------------


    POTLOK:  cpu time      0.0103: real time      0.0104
    SETDIJ:  cpu time      0.2173: real time      0.2179
     EDDAV:  cpu time      0.4261: real time      0.4286
       DOS:  cpu time      0.0009: real time      0.0009
    CHARGE:  cpu time      0.0083: real time      0.0083
    MIXING:  cpu time      0.0006: real time      0.0006
    --------------------------------------------
      LOOP:  cpu time      0.6634: real time      0.6667

 eigenvalue-minimisations  :  3152
 total energy-change (2. order) :-0.1013738E-03  (-0.2799336E-04)
 number of electron      39.9999994 magnetization 
 augmentation part       -7.3515266 magnetization 

 Broyden mixing:
  rms(total) = 0.23738E-02    rms(broyden)= 0.23738E-02
  rms(prec ) = 0.29218E-02
  weight for this iteration     100.00

 eigenvalues of (default mixing * dielectric matrix)
  average eigenvalue GAMMA=   1.7485
  2.6924  2.4438  1.1199  1.2431  1.2431

 Free energy of the ion-electron system (eV)
  ---------------------------------------------------
  alpha Z        PSCENC =        87.52689448
  Ewald energy   TEWEN  =     -1419.49053956
  -Hartree energ DENC   =      -136.69301781
  -exchange      EXHF   =         0.00000000
  -V(xc)+E(xc)   XCENC  =       -32.11177911
  PAW double counting   =      1932.64189842    -1820.22605678
  entropy T*S    EENTRO =        -0.00006480
  eigenvalues    EBANDS =       -93.75285351
  atomic energy  EATOM  =      1448.49460871
  Solvation  Ediel_sol  =         0.00000000
  ---------------------------------------------------
  free energy    TOTEN  =       -33.61090997 eV

  energy without entropy =      -33.61084517  energy(sigma->0) =      -33.61087757


--------------------------------------------------------------------------------------------------------




--------------------------------------- Iteration      1(  11)  ---------------------------------------


    POTLOK:  cpu time      0.0099: real time      0.0100
    SETDIJ:  cpu time      0.2183: real time      0.2189
     EDDAV:  cpu time      0.4136: real time      0.4178
       DOS:  cpu time      0.0010: real time      0.0010
    CHARGE:  cpu time      0.0087: real time      0.0088
    MIXING:  cpu time      0.0006: real time      0.0006
    --------------------------------------------
      LOOP:  cpu time      0.6522: real time      0.6571

 eigenvalue-minimisations  :  3024
 total energy-change (2. order) :-0.2891630E-04  (-0.4095827E-05)
 number of electron      39.9999994 magnetization 
 augmentation part       -7.3517216 magnetization 

 Broyden mixing:
  rms(total) = 0.12036E-02    rms(broyden)= 0.12036E-02
  rms(prec ) = 0.13456E-02
  weight for this iteration     100.00

 eigenvalues of (default mixing * dielectric matrix)
  average eigenvalue GAMMA=   1.7112
  2.5303  2.5303  1.9540  1.1614  1.1614  0.9300

 Free energy of the ion-electron system (eV)
  ---------------------------------------------------
  alpha Z        PSCENC =        87.52689448
  Ewald energy   TEWEN  =     -1419.49053956
  -Hartree energ DENC   =      -136.72106206
  -exchange      EXHF   =         0.00000000
  -V(xc)+E(xc)   XCENC  =       -32.10542283
  PAW double counting   =      1933.98305387    -1821.56743776
  entropy T*S    EENTRO =        -0.00006304
  eigenvalues    EBANDS =       -93.73097069
  atomic energy  EATOM  =      1448.49460871
  Solvation  Ediel_sol  =         0.00000000
  ---------------------------------------------------
  free energy    TOTEN  =       -33.61093888 eV

  energy without entropy =      -33.61087585  energy(sigma->0) =      -33.61090736


--------------------------------------------------------------------------------------------------------




--------------------------------------- Iteration      1(  12)  ---------------------------------------


    POTLOK:  cpu time      0.0100: real time      0.0101
    SETDIJ:  cpu time      0.2189: real time      0.2195
     EDDAV:  cpu time      0.4568: real time      0.4599
       DOS:  cpu time      0.0009: real time      0.0009
    --------------------------------------------
      LOOP:  cpu time      0.6867: real time      0.6905

 eigenvalue-minimisations  :  3424
 total energy-change (2. order) :-0.3224132E-06  (-0.5690433E-06)
 number of electron      39.9999994 magnetization 
 augmentation part       -7.3517216 magnetization 

 Free energy of the ion-electron system (eV)
  ---------------------------------------------------
  alpha Z        PSCENC =        87.52689448
  Ewald energy   TEWEN  =     -1419.49053956
  -Hartree energ DENC   =      -136.73604574
  -exchange      EXHF   =         0.00000000
  -V(xc)+E(xc)   XCENC  =       -32.10444320
  PAW double counting   =      1933.13872731    -1820.72288719
  entropy T*S    EENTRO =        -0.00006396
  eigenvalues    EBANDS =       -93.71719005
  atomic energy  EATOM  =      1448.49460871
  Solvation  Ediel_sol  =         0.00000000
  ---------------------------------------------------
  free energy    TOTEN  =       -33.61093921 eV

  energy without entropy =      -33.61087524  energy(sigma->0) =      -33.61090722


--------------------------------------------------------------------------------------------------------




 average (electrostatic) potential at core
  the test charge radii are     1.1631  1.0808
  (the norm of the test charge is              1.0000)
       1 -33.4496       2 -33.4496       3 -33.4496       4 -33.4496       5 -54.9569
       6 -54.9569       7 -54.9569       8 -54.9569
 
 
 
 E-fermi :   3.8563     XC(G=0):  -9.2877     alpha+bet : -8.7197

 Fermi energy:         3.8562743894

 k-point     1 :       0.0000    0.0000    0.0000
  band No.  band energies     occupation 
      1     -10.9582      2.00000
      2     -10.6139      2.00000
      3      -9.7013      2.00000
      4      -9.1807      2.00000
      5      -4.8425      2.00000
      6      -4.0705      2.00000
      7      -2.9518      2.00000
      8      -1.9952      2.00000
      9      -1.8447      2.00000
     10      -0.3854      2.00000
     11      -0.2037      2.00000
     12      -0.0663      2.00000
     13       0.2952      2.00000
     14       0.3545      2.00000
     15       1.4967      2.00000
     16       1.6250      2.00000
     17       1.6855      2.00000
     18       2.1669      2.00000
     19       2.3116      2.00000
     20       3.7771      1.97482
     21       3.9354      0.02518
     22       5.7191      0.00000
     23       5.7243      0.00000
     24       5.9008      0.00000
     25       6.2540      0.00000
     26       6.6446      0.00000
     27       6.9233      0.00000
     28       7.0176      0.00000
     29       8.1952      0.00000
     30       8.4576      0.00000
     31       8.5299      0.00000
     32       9.4542      0.00000

 k-point     2 :       0.1667    0.0000    0.0000
  band No.  band energies     occupation 
      1     -10.7699      2.00000
      2     -10.4363      2.00000
      3      -9.5907      2.00000
      4      -9.1190      2.00000
      5      -5.0516      2.00000
      6      -4.2959      2.00000
      7      -3.3349      2.00000
      8      -2.5153      2.00000
      9      -1.6784      2.00000
     10      -0.2294      2.00000
     11      -0.1621      2.00000
     12      -0.0291      2.00000
     13       0.0175      2.00000
     14       0.3913      2.00000
     15       1.2730      2.00000
     16       1.4797      2.00000
     17       1.6272      2.00000
     18       2.0163      2.00000
     19       2.6100      2.00000
     20       3.5919      2.00000
     21       4.1507      0.00000
     22       5.3472      0.00000
     23       5.7913      0.00000
     24       6.0887      0.00000
     25       6.3687      0.00000
     26       6.5390      0.00000
     27       6.7988      0.00000
     28       7.1730      0.00000
     29       7.3228      0.00000
     30       8.0673      0.00000
     31       8.2087      0.00000
     32       9.1058      0.00000

 k-point     3 :       0.3333    0.0000    0.0000
  band No.  band energies     occupation 
      1     -10.2581      2.00000
      2      -9.9619      2.00000
      3      -9.4201      2.00000
      4      -9.0975      2.00000
      5      -5.4675      2.00000
      6      -4.6904      2.00000
      7      -4.4027      2.00000
      8      -3.5861      2.00000
      9      -1.1168      2.00000
     10      -0.2176      2.00000
     11      -0.0467      2.00000
     12       0.3895      2.00000
     13       0.4604      2.00000
     14       0.7419      2.00000
     15       1.0798      2.00000
     16       1.5275      2.00000
     17       1.5550      2.00000
     18       1.6227      2.00000
     19       2.7393      2.00000
     20       3.0835      2.00000
     21       4.1451      0.00000
     22       4.5586      0.00000
     23       4.7630      0.00000
     24       5.2552      0.00000
     25       5.4212      0.00000
     26       5.8478      0.00000
     27       5.8835      0.00000
     28       6.7057      0.00000
     29       6.9156      0.00000
     30       7.3218      0.00000
     31       7.6330      0.00000
     32       9.0000      0.00000

 k-point     4 :       0.5000    0.0000    0.0000
  band No.  band energies     occupation 
      1      -9.6467      2.00000
      2      -9.6467      2.00000
      3      -9.4077      2.00000
      4      -9.4077      2.00000
      5      -5.3374      2.00000
      6      -5.3374      2.00000
      7      -4.5023      2.00000
      8      -4.5023      2.00000
      9      -0.3357      2.00000
     10      -0.3357      2.00000
     11       0.4189      2.00000
     12       0.4189      2.00000
     13       0.8771      2.00000
     14       0.8771      2.00000
     15       1.1771      2.00000
     16       1.1771      2.00000
     17       1.5136      2.00000
     18       1.5136      2.00000
     19       2.5706      2.00000
     20       2.5706      2.00000
     21       4.1485      0.00000
     22       4.1485      0.00000
     23       4.8522      0.00000
     24       4.8522      0.00000
     25       5.1376      0.00000
     26       5.1376      0.00000
     27       5.7444      0.00000
     28       5.7444      0.00000
     29       6.3943      0.00000
     30       6.3943      0.00000
     31       8.2335      0.00000
     32       8.2335      0.00000

 k-point     5 :       0.0000    0.1667    0.0000
  band No.  band energies     occupation 
      1     -10.8423      2.00000
      2     -10.5061      2.00000
      3      -9.7099      2.00000
      4      -9.2414      2.00000
      5      -5.1253      2.00000
      6      -4.2080      2.00000
      7      -3.5385      2.00000
      8      -2.5531      2.00000
      9      -1.6641      2.00000
     10      -0.0804      2.00000
     11       0.3897      2.00000
     12       0.4118      2.00000
     13       0.4720      2.00000
     14       0.5011      2.00000
     15       1.5963      2.00000
     16       1.6497      2.00000
     17       1.7544      2.00000
     18       2.0237      2.00000
     19       2.6821      2.00000
     20       3.4906      2.00000
     21       4.1806      0.00000
     22       5.2132      0.00000
     23       5.7977      0.00000
     24       5.8686      0.00000
     25       6.0013      0.00000
     26       6.5548      0.00000
     27       6.6235      0.00000
     28       6.9759      0.00000
     29       7.8280      0.00000
     30       7.8539      0.00000
     31       7.9975      0.00000
     32       9.4037      0.00000

 k-point     6 :       0.1667    0.1667    0.0000
  band No.  band energies     occupation 
      1     -10.6595      2.00000
      2     -10.3346      2.00000
      3      -9.5993      2.00000
      4      -9.1769      2.00000
      5      -5.1640      2.00000
      6      -4.3654      2.00000
      7      -3.6594      2.00000
      8      -2.9057      2.00000
      9      -1.5280      2.00000
     10      -0.7492      2.00000
     11      -0.5232      2.00000
     12       0.1333      2.00000
     13       0.8513      2.00000
     14       0.9377      2.00000
     15       1.2546      2.00000
     16       1.2575      2.00000
     17       1.7375      2.00000
     18       2.1183      2.00000
     19       2.8295      2.00000
     20       3.3573      2.00000
     21       4.4231      0.00000
     22       5.1450      0.00000
     23       5.5533      0.00000
     24       5.6821      0.00000
     25       6.2435      0.00000
     26       6.4441      0.00000
     27       6.8443      0.00000
     28       6.9378      0.00000
     29       7.5929      0.00000
     30       8.0125      0.00000
     31       8.1104      0.00000
     32       9.0014      0.00000

 k-point     7 :       0.1667   -0.1667    0.0000
  band No.  band energies     occupation 
      1     -10.6599      2.00000
      2     -10.3337      2.00000
      3      -9.6028      2.00000
      4      -9.1687      2.00000
      5      -5.2305      2.00000
      6      -4.2985      2.00000
      7      -3.7523      2.00000
      8      -2.7849      2.00000
      9      -1.4995      2.00000
     10      -0.7001      2.00000
     11      -0.5140      2.00000
     12       0.0586      2.00000
     13       0.8341      2.00000
     14       0.9452      2.00000
     15       1.1281      2.00000
     16       1.3346      2.00000
     17       1.7899      2.00000
     18       2.0490      2.00000
     19       2.8151      2.00000
     20       3.4382      2.00000
     21       4.2931      0.00000
     22       5.0036      0.00000
     23       5.4995      0.00000
     24       5.5530      0.00000
     25       6.4446      0.00000
     26       6.6978      0.00000
     27       7.2092      0.00000
     28       7.2660      0.00000
     29       7.4331      0.00000
     30       7.5055      0.00000
     31       7.9822      0.00000
     32       9.5501      0.00000

 k-point     8 :       0.3333    0.1667    0.0000
  band No.  band energies     occupation 
      1     -10.1687      2.00000
      2      -9.8815      2.00000
      3      -9.4202      2.00000
      4      -9.1268      2.00000
      5      -5.3594      2.00000
      6      -4.6560      2.00000
      7      -4.3797      2.00000
      8      -3.7347      2.00000
      9      -1.0056      2.00000
     10      -0.9659      2.00000
     11      -0.8353      2.00000
     12      -0.1008      2.00000
     13       0.8367      2.00000
     14       0.9931      2.00000
     15       0.9989      2.00000
     16       1.1576      2.00000
     17       1.2787      2.00000
     18       1.6767      2.00000
     19       2.5401      2.00000
     20       3.0954      2.00000
     21       4.2572      0.00000
     22       5.0865      0.00000
     23       5.1080      0.00000
     24       5.2328      0.00000
     25       5.7277      0.00000
     26       6.3565      0.00000
     27       6.6502      0.00000
     28       6.6564      0.00000
     29       7.6013      0.00000
     30       7.6476      0.00000
     31       8.3765      0.00000
     32       8.6203      0.00000

 k-point     9 :       0.3333   -0.1667    0.0000
  band No.  band energies     occupation 
      1     -10.1696      2.00000
      2      -9.8801      2.00000
      3      -9.4291      2.00000
      4      -9.1109      2.00000
      5      -5.4391      2.00000
      6      -4.5783      2.00000
      7      -4.4739      2.00000
      8      -3.6120      2.00000
      9      -1.0603      2.00000
     10      -0.9814      2.00000
     11      -0.6588      2.00000
     12      -0.1249      2.00000
     13       0.5750      2.00000
     14       0.8063      2.00000
     15       1.0460      2.00000
     16       1.2290      2.00000
     17       1.4327      2.00000
     18       1.8960      2.00000
     19       2.4563      2.00000
     20       2.9846      2.00000
     21       4.2365      0.00000
     22       4.8560      0.00000
     23       4.8943      0.00000
     24       5.5574      0.00000
     25       5.9616      0.00000
     26       6.0990      0.00000
     27       6.8831      0.00000
     28       6.9478      0.00000
     29       7.1400      0.00000
     30       7.9272      0.00000
     31       8.4938      0.00000
     32       8.8067      0.00000

 k-point    10 :       0.5000    0.1667    0.0000
  band No.  band energies     occupation 
      1      -9.6073      2.00000
      2      -9.6041      2.00000
      3      -9.3736      2.00000
      4      -9.3684      2.00000
      5      -5.2385      2.00000
      6      -5.2349      2.00000
      7      -4.4675      2.00000
      8      -4.4528      2.00000
      9      -0.6015      2.00000
     10      -0.5170      2.00000
     11      -0.3373      2.00000
     12      -0.0138      2.00000
     13       0.1634      2.00000
     14       0.4632      2.00000
     15       0.6469      2.00000
     16       0.6912      2.00000
     17       1.5273      2.00000
     18       1.5554      2.00000
     19       2.7368      2.00000
     20       2.7466      2.00000
     21       4.2327      0.00000
     22       4.2976      0.00000
     23       5.3045      0.00000
     24       5.5407      0.00000
     25       6.0156      0.00000
     26       6.1313      0.00000
     27       6.2629      0.00000
     28       6.5978      0.00000
     29       7.0762      0.00000
     30       7.2393      0.00000
     31       7.8892      0.00000
     32       7.9684      0.00000

 k-point    11 :       0.0000    0.3333    0.0000
  band No.  band energies     occupation 
      1     -10.5255      2.00000
      2     -10.2111      2.00000
      3      -9.8126      2.00000
      4      -9.4562      2.00000
      5      -5.4463      2.00000
      6      -4.5435      2.00000
      7      -4.3547      2.00000
      8      -3.4178      2.00000
      9      -1.2208      2.00000
     10       0.3062      2.00000
     11       0.7558      2.00000
     12       0.8568      2.00000
     13       1.2394      2.00000
     14       1.2431      2.00000
     15       1.5681      2.00000
     16       1.5985      2.00000
     17       1.6271      2.00000
     18       2.7979      2.00000
     19       2.9986      2.00000
     20       3.1597      2.00000
     21       4.4302      0.00000
     22       4.7133      0.00000
     23       4.9215      0.00000
     24       5.5511      0.00000
     25       5.9496      0.00000
     26       5.9893      0.00000
     27       6.1207      0.00000
     28       6.8633      0.00000
     29       6.8938      0.00000
     30       6.9547      0.00000
     31       8.0352      0.00000
     32       9.4926      0.00000

 k-point    12 :       0.1667    0.3333    0.0000
  band No.  band energies     occupation 
      1     -10.3604      2.00000
      2     -10.0571      2.00000
      3      -9.6976      2.00000
      4      -9.3683      2.00000
      5      -5.3472      2.00000
      6      -4.4639      2.00000
      7      -4.3385      2.00000
      8      -3.5329      2.00000
      9      -1.0707      2.00000
     10      -0.8205      2.00000
     11      -0.4253      2.00000
     12       0.2276      2.00000
     13       0.5378      2.00000
     14       0.7068      2.00000
     15       1.3947      2.00000
     16       1.7575      2.00000
     17       1.9352      2.00000
     18       2.1985      2.00000
     19       2.9661      2.00000
     20       3.1756      2.00000
     21       4.5978      0.00000
     22       5.3003      0.00000
     23       5.4798      0.00000
     24       5.7615      0.00000
     25       5.9417      0.00000
     26       6.1135      0.00000
     27       6.8401      0.00000
     28       7.1403      0.00000
     29       7.5291      0.00000
     30       7.6634      0.00000
     31       8.3102      0.00000
     32       8.8458      0.00000

 k-point    13 :       0.1667   -0.3333    0.0000
  band No.  band energies     occupation 
      1     -10.3609      2.00000
      2     -10.0562      2.00000
      3      -9.7020      2.00000
      4      -9.3593      2.00000
      5      -5.3807      2.00000
      6      -4.5316      2.00000
      7      -4.3200      2.00000
      8      -3.4348      2.00000
      9      -1.0349      2.00000
     10      -0.6490      2.00000
     11      -0.5303      2.00000
     12       0.0995      2.00000
     13       0.5252      2.00000
     14       0.6525      2.00000
     15       1.3385      2.00000
     16       1.8513      2.00000
     17       2.1338      2.00000
     18       2.3064      2.00000
     19       2.7266      2.00000
     20       3.0455      2.00000
     21       4.6358      0.00000
     22       5.1026      0.00000
     23       5.5578      0.00000
     24       5.7118      0.00000
     25       5.9501      0.00000
     26       6.2713      0.00000
     27       6.9050      0.00000
     28       7.1825      0.00000
     29       7.4800      0.00000
     30       7.9112      0.00000
     31       8.0393      0.00000
     32       9.2604      0.00000

 k-point    14 :       0.3333    0.3333    0.0000
  band No.  band energies     occupation 
      1      -9.9367      2.00000
      2      -9.6688      2.00000
      3      -9.4778      2.00000
      4      -9.2213      2.00000
      5      -5.1822      2.00000
      6      -4.5262      2.00000
      7      -4.4492      2.00000
      8      -3.9916      2.00000
      9      -1.5514      2.00000
     10      -1.2714      2.00000
     11      -0.8509      2.00000
     12      -0.6320      2.00000
     13      -0.1789      2.00000
     14       0.5796      2.00000
     15       0.6061      2.00000
     16       0.6656      2.00000
     17       0.9008      2.00000
     18       1.9267      2.00000
     19       2.5392      2.00000
     20       2.8303      2.00000
     21       4.4339      0.00000
     22       6.0731      0.00000
     23       6.1872      0.00000
     24       6.3057      0.00000
     25       6.6728      0.00000
     26       6.6899      0.00000
     27       6.7688      0.00000
     28       7.7916      0.00000
     29       8.2298      0.00000
     30       8.4153      0.00000
     31       8.8992      0.00000
     32       9.5735      0.00000

 k-point    15 :       0.3333   -0.3333    0.0000
  band No.  band energies     occupation 
      1      -9.9374      2.00000
      2      -9.6680      2.00000
      3      -9.4882      2.00000
      4      -9.2034      2.00000
      5      -5.2554      2.00000
      6      -4.6616      2.00000
      7      -4.3879      2.00000
      8      -3.8007      2.00000
      9      -1.5610      2.00000
     10      -1.1873      2.00000
     11      -0.9121      2.00000
     12      -0.6355      2.00000
     13      -0.2285      2.00000
     14       0.2887      2.00000
     15       0.4736      2.00000
     16       1.0442      2.00000
     17       1.1561      2.00000
     18       1.6780      2.00000
     19       2.4270      2.00000
     20       3.0239      2.00000
     21       4.3044      0.00000
     22       5.8561      0.00000
     23       5.9918      0.00000
     24       6.4441      0.00000
     25       6.5932      0.00000
     26       7.1333      0.00000
     27       7.2359      0.00000
     28       7.5153      0.00000
     29       8.1366      0.00000
     30       8.4403      0.00000
     31       8.6860      0.00000
     32       9.5139      0.00000

 k-point    16 :       0.5000    0.3333    0.0000
  band No.  band energies     occupation 
      1      -9.5229      2.00000
      2      -9.5172      2.00000
      3      -9.2994      2.00000
      4      -9.2900      2.00000
      5      -5.0051      2.00000
      6      -4.9929      2.00000
      7      -4.4129      2.00000
      8      -4.3762      2.00000
      9      -1.2556      2.00000
     10      -1.2531      2.00000
     11      -0.8720      2.00000
     12      -0.7957      2.00000
     13      -0.3605      2.00000
     14      -0.2304      2.00000
     15       0.1630      2.00000
     16       0.2566      2.00000
     17       0.8373      2.00000
     18       1.0841      2.00000
     19       2.5620      2.00000
     20       2.7190      2.00000
     21       5.2327      0.00000
     22       5.2710      0.00000
     23       6.3747      0.00000
     24       6.6040      0.00000
     25       6.9316      0.00000
     26       7.0339      0.00000
     27       7.3089      0.00000
     28       7.5054      0.00000
     29       8.1559      0.00000
     30       8.3543      0.00000
     31       9.1234      0.00000
     32       9.2602      0.00000

 k-point    17 :       0.0000    0.5000    0.0000
  band No.  band energies     occupation 
      1     -10.1175      2.00000
      2     -10.1175      2.00000
      3      -9.8174      2.00000
      4      -9.8174      2.00000
      5      -5.2667      2.00000
      6      -5.2667      2.00000
      7      -4.1027      2.00000
      8      -4.1027      2.00000
      9      -0.4775      2.00000
     10      -0.4775      2.00000
     11       1.2623      2.00000
     12       1.2623      2.00000
     13       1.2890      2.00000
     14       1.2890      2.00000
     15       1.9448      2.00000
     16       1.9448      2.00000
     17       2.2210      2.00000
     18       2.2210      2.00000
     19       2.9466      2.00000
     20       2.9466      2.00000
     21       4.6921      0.00000
     22       4.6921      0.00000
     23       5.1333      0.00000
     24       5.1333      0.00000
     25       5.6328      0.00000
     26       5.6328      0.00000
     27       6.2591      0.00000
     28       6.2591      0.00000
     29       6.2802      0.00000
     30       6.2802      0.00000
     31       8.9568      0.00000
     32       8.9568      0.00000

 k-point    18 :       0.1667    0.5000    0.0000
  band No.  band energies     occupation 
      1      -9.9818      2.00000
      2      -9.9807      2.00000
      3      -9.6926      2.00000
      4      -9.6903      2.00000
      5      -5.1577      2.00000
      6      -5.1387      2.00000
      7      -4.0780      2.00000
      8      -4.0356      2.00000
      9      -0.4991      2.00000
     10      -0.4633      2.00000
     11      -0.2389      2.00000
     12      -0.0899      2.00000
     13       0.1047      2.00000
     14       0.1455      2.00000
     15       1.5388      2.00000
     16       1.8454      2.00000
     17       1.9349      2.00000
     18       2.4952      2.00000
     19       2.9401      2.00000
     20       3.0668      2.00000
     21       4.7750      0.00000
     22       4.8541      0.00000
     23       5.8129      0.00000
     24       5.8259      0.00000
     25       6.1153      0.00000
     26       6.3965      0.00000
     27       6.9691      0.00000
     28       7.1056      0.00000
     29       7.3302      0.00000
     30       7.3670      0.00000
     31       8.5157      0.00000
     32       8.5753      0.00000

 k-point    19 :       0.3333    0.5000    0.0000
  band No.  band energies     occupation 
      1      -9.6673      2.00000
      2      -9.6637      2.00000
      3      -9.4144      2.00000
      4      -9.4078      2.00000
      5      -4.9484      2.00000
      6      -4.9139      2.00000
      7      -4.1944      2.00000
      8      -4.1155      2.00000
      9      -1.5170      2.00000
     10      -1.3933      2.00000
     11      -1.0041      2.00000
     12      -0.9667      2.00000
     13      -0.1502      2.00000
     14      -0.1371      2.00000
     15       0.4045      2.00000
     16       0.5703      2.00000
     17       1.0159      2.00000
     18       1.4077      2.00000
     19       2.5801      2.00000
     20       2.7657      2.00000
     21       5.2622      0.00000
     22       5.2802      0.00000
     23       6.8313      0.00000
     24       6.9395      0.00000
     25       7.2584      0.00000
     26       7.2731      0.00000
     27       7.6351      0.00000
     28       7.8045      0.00000
     29       8.5592      0.00000
     30       8.6872      0.00000
     31       9.2008      0.00000
     32       9.4134      0.00000

 k-point    20 :       0.5000    0.5000    0.0000
  band No.  band energies     occupation 
      1      -9.4785      2.00000
      2      -9.4719      2.00000
      3      -9.2605      2.00000
      4      -9.2496      2.00000
      5      -4.8615      2.00000
      6      -4.8363      2.00000
      7      -4.4128      2.00000
      8      -4.3545      2.00000
      9      -1.5551      2.00000
     10      -1.4428      2.00000
     11      -1.2559      2.00000
     12      -1.1023      2.00000
     13      -0.6828      2.00000
     14      -0.2675      2.00000
     15      -0.1870      2.00000
     16      -0.0090      2.00000
     17       0.6083      2.00000
     18       1.0042      2.00000
[...]
     32       8.3828      0.00000

 k-point    32 :       0.1667    0.3333    0.5000
  band No.  band energies     occupation 
      1     -10.2436      2.00000
      2     -10.2436      2.00000
      3      -9.4989      2.00000
      4      -9.4989      2.00000
      5      -5.0213      2.00000
      6      -5.0213      2.00000
      7      -3.8845      2.00000
      8      -3.8845      2.00000
      9      -0.7534      2.00000
     10      -0.7534      2.00000
     11       0.0134      2.00000
     12       0.0134      2.00000
     13       0.4430      2.00000
     14       0.4430      2.00000
     15       1.4628      2.00000
     16       1.4628      2.00000
     17       2.0887      2.00000
     18       2.0887      2.00000
     19       2.7900      2.00000
     20       2.7900      2.00000
     21       5.2867      0.00000
     22       5.2867      0.00000
     23       5.6624      0.00000
     24       5.6624      0.00000
     25       6.3262      0.00000
     26       6.3262      0.00000
     27       7.0882      0.00000
     28       7.0882      0.00000
     29       7.3028      0.00000
     30       7.3028      0.00000
     31       8.2984      0.00000
     32       8.2984      0.00000

 k-point    33 :       0.1667   -0.3333    0.5000
  band No.  band energies     occupation 
      1     -10.2443      2.00000
      2     -10.2443      2.00000
      3      -9.4960      2.00000
      4      -9.4960      2.00000
      5      -5.0610      2.00000
      6      -5.0610      2.00000
      7      -3.8392      2.00000
      8      -3.8392      2.00000
      9      -0.7728      2.00000
     10      -0.7728      2.00000
     11       0.0786      2.00000
     12       0.0786      2.00000
     13       0.4374      2.00000
     14       0.4374      2.00000
     15       1.4936      2.00000
     16       1.4936      2.00000
     17       2.0792      2.00000
     18       2.0792      2.00000
     19       2.6595      2.00000
     20       2.6595      2.00000
     21       5.2445      0.00000
     22       5.2445      0.00000
     23       5.6022      0.00000
     24       5.6022      0.00000
     25       6.4568      0.00000
     26       6.4568      0.00000
     27       6.8491      0.00000
     28       6.8491      0.00000
     29       7.7854      0.00000
     30       7.7854      0.00000
     31       8.4637      0.00000
     32       8.4637      0.00000

 k-point    34 :       0.3333    0.3333    0.5000
  band No.  band energies     occupation 
      1      -9.8378      2.00000
      2      -9.8378      2.00000
      3      -9.3154      2.00000
      4      -9.3154      2.00000
      5      -4.9142      2.00000
      6      -4.9142      2.00000
      7      -4.1903      2.00000
      8      -4.1903      2.00000
      9      -1.4528      2.00000
     10      -1.4528      2.00000
     11      -0.6181      2.00000
     12      -0.6181      2.00000
     13       0.0900      2.00000
     14       0.0900      2.00000
     15       0.7759      2.00000
     16       0.7759      2.00000
     17       1.3979      2.00000
     18       1.3979      2.00000
     19       2.3704      2.00000
     20       2.3704      2.00000
     21       5.5514      0.00000
     22       5.5514      0.00000
     23       6.2490      0.00000
     24       6.2490      0.00000
     25       6.5917      0.00000
     26       6.5917      0.00000
     27       7.4134      0.00000
     28       7.4134      0.00000
     29       7.9848      0.00000
     30       7.9848      0.00000
     31       9.4149      0.00000
     32       9.4149      0.00000

 k-point    35 :       0.3333   -0.3333    0.5000
  band No.  band energies     occupation 
      1      -9.8400      2.00000
      2      -9.8400      2.00000
      3      -9.3098      2.00000
      4      -9.3098      2.00000
      5      -5.0048      2.00000
      6      -5.0048      2.00000
      7      -4.0754      2.00000
      8      -4.0754      2.00000
      9      -1.4963      2.00000
     10      -1.4963      2.00000
     11      -0.6302      2.00000
     12      -0.6302      2.00000
     13       0.1507      2.00000
     14       0.1507      2.00000
     15       0.7720      2.00000
     16       0.7720      2.00000
     17       1.4929      2.00000
     18       1.4929      2.00000
     19       2.2073      2.00000
     20       2.2073      2.00000
     21       5.4072      0.00000
     22       5.4072      0.00000
     23       6.1525      0.00000
     24       6.1525      0.00000
     25       6.8410      0.00000
     26       6.8410      0.00000
     27       7.7322      0.00000
     28       7.7322      0.00000
     29       8.1189      0.00000
     30       8.1189      0.00000
     31       9.0843      0.00000
     32       9.0843      0.00000

 k-point    36 :       0.5000    0.3333    0.5000
  band No.  band energies     occupation 
      1      -9.5150      2.00000
      2      -9.5150      2.00000
      3      -9.3012      2.00000
      4      -9.3012      2.00000
      5      -4.9336      2.00000
      6      -4.9336      2.00000
      7      -4.4746      2.00000
      8      -4.4746      2.00000
      9      -1.2155      2.00000
     10      -1.2155      2.00000
     11      -0.9556      2.00000
     12      -0.9556      2.00000
     13      -0.1763      2.00000
     14      -0.1763      2.00000
     15       0.1122      2.00000
     16       0.1122      2.00000
     17       1.5151      2.00000
     18       1.5151      2.00000
     19       1.9610      2.00000
     20       1.9610      2.00000
     21       5.7533      0.00000
     22       5.7533      0.00000
     23       6.2018      0.00000
     24       6.2018      0.00000
     25       6.8824      0.00000
     26       6.8824      0.00000
     27       7.4156      0.00000
     28       7.4156      0.00000
     29       8.5214      0.00000
     30       8.5214      0.00000
     31       8.8911      0.00000
     32       8.8911      0.00000

 k-point    37 :       0.0000    0.5000    0.5000
  band No.  band energies     occupation 
      1     -10.1114      2.00000
      2     -10.1114      2.00000
      3      -9.8257      2.00000
      4      -9.8257      2.00000
      5      -5.1603      2.00000
      6      -5.1603      2.00000
      7      -4.2956      2.00000
      8      -4.2956      2.00000
      9       0.3452      2.00000
     10       0.3452      2.00000
     11       0.6587      2.00000
     12       0.6587      2.00000
     13       1.2852      2.00000
     14       1.2852      2.00000
     15       1.3096      2.00000
     16       1.3096      2.00000
     17       2.5047      2.00000
     18       2.5047      2.00000
     19       2.9566      2.00000
     20       2.9566      2.00000
     21       4.7633      0.00000
     22       4.7633      0.00000
     23       4.9258      0.00000
     24       4.9258      0.00000
     25       6.1203      0.00000
     26       6.1203      0.00000
     27       6.1690      0.00000
     28       6.1690      0.00000
     29       6.8531      0.00000
     30       6.8531      0.00000
     31       8.2299      0.00000
     32       8.2299      0.00000

 k-point    38 :       0.1667    0.5000    0.5000
  band No.  band energies     occupation 
      1      -9.9755      2.00000
      2      -9.9755      2.00000
      3      -9.6992      2.00000
      4      -9.6992      2.00000
      5      -5.0525      2.00000
      6      -5.0525      2.00000
      7      -4.2218      2.00000
      8      -4.2218      2.00000
      9      -0.3679      2.00000
     10      -0.3679      2.00000
     11      -0.1393      2.00000
     12      -0.1393      2.00000
     13       0.7721      2.00000
     14       0.7721      2.00000
     15       0.8685      2.00000
     16       0.8685      2.00000
     17       2.1634      2.00000
     18       2.1634      2.00000
     19       2.7466      2.00000
     20       2.7466      2.00000
     21       5.5009      0.00000
     22       5.5009      0.00000
     23       5.6662      0.00000
     24       5.6663      0.00000
     25       6.4904      0.00000
     26       6.4904      0.00000
     27       6.9913      0.00000
     28       6.9913      0.00000
     29       7.4407      0.00000
     30       7.4407      0.00000
     31       8.1996      0.00000
     32       8.1996      0.00000

 k-point    39 :       0.3333    0.5000    0.5000
  band No.  band energies     occupation 
      1      -9.6609      2.00000
      2      -9.6609      2.00000
      3      -9.4172      2.00000
      4      -9.4172      2.00000
      5      -4.8673      2.00000
      6      -4.8673      2.00000
      7      -4.2410      2.00000
      8      -4.2410      2.00000
      9      -1.3118      2.00000
     10      -1.3118      2.00000
     11      -1.2863      2.00000
     12      -1.2863      2.00000
     13       0.2580      2.00000
     14       0.2580      2.00000
     15       0.4260      2.00000
     16       0.4260      2.00000
     17       1.4600      2.00000
     18       1.4600      2.00000
     19       1.9909      2.00000
     20       1.9909      2.00000
     21       5.9276      0.00000
     22       5.9276      0.00000
     23       6.4898      0.00000
     24       6.4898      0.00000
     25       7.3025      0.00000
     26       7.3025      0.00000
     27       7.6881      0.00000
     28       7.6881      0.00000
     29       8.7619      0.00000
     30       8.7619      0.00000
     31       9.2102      0.00000
     32       9.2102      0.00000

 k-point    40 :       0.5000    0.5000    0.5000
  band No.  band energies     occupation 
      1      -9.4715      2.00000
      2      -9.4715      2.00000
      3      -9.2596      2.00000
      4      -9.2596      2.00000
      5      -4.8037      2.00000
      6      -4.8037      2.00000
      7      -4.4342      2.00000
      8      -4.4342      2.00000
      9      -1.4870      2.00000
     10      -1.4870      2.00000
     11      -1.1493      2.00000
     12      -1.1493      2.00000
     13      -0.5582      2.00000
     14      -0.5582      2.00000
     15      -0.3094      2.00000
     16      -0.3094      2.00000
     17       1.5724      2.00000
     18       1.5724      2.00000
     19       1.9776      2.00000
     20       1.9776      2.00000
     21       5.8560      0.00000
     22       5.8560      0.00000
     23       6.0988      0.00000
     24       6.0988      0.00000
     25       7.7543      0.00000
     26       7.7543      0.00000
     27       8.1622      0.00000
     28       8.1622      0.00000
     29       9.1959      0.00000
     30       9.1959      0.00000
     31       9.9492      0.00000
     32       9.9492      0.00000


--------------------------------------------------------------------------------------------------------


 soft charge-density along one line, spin component            1
         0         1         2         3         4         5         6         7         8         9
 total charge-density along one line
 
 pseudopotential strength for first ion, spin component:            1
 14.511  18.104   0.039   0.040   0.004   0.069   0.072   0.007
 18.104  22.601   0.049   0.051   0.005   0.088   0.091   0.009
  0.039   0.049   3.224  -0.002  -0.000   5.488  -0.004  -0.001
  0.040   0.051  -0.002   3.221  -0.000  -0.004   5.484  -0.000
  0.004   0.005  -0.000  -0.000   3.225  -0.001  -0.000   5.490
  0.069   0.088   5.488  -0.004  -0.001   9.399  -0.007  -0.001
  0.072   0.091  -0.004   5.484  -0.000  -0.007   9.392  -0.000
  0.007   0.009  -0.001  -0.000   5.490  -0.001  -0.000   9.403
 -0.001  -0.001   0.001  -0.000   0.006   0.002  -0.000   0.012
 -0.005  -0.006   0.010   0.012  -0.000   0.018   0.022  -0.000
 -0.004  -0.005  -0.003   0.010  -0.001  -0.006   0.019  -0.001
 -0.000  -0.000  -0.000   0.001   0.010  -0.000   0.001   0.019
  0.001   0.002  -0.011   0.000   0.001  -0.021   0.000   0.002
 total augmentation occupancy for first ion, spin component:            1
  2.781  -0.744   0.318   0.314   0.030  -0.059  -0.057  -0.005  -0.006  -0.001   0.003  -0.011   0.010
 -0.744   0.698  -0.408  -0.423  -0.038   0.064   0.066   0.006   0.007  -0.000  -0.003   0.012  -0.007
  0.318  -0.408   1.239   0.080   0.000  -0.203  -0.006   0.001   0.003   0.042  -0.102   0.003   0.003
  0.314  -0.423   0.080   1.358  -0.020  -0.006  -0.221   0.006   0.006  -0.026   0.087   0.011  -0.004
  0.030  -0.038   0.000  -0.020   1.256   0.002   0.006  -0.217   0.143   0.003   0.004   0.036   0.001
 -0.059   0.064  -0.203  -0.006   0.002   0.037  -0.000  -0.000  -0.001  -0.007   0.017  -0.001  -0.000
 -0.057   0.066  -0.006  -0.221   0.006  -0.000   0.041  -0.002  -0.001   0.004  -0.015  -0.002   0.001
 -0.005   0.006   0.001   0.006  -0.217  -0.000  -0.002   0.042  -0.025  -0.001  -0.001  -0.006  -0.000
 -0.006   0.007   0.003   0.006   0.143  -0.001  -0.001  -0.025   0.031  -0.001  -0.001   0.004   0.000
 -0.001  -0.000   0.042  -0.026   0.003  -0.007   0.004  -0.001  -0.001   0.012  -0.006  -0.001   0.001
  0.003  -0.003  -0.102   0.087   0.004   0.017  -0.015  -0.001  -0.001  -0.006   0.032  -0.002  -0.002
 -0.011   0.012   0.003   0.011   0.036  -0.001  -0.002  -0.006   0.004  -0.001  -0.002   0.011  -0.000
  0.010  -0.007   0.003  -0.004   0.001  -0.000   0.001  -0.000   0.000   0.001  -0.002  -0.000   0.008


------------------------ aborting loop because EDIFF is reached ----------------------------------------


    CHARGE:  cpu time      0.0203: real time      0.0203
    FORLOC:  cpu time      0.0004: real time      0.0004
    FORNL :  cpu time      0.0538: real time      0.0541
    STRESS:  cpu time      0.4681: real time      0.4705
    FORCOR:  cpu time      0.0090: real time      0.0090
    FORHAR:  cpu time      0.0022: real time      0.0022
    MIXING:  cpu time      0.0026: real time      0.0026
    OFIELD:  cpu time      0.0000: real time      0.0000

  FORCE on cell =-STRESS in cart. coord.  units (eV):
  Direction    XX          YY          ZZ          XY          YZ          ZX
  --------------------------------------------------------------------------------------
  Alpha Z    87.52689    87.52689    87.52689
  Ewald    -440.24132  -486.48441  -492.76641    -4.78771    -0.00000    -0.00000
  Hartree    61.59438    41.84628    33.30245    -1.34932    -0.00000     0.00000
  E(xc)    -141.27064  -141.29290  -141.50965    -0.04926    -0.00000     0.00000
  Local    -185.99170  -125.89251  -115.07977     5.91588    -0.00000    -0.00000
  n-local   240.61580   240.10702   241.82512     0.04581     0.00000     0.00000
  augment   -11.38159   -11.78053   -12.16000     0.00994    -0.00000    -0.00000
  Kinetic   390.32664   396.29793   401.87904    -0.68705    -0.00000     0.00000
  Fock        0.00000     0.00000     0.00000     0.00000     0.00000     0.00000
  -------------------------------------------------------------------------------------
  Total       1.17847     0.32778     3.01768    -0.90171    -0.00000    -0.00000
  in kB       9.75309     2.71272    24.97453    -7.46262    -0.00001    -0.00000
  external pressure =       12.48 kB  Pullay stress =        0.00 kB


 VOLUME and BASIS-vectors are now :
 -----------------------------------------------------------------------------
  energy-cutoff  :      520.00
  volume of cell :      193.59
      direct lattice vectors                 reciprocal lattice vectors
     3.858100176  0.000000000  0.000000000     0.259194929  0.000000000  0.000000000
     0.000000000  4.526575088  0.000000000     0.000000000  0.220917577  0.000000000
     0.000000000  0.000000000 11.085176468     0.000000000  0.000000000  0.090210562

  length of vectors
     3.858100176  4.526575088 11.085176468     0.259194929  0.220917577  0.090210562


 FORCES acting on ions
    electron-ion (+dipol)            ewald-force                    non-local-force                 convergence-correction
 -----------------------------------------------------------------------------------------------
   0.544E+00 0.145E+02 0.255E+02   -.839E+00 -.169E+02 -.280E+02   0.239E+00 0.241E+01 0.270E+01   -.653E-05 0.466E-04 -.124E-02
   0.544E+00 0.145E+02 -.255E+02   -.839E+00 -.169E+02 0.280E+02   0.239E+00 0.241E+01 -.270E+01   -.601E-05 0.431E-04 0.125E-02
   -.544E+00 -.145E+02 -.255E+02   0.839E+00 0.169E+02 0.280E+02   -.239E+00 -.241E+01 -.270E+01   0.577E-05 -.447E-04 0.124E-02
   -.544E+00 -.145E+02 0.255E+02   0.839E+00 0.169E+02 -.280E+02   -.239E+00 -.241E+01 0.270E+01   0.600E-05 -.432E-04 -.125E-02
   0.112E+01 -.144E+02 -.239E+02   -.948E+00 0.159E+02 0.254E+02   -.331E+00 -.151E+01 -.157E+01   -.504E-04 0.246E-03 0.253E-02
   0.112E+01 -.144E+02 0.239E+02   -.948E+00 0.159E+02 -.254E+02   -.331E+00 -.151E+01 0.157E+01   -.498E-04 0.250E-03 -.251E-02
   -.112E+01 0.144E+02 0.239E+02   0.948E+00 -.159E+02 -.254E+02   0.331E+00 0.151E+01 0.157E+01   0.501E-04 -.248E-03 -.253E-02
   -.112E+01 0.144E+02 -.239E+02   0.948E+00 -.159E+02 0.254E+02   0.331E+00 0.151E+01 -.157E+01   0.516E-04 -.250E-03 0.251E-02
 -----------------------------------------------------------------------------------------------
   0.645E-05 0.346E-05 -.281E-05   -.311E-14 0.533E-14 0.355E-14   0.101E-03 0.138E-03 0.127E-05   0.729E-06 -.104E-05 0.555E-06
 
 
 POSITION                                       TOTAL-FORCE (eV/Angst)
 -----------------------------------------------------------------------------------
      1.85916      0.38537      1.36328        -0.056598      0.010864      0.203517
      3.78821      2.64866      4.17930        -0.056598      0.010864     -0.203517
      2.89358      4.01000      9.72189         0.056587     -0.010987     -0.203512
      0.96453      1.74671      6.90587         0.056587     -0.010987      0.203513
      1.85916      4.36509      3.90621        -0.160591      0.032967     -0.022717
      3.78821      2.10180      1.63637        -0.160591      0.032967      0.022716
      2.89358      0.03028      7.17896         0.160603     -0.032844      0.022777
      0.96453      2.29357      9.44880         0.160602     -0.032844     -0.022777
 -----------------------------------------------------------------------------------
    total drift:                                0.000108      0.000141     -0.000001


--------------------------------------------------------------------------------------------------------



  FREE ENERGIE OF THE ION-ELECTRON SYSTEM (eV)
  ---------------------------------------------------
  free  energy   TOTEN  =       -33.61093921 eV

  energy  without entropy=      -33.61087524  energy(sigma->0) =      -33.61090722
 


--------------------------------------------------------------------------------------------------------


    POTLOK:  cpu time      0.2293: real time      0.2301


--------------------------------------------------------------------------------------------------------


     LOOP+:  cpu time      8.1775: real time      8.2229
    4ORBIT:  cpu time      0.0000: real time      0.0000

 total amount of memory used by VASP MPI-rank0    41770. kBytes
=======================================================================

   base      :      30000. kBytes
   nonl-proj :       9056. kBytes
   fftplans  :        519. kBytes
   grid      :        766. kBytes
   one-center:         16. kBytes
   wavefun   :       1413. kBytes
 
  
  
 General timing and accounting informations for this job:
 ========================================================
  
                  Total CPU time used (sec):        9.945
                            User time (sec):        9.636
                          System time (sec):        0.309
                         Elapsed time (sec):       10.273
  
                   Maximum memory used (kb):      180524.
                   Average memory used (kb):          N/A
  
                          Minor page faults:        21635
                          Major page faults:           33
                 Voluntary context switches:         1980
