 running  160 mpi-ranks, with    1 threads/rank, on   10 nodes
 distrk:  each k-point on   80 cores,    2 groups
 distr:  one band on    5 cores,   16 groups
 vasp.6.4.2 20Jul23 (build Oct 12 2023 10:31:02) complex                         
 POSCAR found type information on POSCAR GeSe
 POSCAR found :  2 types and       8 ions
 Reading from existing POTCAR
 scaLAPACK will be used
 Reading from existing POTCAR
 LDA part: xc-table for Pade appr. of Perdew
 POSCAR, INCAR and KPOINTS ok, starting setup
 FFT: planning ... GRIDC
 FFT: planning ... GRID_SOFT
 FFT: planning ... GRID
 WAVECAR not read
 entering main loop
       N       E                     dE             d eps       ncg     rms          rms(c)
DAV:   1     0.132228798180E+03    0.13223E+03   -0.12866E+04  2560   0.772E+02
DAV:   2    -0.251103186851E+02   -0.15734E+03   -0.15277E+03  3712   0.139E+02
DAV:   3    -0.340315214403E+02   -0.89212E+01   -0.89012E+01  3216   0.384E+01
DAV:   4    -0.340965073422E+02   -0.64986E-01   -0.64975E-01  3376   0.375E+00
DAV:   5    -0.340969831176E+02   -0.47578E-03   -0.47576E-03  3296   0.309E-01    0.650E+00
DAV:   6    -0.337377986741E+02    0.35918E+00   -0.77480E-01  3152   0.292E+00    0.410E+00
DAV:   7    -0.337290230328E+02    0.87756E-02   -0.21620E-01  3088   0.167E+00    0.125E+00
DAV:   8    -0.337288999818E+02    0.12305E-03   -0.20328E-02  3104   0.542E-01    0.188E-01
DAV:   9    -0.337294871233E+02   -0.58714E-03   -0.36471E-03  3184   0.262E-01    0.718E-02
DAV:  10    -0.337296793271E+02   -0.19220E-03   -0.36165E-04  3232   0.793E-02    0.264E-02
DAV:  11    -0.337297343769E+02   -0.55050E-04   -0.61358E-05  3072   0.343E-02    0.125E-02
DAV:  12    -0.337297371206E+02   -0.27437E-05   -0.82826E-06  3456   0.116E-02    0.290E-03
DAV:  13    -0.337297383249E+02   -0.12043E-05   -0.19278E-06  2656   0.584E-03    0.117E-03
DAV:  14    -0.337297385510E+02   -0.22617E-06   -0.22647E-07  1648   0.200E-03
   1 F= -.33729739E+02 E0= -.33729473E+02  d E =-.531674E-03
