 running  160 mpi-ranks, with    1 threads/rank, on   10 nodes
 distrk:  each k-point on   80 cores,    2 groups
 distr:  one band on    5 cores,   16 groups
 vasp.6.4.2 20Jul23 (build Oct 12 2023 10:31:02) complex                         
 POSCAR found type information on POSCAR GeSe
 POSCAR found :  2 types and       8 ions
 Reading from existing POTCAR
 scaLAPACK will be used
 Reading from existing POTCAR
 LDA part: xc-table for Pade appr. of Perdew
 POSCAR, INCAR and KPOINTS ok, starting setup
 FFT: planning ... GRIDC
 FFT: planning ... GRID_SOFT
 FFT: planning ... GRID
 WAVECAR not read
 entering main loop
       N       E                     dE             d eps       ncg     rms          rms(c)
DAV:   1     0.132964487841E+03    0.13296E+03   -0.12884E+04  2560   0.773E+02
DAV:   2    -0.249900613613E+02   -0.15795E+03   -0.15320E+03  3728   0.139E+02
DAV:   3    -0.339663334680E+02   -0.89763E+01   -0.89570E+01  3088   0.386E+01
DAV:   4    -0.340329765938E+02   -0.66643E-01   -0.66622E-01  3456   0.380E+00
DAV:   5    -0.340334577443E+02   -0.48115E-03   -0.48114E-03  3040   0.313E-01    0.650E+00
DAV:   6    -0.336217756060E+02    0.41168E+00   -0.82102E-01  3168   0.305E+00    0.407E+00
DAV:   7    -0.336146290843E+02    0.71465E-02   -0.25361E-01  3360   0.176E+00    0.131E+00
DAV:   8    -0.336134630646E+02    0.11660E-02   -0.29544E-02  2992   0.637E-01    0.172E-01
DAV:   9    -0.336138526025E+02   -0.38954E-03   -0.39369E-03  3152   0.275E-01    0.656E-02
DAV:  10    -0.336140495799E+02   -0.19698E-03   -0.39423E-04  3136   0.865E-02    0.230E-02
DAV:  11    -0.336140947858E+02   -0.45206E-04   -0.54132E-05  3344   0.326E-02    0.123E-02
DAV:  12    -0.336140978247E+02   -0.30388E-05   -0.99618E-06  3280   0.123E-02    0.242E-03
DAV:  13    -0.336140986247E+02   -0.79998E-06   -0.14946E-06  2416   0.517E-03
   1 F= -.33614099E+02 E0= -.33614099E+02  d E =-.138768E-12
