 running  128 mpi-ranks, with    1 threads/rank, on    2 nodes
 distrk:  each k-point on   64 cores,    2 groups
 distr:  one band on    8 cores,    8 groups
 vasp.6.4.2 20Jul23 (build Oct 12 2023 10:31:02) complex                         
 POSCAR found type information on POSCAR GeSe
 POSCAR found :  2 types and      72 ions
 Reading from existing POTCAR
 -----------------------------------------------------------------------------
|                                                                             |
|           W    W    AA    RRRRR   N    N  II  N    N   GGGG   !!!           |
|           W    W   A  A   R    R  NN   N  II  NN   N  G    G  !!!           |
|           W    W  A    A  R    R  N N  N  II  N N  N  G       !!!           |
|           W WW W  AAAAAA  RRRRR   N  N N  II  N  N N  G  GGG   !            |
|           WW  WW  A    A  R   R   N   NN  II  N   NN  G    G                |
|           W    W  A    A  R    R  N    N  II  N    N   GGGG   !!!           |
|                                                                             |
|     You use a magnetic or noncollinear calculation, but did not specify     |
|     the initial magnetic moment with the MAGMOM tag. Note that a            |
|     default of 1 will be used for all atoms. This ferromagnetic setup       |
|     may break the symmetry of the crystal, in particular it may rule        |
|     out finding an antiferromagnetic solution. Thence, we recommend         |
|     setting the initial magnetic moment manually or verifying carefully     |
|     that this magnetic setup is desired.                                    |
|                                                                             |
 -----------------------------------------------------------------------------

 scaLAPACK will be used
 Reading from existing POTCAR
 -----------------------------------------------------------------------------
|                                                                             |
|               ----> ADVICE to this user running VASP <----                  |
|                                                                             |
|     You have a (more or less) 'large supercell' and for larger cells it     |
|     might be more efficient to use real-space projection operators.         |
|     Therefore, try LREAL= Auto in the INCAR file.                           |
|     Mind: For very accurate calculation, you might also keep the            |
|     reciprocal projection scheme (i.e. LREAL=.FALSE.).                      |
|                                                                             |
 -----------------------------------------------------------------------------

 LDA part: xc-table for Pade appr. of Perdew
 -----------------------------------------------------------------------------
|                                                                             |
|           W    W    AA    RRRRR   N    N  II  N    N   GGGG   !!!           |
|           W    W   A  A   R    R  NN   N  II  NN   N  G    G  !!!           |
|           W    W  A    A  R    R  N N  N  II  N N  N  G       !!!           |
|           W WW W  AAAAAA  RRRRR   N  N N  II  N  N N  G  GGG   !            |
|           WW  WW  A    A  R   R   N   NN  II  N   NN  G    G                |
|           W    W  A    A  R    R  N    N  II  N    N   GGGG   !!!           |
|                                                                             |
|     The number of bands has been changed from the values supplied in        |
|     the INCAR file. This is a result of running the parallel version.       |
|     The orbitals not found in the WAVECAR file will be initialized with     |
|     random numbers, which is usually adequate. For correlated               |
|     calculations, however, you should redo the groundstate calculation.     |
|     I found NBANDS = 220. Now, NBANDS = 224.                                |
|                                                                             |
 -----------------------------------------------------------------------------

 POSCAR, INCAR and KPOINTS ok, starting setup
 FFT: planning ... GRIDC
 FFT: planning ... GRID_SOFT
 FFT: planning ... GRID
 WAVECAR not read
 WARNING: random wavefunctions but no delay for mixing, default for NELMDL
 entering main loop
       N       E                     dE             d eps       ncg     rms          rms(c)
DAV:   1     0.182329751709E+04    0.18233E+04   -0.14179E+05  7168   0.135E+03
DAV:   2    -0.646376755362E+02   -0.18879E+04   -0.18126E+04  8496   0.205E+02
DAV:   3    -0.281648048715E+03   -0.21701E+03   -0.21132E+03  8528   0.693E+01
DAV:   4    -0.289538103575E+03   -0.78901E+01   -0.77993E+01  8792   0.130E+01
DAV:   5    -0.289812394576E+03   -0.27429E+00   -0.27353E+00  8992   0.211E+00    0.294E+01
DAV:   6    -0.289751248333E+03    0.61146E-01   -0.25605E+01  7896   0.754E+00    0.175E+01
DAV:   7    -0.297082387029E+03   -0.73311E+01   -0.85281E+00  7968   0.454E+00    0.914E+00
DAV:   8    -0.300271936469E+03   -0.31895E+01   -0.17816E+00  8192   0.228E+00    0.318E+00
DAV:   9    -0.300613752494E+03   -0.34182E+00   -0.39654E-01  9040   0.101E+00    0.146E+00
DAV:  10    -0.300711315255E+03   -0.97563E-01   -0.87298E-02  8176   0.448E-01    0.733E-01
DAV:  11    -0.300743897763E+03   -0.32583E-01   -0.35479E-02  8736   0.283E-01    0.287E-01
DAV:  12    -0.300747500535E+03   -0.36028E-02   -0.48260E-03  8688   0.121E-01    0.101E-01
DAV:  13    -0.300747609265E+03   -0.10873E-03   -0.52912E-04  9752   0.365E-02    0.426E-02
DAV:  14    -0.300747624118E+03   -0.14852E-04   -0.91955E-05  8264   0.189E-02    0.154E-02
DAV:  15    -0.300747627604E+03   -0.34865E-05   -0.15774E-05  8576   0.916E-03    0.707E-03
DAV:  16    -0.300747628338E+03   -0.73363E-06   -0.14897E-06  4808   0.274E-03
   1 F= -.30074763E+03 E0= -.30074763E+03  d E =-.185340E-15  mag=     0.0004
