 running   32 mpi-ranks, with    1 threads/rank, on    2 nodes
 distrk:  each k-point on   16 cores,    2 groups
 distr:  one band on    1 cores,   16 groups
 vasp.6.4.2 20Jul23 (build Oct 12 2023 10:31:02) complex                         
 POSCAR found type information on POSCAR GeSe
 POSCAR found :  2 types and       8 ions
 Reading from existing POTCAR
 -----------------------------------------------------------------------------
|                                                                             |
|           W    W    AA    RRRRR   N    N  II  N    N   GGGG   !!!           |
|           W    W   A  A   R    R  NN   N  II  NN   N  G    G  !!!           |
|           W    W  A    A  R    R  N N  N  II  N N  N  G       !!!           |
|           W WW W  AAAAAA  RRRRR   N  N N  II  N  N N  G  GGG   !            |
|           WW  WW  A    A  R   R   N   NN  II  N   NN  G    G                |
|           W    W  A    A  R    R  N    N  II  N    N   GGGG   !!!           |
|                                                                             |
|     You use a magnetic or noncollinear calculation, but did not specify     |
|     the initial magnetic moment with the MAGMOM tag. Note that a            |
|     default of 1 will be used for all atoms. This ferromagnetic setup       |
|     may break the symmetry of the crystal, in particular it may rule        |
|     out finding an antiferromagnetic solution. Thence, we recommend         |
|     setting the initial magnetic moment manually or verifying carefully     |
|     that this magnetic setup is desired.                                    |
|                                                                             |
 -----------------------------------------------------------------------------

 scaLAPACK will be used
 Reading from existing POTCAR
 LDA part: xc-table for Pade appr. of Perdew
 -----------------------------------------------------------------------------
|                                                                             |
|           W    W    AA    RRRRR   N    N  II  N    N   GGGG   !!!           |
|           W    W   A  A   R    R  NN   N  II  NN   N  G    G  !!!           |
|           W    W  A    A  R    R  N N  N  II  N N  N  G       !!!           |
|           W WW W  AAAAAA  RRRRR   N  N N  II  N  N N  G  GGG   !            |
|           WW  WW  A    A  R   R   N   NN  II  N   NN  G    G                |
|           W    W  A    A  R    R  N    N  II  N    N   GGGG   !!!           |
|                                                                             |
|     The number of bands has been changed from the values supplied in        |
|     the INCAR file. This is a result of running the parallel version.       |
|     The orbitals not found in the WAVECAR file will be initialized with     |
|     random numbers, which is usually adequate. For correlated               |
|     calculations, however, you should redo the groundstate calculation.     |
|     I found NBANDS = 220. Now, NBANDS = 224.                                |
|                                                                             |
 -----------------------------------------------------------------------------

 POSCAR, INCAR and KPOINTS ok, starting setup
 FFT: planning ... GRIDC
 FFT: planning ... GRID_SOFT
 FFT: planning ... GRID
 WAVECAR not read
 WARNING: random wavefunctions but no delay for mixing, default for NELMDL
 entering main loop
       N       E                     dE             d eps       ncg     rms          rms(c)
DAV:   1     0.181559140329E+03    0.18156E+03   -0.91367E+03 28672   0.130E+02
DAV:   2    -0.198295899414E+02   -0.20139E+03   -0.18060E+03 34576   0.392E+01
DAV:   3    -0.323745280900E+02   -0.12545E+02   -0.12334E+02 34656   0.976E+00
DAV:   4    -0.324758571367E+02   -0.10133E+00   -0.10130E+00 33744   0.809E-01
DAV:   5    -0.324765008546E+02   -0.64372E-03   -0.64370E-03 33424   0.679E-02    0.967E+00
DAV:   6    -0.242357771403E+02    0.82407E+01   -0.45892E+00 31520   0.204E+00    0.630E+00
DAV:   7    -0.231484523613E+02    0.10873E+01   -0.91056E-01 31920   0.798E-01    0.430E+00
DAV:   8    -0.243750313713E+02   -0.12266E+01   -0.23363E-01 34032   0.450E-01    0.280E+00
DAV:   9    -0.262589114336E+02   -0.18839E+01   -0.19900E-01 32144   0.389E-01    0.236E+00
DAV:  10    -0.291166842667E+02   -0.28578E+01   -0.59803E-01 31568   0.639E-01    0.185E+00
DAV:  11    -0.315163413908E+02   -0.23997E+01   -0.47348E-01 31504   0.559E-01    0.135E+00
DAV:  12    -0.324514486681E+02   -0.93511E+00   -0.13392E-01 32544   0.318E-01    0.932E-01
DAV:  13    -0.326251078123E+02   -0.17366E+00   -0.72345E-02 32016   0.246E-01    0.499E-01
DAV:  14    -0.327687543428E+02   -0.14365E+00   -0.16304E-02 32048   0.125E-01    0.277E-01
DAV:  15    -0.333665463853E+02   -0.59779E+00   -0.38802E-03 30640   0.741E-02    0.126E-01
DAV:  16    -0.335147868221E+02   -0.14824E+00   -0.21678E-03 32496   0.401E-02    0.602E-02
DAV:  17    -0.335185904318E+02   -0.38036E-02   -0.43719E-04 32864   0.190E-02    0.362E-02
DAV:  18    -0.335195145333E+02   -0.92410E-03   -0.19908E-04 32032   0.142E-02    0.231E-02
DAV:  19    -0.335195388285E+02   -0.24295E-04   -0.67042E-05 32432   0.825E-03    0.175E-02
DAV:  20    -0.335195035449E+02    0.35284E-04   -0.40541E-05 31760   0.673E-03    0.109E-02
DAV:  21    -0.335194852409E+02    0.18304E-04   -0.17067E-05 32176   0.462E-03    0.600E-03
DAV:  22    -0.335194943336E+02   -0.90927E-05   -0.41435E-06 32512   0.232E-03    0.342E-03
DAV:  23    -0.335195247032E+02   -0.30370E-04   -0.14563E-06 31344   0.139E-03    0.180E-03
DAV:  24    -0.335195413751E+02   -0.16672E-04   -0.77539E-07 31952   0.112E-03    0.105E-03
DAV:  25    -0.335195511372E+02   -0.97622E-05   -0.63983E-07 31856   0.987E-04    0.548E-04
DAV:  26    -0.335195590728E+02   -0.79355E-05   -0.36111E-07 31888   0.693E-04    0.267E-04
DAV:  27    -0.335195660004E+02   -0.69276E-05   -0.11284E-07 31328   0.370E-04    0.125E-04
DAV:  28    -0.335195664338E+02   -0.43343E-06   -0.15874E-08 31648   0.140E-04
   1 F= -.33519566E+02 E0= -.33519566E+02  d E =-.142143E-17  mag=     0.0000
 writing wavefunctions
