 vasp.6.4.2 20Jul23 (build Oct 12 2023 10:31:02) complex                         
 executed on              LinuxNV date 2025.05.19  14:48:32
 running  160 mpi-ranks, with    1 threads/rank, on   10 nodes
 distrk:  each k-point on   80 cores,    2 groups
 distr:  one band on NCORE=   5 cores,   16 groups


--------------------------------------------------------------------------------------------------------


 INCAR:
   ENCUT = 360.000000
   SIGMA = 0.050000
   EDIFF = 1.00e-06
   ALGO = Normal
   GGA = PE
   PREC = Normal
   SYSTEM = ./
   ICHARG = 2
   ISMEAR = 0
   ISPIN = 1
   ISTART = 0
   ISYM = 0
   KPAR = 2
   LMAXMIX = 4
   NELM = 100
   NPAR = 16
   LASPH = .TRUE.
   LCHARG = .FALSE.
   LWAVE = .FALSE.

 POTCAR:    PAW_PBE Ge 05Jan2001                  
 POTCAR:    PAW_PBE Se 06Sep2000                  
 POTCAR:    PAW_PBE Ge 05Jan2001                  
   VRHFIN =Ge: s2p2                                                                                 
   LEXCH  = PE                                                                                      
   EATOM  =   104.9960 eV,    7.7170 Ry                                                             
                                                                                                    
   TITEL  = PAW_PBE Ge 05Jan2001                                                                    
   LULTRA =        F    use ultrasoft PP ?                                                          
   IUNSCR =        1    unscreen: 0-lin 1-nonlin 2-no                                               
   RPACOR =    2.170    partial core radius                                                         
   POMASS =   72.610; ZVAL   =    4.000    mass and valenz                                          
   RCORE  =    2.300    outmost cutoff radius                                                       
   RWIGS  =    2.300; RWIGS  =    1.217    wigner-seitz radius (au A)                               
   ENMAX  =  173.807; ENMIN  =  130.355 eV                                                          
   ICORE  =        3    local potential                                                             
   LCOR   =        T    correct aug charges                                                         
   LPAW   =        T    paw PP                                                                      
   EAUG   =  385.843                                                                                
   DEXC   =    0.000                                                                                
   RMAX   =    2.342    core radius for proj-oper                                                   
   RAUG   =    1.300    factor for augmentation sphere                                              
   RDEP   =    2.318    radius for radial grids                                                     
   RDEPT  =    2.103    core radius for aug-charge                                                  
                                                                                                    
   Atomic configuration                                                                             
   10 entries                                                                                       
     n  l   j            E        occ.                                                              
     1  0  0.50    -10959.8463   2.0000                                                             
     2  0  0.50     -1371.6056   2.0000                                                             
     2  1  1.50     -1198.4791   6.0000                                                             
     3  0  0.50      -168.4733   2.0000                                                             
     3  1  1.50      -115.6019   6.0000                                                             
     3  2  2.50       -29.3106  10.0000                                                             
     4  0  0.50       -11.7309   2.0000                                                             
     4  1  0.50        -3.8952   2.0000                                                             
     4  2  1.50        -4.0817   0.0000                                                             
     4  3  2.50        -4.0817   0.0000                                                             
   Description                                                                                      
     l       E           TYP  RCUT    TYP  RCUT                                                     
     0    -11.7309493     23  2.300                                                                 
     0     -7.4578696     23  2.300                                                                 
     1     -3.8952261     23  2.300                                                                 
     1      6.1178114     23  2.300                                                                 
     2     -4.0817478     23  2.300                                                                 
     3     -1.3605826      7  2.300                                                                 
  local pseudopotential read in
  partial core-charges read in
  partial kinetic energy density read in
  atomic valenz-charges read in
  non local Contribution for L=            0  read in
    real space projection operators read in
  non local Contribution for L=            0  read in
    real space projection operators read in
  non local Contribution for L=            1  read in
    real space projection operators read in
  non local Contribution for L=            1  read in
    real space projection operators read in
  non local Contribution for L=            2  read in
    real space projection operators read in
    PAW grid and wavefunctions read in
 
   number of l-projection  operators is LMAX  =            5
   number of lm-projection operators is LMMAX =           13
 
 POTCAR:    PAW_PBE Se 06Sep2000                  
   VRHFIN =Se: s2p4                                                                                 
   LEXCH  = PE                                                                                      
   EATOM  =   257.1286 eV,   18.8984 Ry                                                             
                                                                                                    
   TITEL  = PAW_PBE Se 06Sep2000                                                                    
   LULTRA =        F    use ultrasoft PP ?                                                          
   IUNSCR =        1    unscreen: 0-lin 1-nonlin 2-no                                               
   RPACOR =    1.900    partial core radius                                                         
   POMASS =   78.960; ZVAL   =    6.000    mass and valenz                                          
   RCORE  =    2.100    outmost cutoff radius                                                       
   RWIGS  =    2.200; RWIGS  =    1.164    wigner-seitz radius (au A)                               
   ENMAX  =  211.555; ENMIN  =  158.666 eV                                                          
   ICORE  =        3    local potential                                                             
   LCOR   =        T    correct aug charges                                                         
   LPAW   =        T    paw PP                                                                      
   EAUG   =  446.842                                                                                
   DEXC   =    0.000                                                                                
   RMAX   =    2.147    core radius for proj-oper                                                   
   RAUG   =    1.300    factor for augmentation sphere                                              
   RDEP   =    2.177    radius for radial grids                                                     
   RDEPT  =    1.928    core radius for aug-charge                                                  
                                                                                                    
   Atomic configuration                                                                             
   10 entries                                                                                       
     n  l   j            E        occ.                                                              
     1  0  0.50    -12503.4787   2.0000                                                             
     2  0  0.50     -1606.9547   2.0000                                                             
     2  1  1.50     -1413.3140   6.0000                                                             
     3  0  0.50      -213.4885   2.0000                                                             
     3  1  1.50      -152.9538   6.0000                                                             
     3  2  2.50       -53.1221  10.0000                                                             
     4  0  0.50       -17.2865   2.0000                                                             
     4  1  0.50        -6.5110   4.0000                                                             
     4  2  2.50        -6.8029   0.0000                                                             
     4  3  2.50        -6.8029   0.0000                                                             
   Description                                                                                      
     l       E           TYP  RCUT    TYP  RCUT                                                     
     0    -17.2865377     23  2.100                                                                 
     0    -15.3094411     23  2.100                                                                 
     1     -6.5110275     23  2.100                                                                 
     1     -0.0695192     23  2.100                                                                 
     2     -6.8029130     23  2.100                                                                 
     3     -1.3605826      7  2.100                                                                 
  local pseudopotential read in
  partial core-charges read in
  partial kinetic energy density read in
  atomic valenz-charges read in
  non local Contribution for L=            0  read in
    real space projection operators read in
  non local Contribution for L=            0  read in
    real space projection operators read in
  non local Contribution for L=            1  read in
    real space projection operators read in
  non local Contribution for L=            1  read in
    real space projection operators read in
  non local Contribution for L=            2  read in
    real space projection operators read in
    PAW grid and wavefunctions read in
 
   number of l-projection  operators is LMAX  =            5
   number of lm-projection operators is LMMAX =           13
 
  PAW_PBE Ge 05Jan2001                  :
 energy of atom  1       EATOM= -104.9960
 kinetic energy error for atom=    0.0005 (will be added to EATOM!!)
  PAW_PBE Se 06Sep2000                  :
 energy of atom  2       EATOM= -257.1286
 kinetic energy error for atom=    0.0030 (will be added to EATOM!!)
 
 
 POSCAR: Ge Se
  positions in cartesian coordinates
  No initial velocities read in
 exchange correlation table for  LEXCH =        8
   RHO(1)=    0.500       N(1)  =     2000
   RHO(2)=  100.500       N(2)  =     4000
 


--------------------------------------------------------------------------------------------------------


 ion  position               nearest neighbor table
   1  0.931  0.415  0.132-   5 2.59   6 2.60   6 2.60
   2  0.431  0.915  0.368-   6 2.59   5 2.60   5 2.60
   3  0.750  0.904  0.868-   7 2.59   8 2.60   8 2.60
   4  0.250  0.404  0.632-   8 2.59   7 2.60   7 2.60
   5  0.931  0.298  0.351-   1 2.59   2 2.60   2 2.60
   6  0.431  0.798  0.149-   2 2.59   1 2.60   1 2.60
   7  0.750  0.021  0.649-   3 2.59   4 2.60   4 2.60
   8  0.250  0.521  0.851-   4 2.59   3 2.60   3 2.60
 

IMPORTANT INFORMATION: All symmetrisations will be switched off!
NOSYMM: (Re-)initialisation of all symmetry stuff for point group C_1.


----------------------------------------------------------------------------------------

                                     Primitive cell                                     

  volume of cell :     202.3233

  direct lattice vectors                    reciprocal lattice vectors
     3.858100176  0.000000000  0.000000000     0.259194929  0.000000000  0.000000000
     0.000000000  4.526575088  0.000000000     0.000000000  0.220917577  0.000000000
     0.000000000  0.000000000 11.585176468     0.000000000  0.000000000  0.086317200

  length of vectors
     3.858100176  4.526575088 11.585176468     0.259194929  0.220917577  0.086317200

  position of ions in fractional coordinates (direct lattice)
     0.931159423  0.415083937  0.131971745
     0.431159388  0.915083924  0.368028228
     0.749999855  0.903756548  0.868028249
     0.249999781  0.403756501  0.631971759
     0.931159407  0.298306284  0.351109927
     0.431159424  0.798306305  0.148890049
     0.749999761  0.020534152  0.648890076
     0.249999838  0.520534176  0.851109946

  ion indices of the primitive-cell ions
   primitive index   ion index
                 1           1
                 2           2
                 3           3
                 4           4
                 5           5
                 6           6
                 7           7
                 8           8

----------------------------------------------------------------------------------------

 
 
 KPOINTS: KPOINTS created by Atomic Simulation Env

Automatic generation of k-mesh.
 Grid dimensions read from file:
 generate k-points for:    6    6    2

 Generating k-lattice:

  Cartesian coordinates                     Fractional coordinates (reciprocal lattice)
     0.043199155  0.000000000  0.000000000     0.166666667  0.000000000  0.000000000
     0.000000000  0.036819596  0.000000000     0.000000000  0.166666667  0.000000000
     0.000000000  0.000000000  0.043158600     0.000000000  0.000000000  0.500000000

  Length of vectors
     0.043199155  0.036819596  0.043158600

  Shift w.r.t. Gamma in fractional coordinates (k-lattice)
     0.000000000  0.000000000  0.000000000

 
 Subroutine IBZKPT returns following result:
 ===========================================
 
 Found     40 irreducible k-points:
 
 Following reciprocal coordinates:
            Coordinates               Weight
  0.000000  0.000000  0.000000      1.000000
  0.166667  0.000000  0.000000      2.000000
  0.333333  0.000000  0.000000      2.000000
  0.500000  0.000000  0.000000      1.000000
  0.000000  0.166667  0.000000      2.000000
  0.166667  0.166667  0.000000      2.000000
  0.166667 -0.166667  0.000000      2.000000
  0.333333  0.166667  0.000000      2.000000
  0.333333 -0.166667  0.000000      2.000000
  0.500000  0.166667  0.000000      2.000000
  0.000000  0.333333  0.000000      2.000000
  0.166667  0.333333  0.000000      2.000000
  0.166667 -0.333333  0.000000      2.000000
  0.333333  0.333333  0.000000      2.000000
  0.333333 -0.333333  0.000000      2.000000
  0.500000  0.333333  0.000000      2.000000
  0.000000  0.500000  0.000000      1.000000
  0.166667  0.500000  0.000000      2.000000
  0.333333  0.500000  0.000000      2.000000
  0.500000  0.500000  0.000000      1.000000
  0.000000  0.000000  0.500000      1.000000
  0.166667  0.000000  0.500000      2.000000
  0.333333  0.000000  0.500000      2.000000
  0.500000  0.000000  0.500000      1.000000
  0.000000  0.166667  0.500000      2.000000
  0.166667  0.166667  0.500000      2.000000
  0.166667 -0.166667  0.500000      2.000000
  0.333333  0.166667  0.500000      2.000000
  0.333333 -0.166667  0.500000      2.000000
  0.500000  0.166667  0.500000      2.000000
  0.000000  0.333333  0.500000      2.000000
  0.166667  0.333333  0.500000      2.000000
  0.166667 -0.333333  0.500000      2.000000
  0.333333  0.333333  0.500000      2.000000
  0.333333 -0.333333  0.500000      2.000000
  0.500000  0.333333  0.500000      2.000000
  0.000000  0.500000  0.500000      1.000000
  0.166667  0.500000  0.500000      2.000000
  0.333333  0.500000  0.500000      2.000000
  0.500000  0.500000  0.500000      1.000000
 
 Following cartesian coordinates:
            Coordinates               Weight
  0.000000  0.000000  0.000000      1.000000
  0.043199  0.000000  0.000000      2.000000
  0.086398  0.000000  0.000000      2.000000
  0.129597  0.000000  0.000000      1.000000
  0.000000  0.036820  0.000000      2.000000
  0.043199  0.036820  0.000000      2.000000
  0.043199 -0.036820  0.000000      2.000000
  0.086398  0.036820  0.000000      2.000000
  0.086398 -0.036820  0.000000      2.000000
  0.129597  0.036820  0.000000      2.000000
  0.000000  0.073639  0.000000      2.000000
  0.043199  0.073639  0.000000      2.000000
  0.043199 -0.073639  0.000000      2.000000
  0.086398  0.073639  0.000000      2.000000
  0.086398 -0.073639  0.000000      2.000000
  0.129597  0.073639  0.000000      2.000000
  0.000000  0.110459  0.000000      1.000000
  0.043199  0.110459  0.000000      2.000000
  0.086398  0.110459  0.000000      2.000000
  0.129597  0.110459  0.000000      1.000000
  0.000000  0.000000  0.043159      1.000000
  0.043199  0.000000  0.043159      2.000000
  0.086398  0.000000  0.043159      2.000000
  0.129597  0.000000  0.043159      1.000000
  0.000000  0.036820  0.043159      2.000000
  0.043199  0.036820  0.043159      2.000000
  0.043199 -0.036820  0.043159      2.000000
  0.086398  0.036820  0.043159      2.000000
  0.086398 -0.036820  0.043159      2.000000
  0.129597  0.036820  0.043159      2.000000
  0.000000  0.073639  0.043159      2.000000
  0.043199  0.073639  0.043159      2.000000
  0.043199 -0.073639  0.043159      2.000000
  0.086398  0.073639  0.043159      2.000000
  0.086398 -0.073639  0.043159      2.000000
  0.129597  0.073639  0.043159      2.000000
  0.000000  0.110459  0.043159      1.000000
  0.043199  0.110459  0.043159      2.000000
  0.086398  0.110459  0.043159      2.000000
  0.129597  0.110459  0.043159      1.000000
 


--------------------------------------------------------------------------------------------------------




 Dimension of arrays:
   k-points           NKPTS =     40   k-points in BZ     NKDIM =     40   number of bands    NBANDS=     32
   number of dos      NEDOS =    301   number of ions     NIONS =      8
   non local maximal  LDIM  =      5   non local SUM 2l+1 LMDIM =     13
   total plane-waves  NPLWV =  23328
   max r-space proj   IRMAX =      1   max aug-charges    IRDMAX=   6465
   dimension x,y,z NGX =    18 NGY =   24 NGZ =   54
   dimension x,y,z NGXF=    36 NGYF=   48 NGZF=  108
   support grid    NGXF=    36 NGYF=   48 NGZF=  108
   ions per type =               4   4
   NGX,Y,Z   is equivalent  to a cutoff of   7.76,  8.81,  7.75 a.u.
   NGXF,Y,Z  is equivalent  to a cutoff of  15.51, 17.63, 15.50 a.u.

 SYSTEM =  ./                                      
 POSCAR =  Ge Se                                   

 Startparameter for this run:
   NWRITE =      2    write-flag & timer
   PREC   = normal    normal or accurate (medium, high low for compatibility)
   ISTART =      0    job   : 0-new  1-cont  2-samecut
   ICHARG =      2    charge: 1-file 2-atom 10-const
   ISPIN  =      1    spin polarized calculation?
   LNONCOLLINEAR =      F non collinear calculations
   LSORBIT =      F    spin-orbit coupling
   INIWAV =      1    electr: 0-lowe 1-rand  2-diag
   LASPH  =      T    aspherical Exc in radial PAW
 Electronic Relaxation 1
   ENCUT  =  360.0 eV  26.46 Ry    5.14 a.u.   5.97  7.00 17.92*2*pi/ulx,y,z
   ENINI  =  360.0     initial cutoff
   ENAUG  =  446.8 eV  augmentation charge cutoff
   NELM   =    100;   NELMIN=  2; NELMDL= -5     # of ELM steps 
   EDIFF  = 0.1E-05   stopping-criterion for ELM
   LREAL  =      F    real-space projection
   NLSPLINE    = F    spline interpolate recip. space projectors
   LCOMPAT=      F    compatible to vasp.4.4
   GGA_COMPAT  = T    GGA compatible to vasp.4.4-vasp.4.6
   LMAXPAW     = -100 max onsite density
   LMAXMIX     =    4 max onsite mixed and CHGCAR
   VOSKOWN=      0    Vosko Wilk Nusair interpolation
   ROPT   =    0.00000   0.00000
 Ionic relaxation
   EDIFFG = 0.1E-04   stopping-criterion for IOM
   NSW    =      0    number of steps for IOM
   NBLOCK =      1;   KBLOCK =      1    inner block; outer block 
   IBRION =     -1    ionic relax: 0-MD 1-quasi-New 2-CG
   NFREE  =      0    steps in history (QN), initial steepest desc. (CG)
   ISIF   =      2    stress and relaxation
   IWAVPR =     10    prediction:  0-non 1-charg 2-wave 3-comb
   ISYM   =      0    0-nonsym 1-usesym 2-fastsym
   LCORR  =      T    Harris-Foulkes like correction to forces

   POTIM  = 0.5000    time-step for ionic-motion
   TEIN   =    0.0    initial temperature
   TEBEG  =    0.0;   TEEND  =   0.0 temperature during run
   SMASS  =  -3.00    Nose mass-parameter (am)
   estimated Nose-frequenzy (Omega)   =  0.10E-29 period in steps = 0.13E+47 mass=  -0.340E-27a.u.
   SCALEE = 1.0000    scale energy and forces
   NPACO  =    256;   APACO  = 10.0  distance and # of slots for P.C.
   PSTRESS=    0.0 pullay stress

  Mass of Ions in am
   POMASS =  72.61 78.96
  Ionic Valenz
   ZVAL   =   4.00  6.00
  Atomic Wigner-Seitz radii
   RWIGS  =  -1.00 -1.00
  virtual crystal weights 
   VCA    =   1.00  1.00
   NELECT =      40.0000    total number of electrons
   NUPDOWN=      -1.0000    fix difference up-down

 DOS related values:
   EMIN   =  10.00;   EMAX   =-10.00  energy-range for DOS
   EFERMI =   0.00;   METHOD = LEGACY      
   ISMEAR =     0;   SIGMA  =   0.05  broadening in eV -4-tet -1-fermi 0-gaus

 Electronic relaxation 2 (details)
   IALGO  =     38    algorithm
   LDIAG  =      T    sub-space diagonalisation (order eigenvalues)
   LSUBROT=      F    optimize rotation matrix (better conditioning)
   TURBO    =      0    0=normal 1=particle mesh
   IRESTART =      0    0=no restart 2=restart with 2 vectors
   NREBOOT  =      0    no. of reboots
   NMIN     =      0    reboot dimension
   EREF     =   0.00    reference energy to select bands
   IMIX   =      4    mixing-type and parameters
     AMIX     =   0.40;   BMIX     =  1.00
     AMIX_MAG =   1.60;   BMIX_MAG =  1.00
     AMIN     =   0.10
     WC   =   100.;   INIMIX=   1;  MIXPRE=   1;  MAXMIX= -45

 Intra band minimization:
   WEIMIN = 0.0000     energy-eigenvalue tresh-hold
   EBREAK =  0.78E-08  absolut break condition
   DEPER  =   0.30     relativ break condition  

   TIME   =   0.40     timestep for ELM

  volume/ion in A,a.u.               =      25.29       170.67
  Fermi-wavevector in a.u.,A,eV,Ry     =   0.953702  1.802236 12.375155  0.909548
  Thomas-Fermi vector in A             =   2.082382
 
 Write flags
   LWAVE        =      F    write WAVECAR
   LDOWNSAMPLE  =      F    k-point downsampling of WAVECAR
   LCHARG       =      F    write CHGCAR
   LVTOT        =      F    write LOCPOT, total local potential
   LVHAR        =      F    write LOCPOT, Hartree potential only
   LELF         =      F    write electronic localiz. function (ELF)
   LORBIT       =      0    0 simple, 1 ext, 2 COOP (PROOUT), +10 PAW based schemes


 Dipole corrections
   LMONO  =      F    monopole corrections only (constant potential shift)
   LDIPOL =      F    correct potential (dipole corrections)
   IDIPOL =      0    1-x, 2-y, 3-z, 4-all directions 
   EPSILON=  1.0000000 bulk dielectric constant

 Exchange correlation treatment:
   GGA     =    PE    GGA type
   LEXCH   =     8    internal setting for exchange type
   LIBXC   =     F    Libxc                    
   VOSKOWN =     0    Vosko Wilk Nusair interpolation
   LHFCALC =     F    Hartree Fock is set to
   LHFONE  =     F    Hartree Fock one center treatment
   AEXX    =    0.0000 exact exchange contribution

 Linear response parameters
   LEPSILON=     F    determine dielectric tensor
   LRPA    =     F    only Hartree local field effects (RPA)
   LNABLA  =     F    use nabla operator in PAW spheres
   LVEL    =     F    velocity operator in full k-point grid
   CSHIFT  =0.1000    complex shift for real part using Kramers Kronig
   OMEGAMAX=  -1.0    maximum frequency
   DEG_THRESHOLD= 0.2000000E-02 threshold for treating states as degnerate
   RTIME   =   -0.100 relaxation time in fs
  (WPLASMAI=    0.000 imaginary part of plasma frequency in eV, 0.658/RTIME)
   DFIELD  = 0.0000000 0.0000000 0.0000000 field for delta impulse in time
 
  Optional k-point grid parameters
   LKPOINTS_OPT  =     F    use optional k-point grid
   KPOINTS_OPT_MODE=     1    mode for optional k-point grid
 
 Orbital magnetization related:
   ORBITALMAG=     F  switch on orbital magnetization
   LCHIMAG   =     F  perturbation theory with respect to B field
   DQ        =  0.001000  dq finite difference perturbation B field
   LLRAUG    =     F  two centre corrections for induced B field
   LBONE     =     F  B-component reconstruction in AE one-centre
   LVGVCALC  =     T  calculate vGv susceptibility
   LVGVAPPL  =     F  apply vGv susceptibility instead of pGv for G=0

 Random number generation:
   RANDOM_GENERATOR = DEFAULT
   PCG_SEED         = not used


--------------------------------------------------------------------------------------------------------


 Static calculation
 charge density and potential will be updated during run
 non-spin polarized calculation
 Variant of blocked Davidson
 Davidson routine will perform the subspace rotation
 perform sub-space diagonalisation
    after iterative eigenvector-optimisation
 modified Broyden-mixing scheme, WC =      100.0
 initial mixing is a Kerker type mixing with AMIX =  0.4000 and BMIX =      1.0000
 Hartree-type preconditioning will be used
 using additional bands            12
 reciprocal scheme for non local part
 use partial core corrections
 calculate Harris-corrections to forces 
   (improved forces if not selfconsistent)
 use gradient corrections 
 use of overlap-Matrix (Vanderbilt PP)
 Gauss-broadening in eV      SIGMA  =   0.05


--------------------------------------------------------------------------------------------------------


  energy-cutoff  :      360.00
  volume of cell :      202.32
      direct lattice vectors                 reciprocal lattice vectors
     3.858100176  0.000000000  0.000000000     0.259194929  0.000000000  0.000000000
     0.000000000  4.526575088  0.000000000     0.000000000  0.220917577  0.000000000
     0.000000000  0.000000000 11.585176468     0.000000000  0.000000000  0.086317200

  length of vectors
     3.858100176  4.526575088 11.585176468     0.259194929  0.220917577  0.086317200


 
 k-points in units of 2pi/SCALE and weight: KPOINTS created by Atomic Simulation Env
   0.00000000  0.00000000  0.00000000       0.014
   0.04319915  0.00000000  0.00000000       0.028
   0.08639831  0.00000000  0.00000000       0.028
   0.12959746  0.00000000  0.00000000       0.014
   0.00000000  0.03681960  0.00000000       0.028
   0.04319915  0.03681960  0.00000000       0.028
   0.04319915 -0.03681960  0.00000000       0.028
   0.08639831  0.03681960  0.00000000       0.028
   0.08639831 -0.03681960  0.00000000       0.028
   0.12959746  0.03681960  0.00000000       0.028
   0.00000000  0.07363919  0.00000000       0.028
   0.04319915  0.07363919  0.00000000       0.028
   0.04319915 -0.07363919  0.00000000       0.028
   0.08639831  0.07363919  0.00000000       0.028
   0.08639831 -0.07363919  0.00000000       0.028
   0.12959746  0.07363919  0.00000000       0.028
   0.00000000  0.11045879  0.00000000       0.014
   0.04319915  0.11045879  0.00000000       0.028
   0.08639831  0.11045879  0.00000000       0.028
   0.12959746  0.11045879  0.00000000       0.014
   0.00000000  0.00000000  0.04315860       0.014
   0.04319915  0.00000000  0.04315860       0.028
   0.08639831  0.00000000  0.04315860       0.028
   0.12959746  0.00000000  0.04315860       0.014
   0.00000000  0.03681960  0.04315860       0.028
   0.04319915  0.03681960  0.04315860       0.028
   0.04319915 -0.03681960  0.04315860       0.028
   0.08639831  0.03681960  0.04315860       0.028
   0.08639831 -0.03681960  0.04315860       0.028
   0.12959746  0.03681960  0.04315860       0.028
   0.00000000  0.07363919  0.04315860       0.028
   0.04319915  0.07363919  0.04315860       0.028
   0.04319915 -0.07363919  0.04315860       0.028
   0.08639831  0.07363919  0.04315860       0.028
   0.08639831 -0.07363919  0.04315860       0.028
   0.12959746  0.07363919  0.04315860       0.028
   0.00000000  0.11045879  0.04315860       0.014
   0.04319915  0.11045879  0.04315860       0.028
   0.08639831  0.11045879  0.04315860       0.028
   0.12959746  0.11045879  0.04315860       0.014
 
 k-points in reciprocal lattice and weights: KPOINTS created by Atomic Simulation Env
   0.00000000  0.00000000  0.00000000       0.014
   0.16666667  0.00000000  0.00000000       0.028
   0.33333333  0.00000000  0.00000000       0.028
   0.50000000  0.00000000  0.00000000       0.014
   0.00000000  0.16666667  0.00000000       0.028
   0.16666667  0.16666667  0.00000000       0.028
   0.16666667 -0.16666667  0.00000000       0.028
   0.33333333  0.16666667  0.00000000       0.028
   0.33333333 -0.16666667  0.00000000       0.028
   0.50000000  0.16666667  0.00000000       0.028
   0.00000000  0.33333333  0.00000000       0.028
   0.16666667  0.33333333  0.00000000       0.028
   0.16666667 -0.33333333  0.00000000       0.028
   0.33333333  0.33333333  0.00000000       0.028
   0.33333333 -0.33333333  0.00000000       0.028
   0.50000000  0.33333333  0.00000000       0.028
   0.00000000  0.50000000  0.00000000       0.014
   0.16666667  0.50000000  0.00000000       0.028
   0.33333333  0.50000000  0.00000000       0.028
   0.50000000  0.50000000  0.00000000       0.014
   0.00000000  0.00000000  0.50000000       0.014
   0.16666667  0.00000000  0.50000000       0.028
   0.33333333  0.00000000  0.50000000       0.028
   0.50000000  0.00000000  0.50000000       0.014
   0.00000000  0.16666667  0.50000000       0.028
   0.16666667  0.16666667  0.50000000       0.028
   0.16666667 -0.16666667  0.50000000       0.028
   0.33333333  0.16666667  0.50000000       0.028
   0.33333333 -0.16666667  0.50000000       0.028
   0.50000000  0.16666667  0.50000000       0.028
   0.00000000  0.33333333  0.50000000       0.028
   0.16666667  0.33333333  0.50000000       0.028
   0.16666667 -0.33333333  0.50000000       0.028
   0.33333333  0.33333333  0.50000000       0.028
   0.33333333 -0.33333333  0.50000000       0.028
   0.50000000  0.33333333  0.50000000       0.028
   0.00000000  0.50000000  0.50000000       0.014
   0.16666667  0.50000000  0.50000000       0.028
   0.33333333  0.50000000  0.50000000       0.028
   0.50000000  0.50000000  0.50000000       0.014
 
 position of ions in fractional coordinates (direct lattice) 
   0.93115942  0.41508394  0.13197174
   0.43115939  0.91508392  0.36802823
   0.74999985  0.90375655  0.86802825
   0.24999978  0.40375650  0.63197176
   0.93115941  0.29830628  0.35110993
   0.43115942  0.79830631  0.14889005
   0.74999976  0.02053415  0.64889008
   0.24999984  0.52053418  0.85110995
 
 position of ions in cartesian coordinates  (Angst):
   3.59250634  1.87890861  1.52891595
   1.66345611  4.14219610  4.26367197
   2.89357457  4.09092188 10.05626045
   0.96452420  1.82763412  7.32150435
   3.59250627  1.35030580  4.06767047
   1.66345625  3.61359343  1.72491749
   2.89357421  0.09294938  7.51750603
   0.96452442  2.35623703  9.86025892
 


--------------------------------------------------------------------------------------------------------


 k-point   1 :   0.0000 0.0000 0.0000  plane waves:    3119
 k-point   2 :   0.1667 0.0000 0.0000  plane waves:    3116
 k-point   3 :   0.3333 0.0000 0.0000  plane waves:    3142
 k-point   4 :   0.5000 0.0000 0.0000  plane waves:    3148
 k-point   5 :   0.0000 0.1667 0.0000  plane waves:    3108
 k-point   6 :   0.1667 0.1667 0.0000  plane waves:    3123
 k-point   7 :   0.1667-0.1667 0.0000  plane waves:    3123
 k-point   8 :   0.3333 0.1667 0.0000  plane waves:    3135
 k-point   9 :   0.3333-0.1667 0.0000  plane waves:    3135
 k-point  10 :   0.5000 0.1667 0.0000  plane waves:    3138
 k-point  11 :   0.0000 0.3333 0.0000  plane waves:    3116
 k-point  12 :   0.1667 0.3333 0.0000  plane waves:    3133
 k-point  13 :   0.1667-0.3333 0.0000  plane waves:    3133
 k-point  14 :   0.3333 0.3333 0.0000  plane waves:    3155
 k-point  15 :   0.3333-0.3333 0.0000  plane waves:    3155
 k-point  16 :   0.5000 0.3333 0.0000  plane waves:    3152
 k-point  17 :   0.0000 0.5000 0.0000  plane waves:    3134
 k-point  18 :   0.1667 0.5000 0.0000  plane waves:    3140
 k-point  19 :   0.3333 0.5000 0.0000  plane waves:    3144
 k-point  20 :   0.5000 0.5000 0.0000  plane waves:    3144
 k-point  21 :   0.0000 0.0000 0.5000  plane waves:    3092
 k-point  22 :   0.1667 0.0000 0.5000  plane waves:    3124
 k-point  23 :   0.3333 0.0000 0.5000  plane waves:    3140
 k-point  24 :   0.5000 0.0000 0.5000  plane waves:    3132
 k-point  25 :   0.0000 0.1667 0.5000  plane waves:    3112
 k-point  26 :   0.1667 0.1667 0.5000  plane waves:    3140
 k-point  27 :   0.1667-0.1667 0.5000  plane waves:    3140
 k-point  28 :   0.3333 0.1667 0.5000  plane waves:    3134
 k-point  29 :   0.3333-0.1667 0.5000  plane waves:    3134
 k-point  30 :   0.5000 0.1667 0.5000  plane waves:    3144
 k-point  31 :   0.0000 0.3333 0.5000  plane waves:    3130
 k-point  32 :   0.1667 0.3333 0.5000  plane waves:    3148
 k-point  33 :   0.1667-0.3333 0.5000  plane waves:    3148
 k-point  34 :   0.3333 0.3333 0.5000  plane waves:    3142
 k-point  35 :   0.3333-0.3333 0.5000  plane waves:    3142
 k-point  36 :   0.5000 0.3333 0.5000  plane waves:    3152
 k-point  37 :   0.0000 0.5000 0.5000  plane waves:    3132
 k-point  38 :   0.1667 0.5000 0.5000  plane waves:    3148
 k-point  39 :   0.3333 0.5000 0.5000  plane waves:    3140
 k-point  40 :   0.5000 0.5000 0.5000  plane waves:    3160

 maximum and minimum number of plane-waves per node :       659      606

 maximum number of plane-waves:      3160
 maximum index in each direction: 
   IXMAX=    5   IYMAX=    7   IZMAX=   17
   IXMIN=   -6   IYMIN=   -7   IZMIN=  -18


 parallel 3D FFT for wavefunctions:
    minimum data exchange during FFTs selected (reduces bandwidth)
 parallel 3D FFT for charge:
    minimum data exchange during FFTs selected (reduces bandwidth)


 total amount of memory used by VASP MPI-rank0    37119. kBytes
=======================================================================

   base      :      30000. kBytes
   nonl-proj :       5406. kBytes
   fftplans  :        334. kBytes
   grid      :        503. kBytes
   one-center:         16. kBytes
   wavefun   :        860. kBytes
 
     INWAV:  cpu time      0.0000: real time      0.0001
 Broyden mixing: mesh for mixing (old mesh)
   NGX = 11   NGY = 15   NGZ = 35
  (NGX  = 36   NGY  = 48   NGZ  =108)
  gives a total of   5775 points

 initial charge density was supplied:
 charge density of overlapping atoms calculated
 number of electron      40.0000000 magnetization 
 keeping initial charge density in first step


--------------------------------------------------------------------------------------------------------


 Maximum index for augmentation-charges           395 (set IRDMAX)


--------------------------------------------------------------------------------------------------------


 First call to EWALD:  gamma=   0.302
 Maximum number of real-space cells 4x 3x 2
 Maximum number of reciprocal cells 2x 2x 5

    FEWALD:  cpu time      0.0010: real time      0.0010


--------------------------------------- Ionic step        1  -------------------------------------------




--------------------------------------- Iteration      1(   1)  ---------------------------------------


    POTLOK:  cpu time      0.0084: real time      0.0085
    SETDIJ:  cpu time      0.2167: real time      0.2173
     EDDAV:  cpu time      0.3182: real time      0.3210
       DOS:  cpu time      0.0010: real time      0.0010
    --------------------------------------------
      LOOP:  cpu time      0.5443: real time      0.5478

 eigenvalue-minimisations  :  2560
 total energy-change (2. order) : 0.1325504E+03  (-0.1287884E+04)
 number of electron      40.0000000 magnetization 
 augmentation part       40.0000000 magnetization 

 Free energy of the ion-electron system (eV)
  ---------------------------------------------------
  alpha Z        PSCENC =        83.74935623
  Ewald energy   TEWEN  =     -1380.70569398
  -Hartree energ DENC   =      -148.82863675
  -exchange      EXHF   =         0.00000000
  -V(xc)+E(xc)   XCENC  =       -33.75347703
  PAW double counting   =      1193.78262552    -1080.73714043
  entropy T*S    EENTRO =        -0.00329050
  eigenvalues    EBANDS =        50.56205835
  atomic energy  EATOM  =      1448.48460880
  Solvation  Ediel_sol  =         0.00000000
  ---------------------------------------------------
  free energy    TOTEN  =       132.55041021 eV

  energy without entropy =      132.55370071  energy(sigma->0) =      132.55205546


--------------------------------------------------------------------------------------------------------




--------------------------------------- Iteration      1(   2)  ---------------------------------------


     EDDAV:  cpu time      0.4308: real time      0.4348
       DOS:  cpu time      0.0006: real time      0.0006
    --------------------------------------------
      LOOP:  cpu time      0.4313: real time      0.4353

 eigenvalue-minimisations  :  3728
 total energy-change (2. order) :-0.1576636E+03  (-0.1530217E+03)
 number of electron      40.0000000 magnetization 
 augmentation part       40.0000000 magnetization 

 Free energy of the ion-electron system (eV)
  ---------------------------------------------------
  alpha Z        PSCENC =        83.74935623
  Ewald energy   TEWEN  =     -1380.70569398
  -Hartree energ DENC   =      -148.82863675
  -exchange      EXHF   =         0.00000000
  -V(xc)+E(xc)   XCENC  =       -33.75347703
  PAW double counting   =      1193.78262552    -1080.73714043
  entropy T*S    EENTRO =        -0.00000000
  eigenvalues    EBANDS =      -107.10482101
  atomic energy  EATOM  =      1448.48460880
  Solvation  Ediel_sol  =         0.00000000
  ---------------------------------------------------
  free energy    TOTEN  =       -25.11317864 eV

  energy without entropy =      -25.11317864  energy(sigma->0) =      -25.11317864


--------------------------------------------------------------------------------------------------------




--------------------------------------- Iteration      1(   3)  ---------------------------------------


     EDDAV:  cpu time      0.3594: real time      0.3616
       DOS:  cpu time      0.0005: real time      0.0006
    --------------------------------------------
      LOOP:  cpu time      0.3599: real time      0.3621

 eigenvalue-minimisations  :  3056
 total energy-change (2. order) :-0.8917360E+01  (-0.8898151E+01)
 number of electron      40.0000000 magnetization 
 augmentation part       40.0000000 magnetization 

 Free energy of the ion-electron system (eV)
  ---------------------------------------------------
  alpha Z        PSCENC =        83.74935623
  Ewald energy   TEWEN  =     -1380.70569398
  -Hartree energ DENC   =      -148.82863675
  -exchange      EXHF   =         0.00000000
  -V(xc)+E(xc)   XCENC  =       -33.75347703
  PAW double counting   =      1193.78262552    -1080.73714043
  entropy T*S    EENTRO =        -0.00000000
  eigenvalues    EBANDS =      -116.02218150
  atomic energy  EATOM  =      1448.48460880
  Solvation  Ediel_sol  =         0.00000000
  ---------------------------------------------------
  free energy    TOTEN  =       -34.03053914 eV

  energy without entropy =      -34.03053914  energy(sigma->0) =      -34.03053914


--------------------------------------------------------------------------------------------------------




--------------------------------------- Iteration      1(   4)  ---------------------------------------


     EDDAV:  cpu time      0.4031: real time      0.4059
       DOS:  cpu time      0.0006: real time      0.0006
    --------------------------------------------
      LOOP:  cpu time      0.4036: real time      0.4065

 eigenvalue-minimisations  :  3360
 total energy-change (2. order) :-0.6543281E-01  (-0.6541484E-01)
 number of electron      40.0000000 magnetization 
 augmentation part       40.0000000 magnetization 

 Free energy of the ion-electron system (eV)
  ---------------------------------------------------
  alpha Z        PSCENC =        83.74935623
  Ewald energy   TEWEN  =     -1380.70569398
  -Hartree energ DENC   =      -148.82863675
  -exchange      EXHF   =         0.00000000
  -V(xc)+E(xc)   XCENC  =       -33.75347703
  PAW double counting   =      1193.78262552    -1080.73714043
  entropy T*S    EENTRO =        -0.00000000
  eigenvalues    EBANDS =      -116.08761431
  atomic energy  EATOM  =      1448.48460880
  Solvation  Ediel_sol  =         0.00000000
  ---------------------------------------------------
  free energy    TOTEN  =       -34.09597195 eV

  energy without entropy =      -34.09597195  energy(sigma->0) =      -34.09597195


--------------------------------------------------------------------------------------------------------




--------------------------------------- Iteration      1(   5)  ---------------------------------------


     EDDAV:  cpu time      0.4030: real time      0.4055
       DOS:  cpu time      0.0005: real time      0.0005
    CHARGE:  cpu time      0.0058: real time      0.0058
    MIXING:  cpu time      0.0004: real time      0.0004
    --------------------------------------------
      LOOP:  cpu time      0.4097: real time      0.4123

 eigenvalue-minimisations  :  3024
 total energy-change (2. order) :-0.4478282E-03  (-0.4478108E-03)
 number of electron      39.9999970 magnetization 
 augmentation part       -7.4309476 magnetization 

 Broyden mixing:
  rms(total) = 0.64728E+00    rms(broyden)= 0.64727E+00
  rms(prec ) = 0.72846E+00
  weight for this iteration     100.00

 Free energy of the ion-electron system (eV)
  ---------------------------------------------------
  alpha Z        PSCENC =        83.74935623
  Ewald energy   TEWEN  =     -1380.70569398
  -Hartree energ DENC   =      -148.82863675
  -exchange      EXHF   =         0.00000000
  -V(xc)+E(xc)   XCENC  =       -33.75347703
  PAW double counting   =      1193.78262552    -1080.73714043
  entropy T*S    EENTRO =        -0.00000000
  eigenvalues    EBANDS =      -116.08806214
  atomic energy  EATOM  =      1448.48460880
  Solvation  Ediel_sol  =         0.00000000
  ---------------------------------------------------
  free energy    TOTEN  =       -34.09641977 eV

  energy without entropy =      -34.09641977  energy(sigma->0) =      -34.09641977


--------------------------------------------------------------------------------------------------------




--------------------------------------- Iteration      1(   6)  ---------------------------------------


    POTLOK:  cpu time      0.0080: real time      0.0082
    SETDIJ:  cpu time      0.2175: real time      0.2180
     EDDAV:  cpu time      0.3663: real time      0.3695
       DOS:  cpu time      0.0007: real time      0.0007
    CHARGE:  cpu time      0.0054: real time      0.0055
    MIXING:  cpu time      0.0005: real time      0.0005
    --------------------------------------------
      LOOP:  cpu time      0.5984: real time      0.6023

 eigenvalue-minimisations  :  3104
 total energy-change (2. order) : 0.4081249E+00  (-0.8207197E-01)
 number of electron      39.9999970 magnetization 
 augmentation part       -7.3701393 magnetization 

 Broyden mixing:
  rms(total) = 0.40578E+00    rms(broyden)= 0.40578E+00
  rms(prec ) = 0.42646E+00
  weight for this iteration     100.00

 eigenvalues of (default mixing * dielectric matrix)
  average eigenvalue GAMMA=   2.1698
  2.1698

 Free energy of the ion-electron system (eV)
  ---------------------------------------------------
  alpha Z        PSCENC =        83.74935623
  Ewald energy   TEWEN  =     -1380.70569398
  -Hartree energ DENC   =      -155.15394448
  -exchange      EXHF   =         0.00000000
  -V(xc)+E(xc)   XCENC  =       -33.13047995
  PAW double counting   =      1454.67023193    -1341.94055646
  entropy T*S    EENTRO =        -0.00000000
  eigenvalues    EBANDS =      -109.66181691
  atomic energy  EATOM  =      1448.48460880
  Solvation  Ediel_sol  =         0.00000000
  ---------------------------------------------------
  free energy    TOTEN  =       -33.68829483 eV

  energy without entropy =      -33.68829483  energy(sigma->0) =      -33.68829483


--------------------------------------------------------------------------------------------------------




--------------------------------------- Iteration      1(   7)  ---------------------------------------


    POTLOK:  cpu time      0.0077: real time      0.0078
    SETDIJ:  cpu time      0.2167: real time      0.2172
     EDDAV:  cpu time      0.3831: real time      0.3857
       DOS:  cpu time      0.0005: real time      0.0005
    CHARGE:  cpu time      0.0054: real time      0.0054
    MIXING:  cpu time      0.0004: real time      0.0004
    --------------------------------------------
      LOOP:  cpu time      0.6138: real time      0.6170

 eigenvalue-minimisations  :  3216
 total energy-change (2. order) : 0.1046779E-01  (-0.2449452E-01)
 number of electron      39.9999971 magnetization 
 augmentation part       -7.3521159 magnetization 

 Broyden mixing:
  rms(total) = 0.13097E+00    rms(broyden)= 0.13097E+00
  rms(prec ) = 0.13956E+00
  weight for this iteration     100.00

 eigenvalues of (default mixing * dielectric matrix)
  average eigenvalue GAMMA=   1.8088
  1.2213  2.3963

 Free energy of the ion-electron system (eV)
  ---------------------------------------------------
  alpha Z        PSCENC =        83.74935623
  Ewald energy   TEWEN  =     -1380.70569398
  -Hartree energ DENC   =      -158.11282534
  -exchange      EXHF   =         0.00000000
  -V(xc)+E(xc)   XCENC  =       -32.64280703
  PAW double counting   =      1778.98990543    -1666.49247946
  entropy T*S    EENTRO =        -0.00000000
  eigenvalues    EBANDS =      -106.94789168
  atomic energy  EATOM  =      1448.48460880
  Solvation  Ediel_sol  =         0.00000000
  ---------------------------------------------------
  free energy    TOTEN  =       -33.67782704 eV

  energy without entropy =      -33.67782704  energy(sigma->0) =      -33.67782704


--------------------------------------------------------------------------------------------------------




--------------------------------------- Iteration      1(   8)  ---------------------------------------


    POTLOK:  cpu time      0.0075: real time      0.0078
    SETDIJ:  cpu time      0.2150: real time      0.2155
     EDDAV:  cpu time      0.3845: real time      0.3870
       DOS:  cpu time      0.0006: real time      0.0006
    CHARGE:  cpu time      0.0055: real time      0.0055
    MIXING:  cpu time      0.0005: real time      0.0005
    --------------------------------------------
      LOOP:  cpu time      0.6136: real time      0.6169

 eigenvalue-minimisations  :  3024
 total energy-change (2. order) : 0.1673186E-02  (-0.2733560E-02)
 number of electron      39.9999971 magnetization 
 augmentation part       -7.3622552 magnetization 

 Broyden mixing:
  rms(total) = 0.17451E-01    rms(broyden)= 0.17451E-01
  rms(prec ) = 0.21491E-01
  weight for this iteration     100.00

 eigenvalues of (default mixing * dielectric matrix)
  average eigenvalue GAMMA=   1.6989
  2.4994  1.2986  1.2986

 Free energy of the ion-electron system (eV)
  ---------------------------------------------------
  alpha Z        PSCENC =        83.74935623
  Ewald energy   TEWEN  =     -1380.70569398
  -Hartree energ DENC   =      -158.16330121
  -exchange      EXHF   =         0.00000000
  -V(xc)+E(xc)   XCENC  =       -32.50537633
  PAW double counting   =      1917.57449244    -1805.13115439
  entropy T*S    EENTRO =        -0.00000000
  eigenvalues    EBANDS =      -106.97908540
  atomic energy  EATOM  =      1448.48460880
  Solvation  Ediel_sol  =         0.00000000
  ---------------------------------------------------
  free energy    TOTEN  =       -33.67615385 eV

  energy without entropy =      -33.67615385  energy(sigma->0) =      -33.67615385


--------------------------------------------------------------------------------------------------------




--------------------------------------- Iteration      1(   9)  ---------------------------------------


    POTLOK:  cpu time      0.0077: real time      0.0079
    SETDIJ:  cpu time      0.2169: real time      0.2174
     EDDAV:  cpu time      0.3733: real time      0.3751
       DOS:  cpu time      0.0005: real time      0.0005
    CHARGE:  cpu time      0.0055: real time      0.0055
    MIXING:  cpu time      0.0005: real time      0.0005
    --------------------------------------------
      LOOP:  cpu time      0.6044: real time      0.6069

 eigenvalue-minimisations  :  3104
 total energy-change (2. order) :-0.2936910E-03  (-0.3792857E-03)
 number of electron      39.9999971 magnetization 
 augmentation part       -7.3597730 magnetization 

 Broyden mixing:
  rms(total) = 0.64840E-02    rms(broyden)= 0.64839E-02
  rms(prec ) = 0.73930E-02
  weight for this iteration     100.00

 eigenvalues of (default mixing * dielectric matrix)
  average eigenvalue GAMMA=   1.7493
  2.3194  2.3194  1.1793  1.1793

 Free energy of the ion-electron system (eV)
  ---------------------------------------------------
  alpha Z        PSCENC =        83.74935623
  Ewald energy   TEWEN  =     -1380.70569398
  -Hartree energ DENC   =      -158.59737197
  -exchange      EXHF   =         0.00000000
  -V(xc)+E(xc)   XCENC  =       -32.46283111
  PAW double counting   =      1929.38549345    -1816.95182540
  entropy T*S    EENTRO =        -0.00000000
  eigenvalues    EBANDS =      -106.57818357
  atomic energy  EATOM  =      1448.48460880
  Solvation  Ediel_sol  =         0.00000000
  ---------------------------------------------------
  free energy    TOTEN  =       -33.67644754 eV

  energy without entropy =      -33.67644754  energy(sigma->0) =      -33.67644754


--------------------------------------------------------------------------------------------------------




--------------------------------------- Iteration      1(  10)  ---------------------------------------


    POTLOK:  cpu time      0.0076: real time      0.0077
    SETDIJ:  cpu time      0.2169: real time      0.2176
     EDDAV:  cpu time      0.3462: real time      0.3476
       DOS:  cpu time      0.0005: real time      0.0005
    CHARGE:  cpu time      0.0053: real time      0.0053
    MIXING:  cpu time      0.0005: real time      0.0005
    --------------------------------------------
      LOOP:  cpu time      0.5769: real time      0.5792

 eigenvalue-minimisations  :  3040
 total energy-change (2. order) :-0.1311679E-03  (-0.3376274E-04)
 number of electron      39.9999971 magnetization 
 augmentation part       -7.3597313 magnetization 

 Broyden mixing:
  rms(total) = 0.23105E-02    rms(broyden)= 0.23104E-02
  rms(prec ) = 0.27895E-02
  weight for this iteration     100.00

 eigenvalues of (default mixing * dielectric matrix)
  average eigenvalue GAMMA=   1.7694
  2.7494  2.4991  1.1557  1.2214  1.2214

 Free energy of the ion-electron system (eV)
  ---------------------------------------------------
  alpha Z        PSCENC =        83.74935623
  Ewald energy   TEWEN  =     -1380.70569398
  -Hartree energ DENC   =      -158.63783243
  -exchange      EXHF   =         0.00000000
  -V(xc)+E(xc)   XCENC  =       -32.45862175
  PAW double counting   =      1923.21827219    -1810.77935205
  entropy T*S    EENTRO =        -0.00000000
  eigenvalues    EBANDS =      -106.54731572
  atomic energy  EATOM  =      1448.48460880
  Solvation  Ediel_sol  =         0.00000000
  ---------------------------------------------------
  free energy    TOTEN  =       -33.67657871 eV

  energy without entropy =      -33.67657871  energy(sigma->0) =      -33.67657871


--------------------------------------------------------------------------------------------------------




--------------------------------------- Iteration      1(  11)  ---------------------------------------


    POTLOK:  cpu time      0.0076: real time      0.0077
    SETDIJ:  cpu time      0.2156: real time      0.2161
     EDDAV:  cpu time      0.3647: real time      0.3670
       DOS:  cpu time      0.0006: real time      0.0006
    CHARGE:  cpu time      0.0053: real time      0.0053
    MIXING:  cpu time      0.0005: real time      0.0005
    --------------------------------------------
      LOOP:  cpu time      0.5942: real time      0.5971

 eigenvalue-minimisations  :  3072
 total energy-change (2. order) :-0.3217881E-04  (-0.4309810E-05)
 number of electron      39.9999971 magnetization 
 augmentation part       -7.3599400 magnetization 

 Broyden mixing:
  rms(total) = 0.12254E-02    rms(broyden)= 0.12254E-02
  rms(prec ) = 0.13787E-02
  weight for this iteration     100.00

 eigenvalues of (default mixing * dielectric matrix)
  average eigenvalue GAMMA=   1.7663
  2.5998  2.5998  2.0987  0.9606  1.1696  1.1696

 Free energy of the ion-electron system (eV)
  ---------------------------------------------------
  alpha Z        PSCENC =        83.74935623
  Ewald energy   TEWEN  =     -1380.70569398
  -Hartree energ DENC   =      -158.66640806
  -exchange      EXHF   =         0.00000000
  -V(xc)+E(xc)   XCENC  =       -32.45248160
  PAW double counting   =      1924.52561029    -1812.08677358
  entropy T*S    EENTRO =        -0.00000000
  eigenvalues    EBANDS =      -106.52482899
  atomic energy  EATOM  =      1448.48460880
  Solvation  Ediel_sol  =         0.00000000
  ---------------------------------------------------
  free energy    TOTEN  =       -33.67661089 eV

  energy without entropy =      -33.67661089  energy(sigma->0) =      -33.67661089


--------------------------------------------------------------------------------------------------------




--------------------------------------- Iteration      1(  12)  ---------------------------------------


    POTLOK:  cpu time      0.0075: real time      0.0076
    SETDIJ:  cpu time      0.2167: real time      0.2172
     EDDAV:  cpu time      0.4009: real time      0.4028
       DOS:  cpu time      0.0006: real time      0.0006
    CHARGE:  cpu time      0.0056: real time      0.0056
    MIXING:  cpu time      0.0005: real time      0.0005
    --------------------------------------------
      LOOP:  cpu time      0.6318: real time      0.6343

 eigenvalue-minimisations  :  3296
 total energy-change (2. order) :-0.1252990E-05  (-0.7255803E-06)
 number of electron      39.9999971 magnetization 
 augmentation part       -7.3598549 magnetization 

 Broyden mixing:
  rms(total) = 0.23649E-03    rms(broyden)= 0.23648E-03
  rms(prec ) = 0.29415E-03
  weight for this iteration     100.00

 eigenvalues of (default mixing * dielectric matrix)
  average eigenvalue GAMMA=   1.7028
  2.9326  2.3816  2.0743  1.0260  1.2357  1.1348  1.1348

 Free energy of the ion-electron system (eV)
  ---------------------------------------------------
  alpha Z        PSCENC =        83.74935623
  Ewald energy   TEWEN  =     -1380.70569398
  -Hartree energ DENC   =      -158.67932740
  -exchange      EXHF   =         0.00000000
  -V(xc)+E(xc)   XCENC  =       -32.45134102
  PAW double counting   =      1923.85114221    -1811.41211118
  entropy T*S    EENTRO =        -0.00000000
  eigenvalues    EBANDS =      -106.51324581
  atomic energy  EATOM  =      1448.48460880
  Solvation  Ediel_sol  =         0.00000000
  ---------------------------------------------------
  free energy    TOTEN  =       -33.67661214 eV

  energy without entropy =      -33.67661214  energy(sigma->0) =      -33.67661214


--------------------------------------------------------------------------------------------------------




--------------------------------------- Iteration      1(  13)  ---------------------------------------


    POTLOK:  cpu time      0.0076: real time      0.0078
    SETDIJ:  cpu time      0.2169: real time      0.2176
     EDDAV:  cpu time      0.2704: real time      0.2717
       DOS:  cpu time      0.0005: real time      0.0005
    --------------------------------------------
      LOOP:  cpu time      0.4955: real time      0.4976

 eigenvalue-minimisations  :  1712
 total energy-change (2. order) :-0.6679105E-06  (-0.1025564E-06)
 number of electron      39.9999971 magnetization 
 augmentation part       -7.3598549 magnetization 

 Free energy of the ion-electron system (eV)
  ---------------------------------------------------
  alpha Z        PSCENC =        83.74935623
  Ewald energy   TEWEN  =     -1380.70569398
  -Hartree energ DENC   =      -158.68323105
  -exchange      EXHF   =         0.00000000
  -V(xc)+E(xc)   XCENC  =       -32.45078986
  PAW double counting   =      1924.01960682    -1811.58058609
  entropy T*S    EENTRO =        -0.00000000
  eigenvalues    EBANDS =      -106.50988369
  atomic energy  EATOM  =      1448.48460880
  Solvation  Ediel_sol  =         0.00000000
  ---------------------------------------------------
  free energy    TOTEN  =       -33.67661281 eV

  energy without entropy =      -33.67661281  energy(sigma->0) =      -33.67661281


--------------------------------------------------------------------------------------------------------




 average (electrostatic) potential at core
  the test charge radii are     1.1631  1.0808
  (the norm of the test charge is              1.0000)
       1 -33.7989       2 -33.7989       3 -33.7989       4 -33.7989       5 -55.2969
       6 -55.2969       7 -55.2969       8 -55.2969
 
 
 
 E-fermi :   3.1900     XC(G=0):  -9.0645     alpha+bet : -8.3433

 Fermi energy:         3.1900279969

 k-point     1 :       0.0000    0.0000    0.0000
  band No.  band energies     occupation 
      1     -11.2376      2.00000
      2     -10.9951      2.00000
      3      -9.9884      2.00000
      4      -9.6169      2.00000
      5      -4.8574      2.00000
      6      -4.5550      2.00000
      7      -2.8763      2.00000
      8      -2.5918      2.00000
      9      -2.1953      2.00000
     10      -0.7680      2.00000
     11      -0.3182      2.00000
     12      -0.2706      2.00000
     13      -0.0432      2.00000
     14       0.0788      2.00000
     15       0.7893      2.00000
     16       1.2148      2.00000
     17       1.3953      2.00000
     18       1.8147      2.00000
     19       2.3591      2.00000
     20       2.4045      2.00000
     21       3.6505      0.00000
     22       5.4477      0.00000
     23       5.5600      0.00000
     24       5.7344      0.00000
     25       6.1355      0.00000
     26       6.5119      0.00000
     27       6.7707      0.00000
     28       6.7985      0.00000
     29       7.6446      0.00000
     30       8.2574      0.00000
     31       8.2670      0.00000
     32       8.3813      0.00000

 k-point     2 :       0.1667    0.0000    0.0000
  band No.  band energies     occupation 
      1     -11.0518      2.00000
      2     -10.8173      2.00000
      3      -9.8833      2.00000
      4      -9.5479      2.00000
      5      -5.1225      2.00000
      6      -4.7440      2.00000
      7      -3.3744      2.00000
      8      -3.0527      2.00000
      9      -1.9815      2.00000
     10      -0.5993      2.00000
     11      -0.4447      2.00000
     12      -0.2688      2.00000
     13      -0.1429      2.00000
     14       0.1553      2.00000
     15       0.8617      2.00000
     16       0.9463      2.00000
     17       1.2726      2.00000
     18       2.0838      2.00000
     19       2.1224      2.00000
     20       2.5245      2.00000
     21       3.6129      0.00000
     22       5.3603      0.00000
     23       5.5009      0.00000
     24       6.0498      0.00000
     25       6.2267      0.00000
     26       6.4223      0.00000
     27       6.4897      0.00000
     28       6.6830      0.00000
     29       7.3553      0.00000
     30       7.5014      0.00000
     31       7.5345      0.00000
     32       8.1993      0.00000

 k-point     3 :       0.3333    0.0000    0.0000
  band No.  band energies     occupation 
      1     -10.5496      2.00000
      2     -10.3412      2.00000
      3      -9.7295      2.00000
      4      -9.4984      2.00000
      5      -5.6234      2.00000
      6      -5.1002      2.00000
      7      -4.5645      2.00000
      8      -4.0505      2.00000
      9      -1.3799      2.00000
     10      -0.5343      2.00000
     11      -0.3442      2.00000
     12       0.1304      2.00000
     13       0.2622      2.00000
     14       0.5620      2.00000
     15       0.7803      2.00000
     16       0.9375      2.00000
     17       1.5354      2.00000
     18       1.6004      2.00000
     19       2.1270      2.00000
     20       2.3771      2.00000
     21       3.8807      0.00000
     22       4.0174      0.00000
     23       4.4273      0.00000
     24       5.0001      0.00000
     25       5.2136      0.00000
     26       5.5331      0.00000
     27       5.6951      0.00000
     28       5.9588      0.00000
     29       6.6025      0.00000
     30       6.6804      0.00000
     31       7.2749      0.00000
     32       8.3202      0.00000

 k-point     4 :       0.5000    0.0000    0.0000
  band No.  band energies     occupation 
      1      -9.9580      2.00000
      2      -9.9580      2.00000
      3      -9.7843      2.00000
      4      -9.7843      2.00000
      5      -5.5225      2.00000
      6      -5.5225      2.00000
      7      -4.9289      2.00000
      8      -4.9289      2.00000
      9      -0.6425      2.00000
     10      -0.6425      2.00000
     11       0.1921      2.00000
     12       0.1921      2.00000
     13       0.6475      2.00000
     14       0.6475      2.00000
     15       0.8365      2.00000
     16       0.8365      2.00000
     17       1.5002      2.00000
     18       1.5002      2.00000
     19       2.0017      2.00000
     20       2.0017      2.00000
     21       3.9169      0.00000
     22       3.9169      0.00000
     23       4.4284      0.00000
     24       4.4284      0.00000
     25       4.8167      0.00000
     26       4.8167      0.00000
     27       5.2316      0.00000
     28       5.2316      0.00000
     29       5.6068      0.00000
     30       5.6068      0.00000
     31       7.9171      0.00000
     32       7.9171      0.00000

 k-point     5 :       0.0000    0.1667    0.0000
  band No.  band energies     occupation 
      1     -11.1262      2.00000
      2     -10.8857      2.00000
      3     -10.0069      2.00000
      4      -9.6640      2.00000
      5      -5.1176      2.00000
      6      -4.7523      2.00000
      7      -3.5534      2.00000
      8      -3.1267      2.00000
      9      -1.8949      2.00000
     10      -0.2881      2.00000
     11       0.0632      2.00000
     12       0.0721      2.00000
     13       0.1073      2.00000
     14       0.2161      2.00000
     15       1.2029      2.00000
     16       1.3610      2.00000
     17       1.4781      2.00000
     18       1.7058      2.00000
     19       2.1950      2.00000
     20       2.6755      2.00000
     21       3.7222      0.00000
     22       5.0792      0.00000
     23       5.4619      0.00000
     24       5.6553      0.00000
     25       5.6972      0.00000
     26       6.2847      0.00000
     27       6.4247      0.00000
     28       6.7798      0.00000
     29       7.2872      0.00000
     30       7.6028      0.00000
     31       7.7894      0.00000
     32       8.3666      0.00000

 k-point     6 :       0.1667    0.1667    0.0000
  band No.  band energies     occupation 
      1     -10.9450      2.00000
      2     -10.7145      2.00000
      3      -9.9021      2.00000
      4      -9.5896      2.00000
      5      -5.2517      2.00000
      6      -4.8165      2.00000
      7      -3.7725      2.00000
      8      -3.3771      2.00000
      9      -1.7399      2.00000
     10      -0.9937      2.00000
     11      -0.8363      2.00000
     12      -0.1400      2.00000
     13       0.4860      2.00000
     14       0.5769      2.00000
     15       0.7642      2.00000
     16       0.9089      2.00000
     17       1.7794      2.00000
     18       1.8070      2.00000
     19       2.2673      2.00000
     20       2.7549      2.00000
     21       3.6970      0.00000
     22       4.9201      0.00000
     23       5.1144      0.00000
     24       5.4571      0.00000
     25       6.0269      0.00000
     26       6.5891      0.00000
     27       6.6204      0.00000
     28       6.8259      0.00000
     29       7.2086      0.00000
     30       7.3793      0.00000
     31       7.5877      0.00000
     32       8.2320      0.00000

 k-point     7 :       0.1667   -0.1667    0.0000
  band No.  band energies     occupation 
      1     -10.9465      2.00000
      2     -10.7130      2.00000
      3      -9.9010      2.00000
      4      -9.5921      2.00000
      5      -5.2028      2.00000
      6      -4.8658      2.00000
      7      -3.7003      2.00000
      8      -3.4600      2.00000
      9      -1.7462      2.00000
     10      -1.0263      2.00000
     11      -0.8393      2.00000
     12      -0.0696      2.00000
     13       0.4467      2.00000
     14       0.5668      2.00000
     15       0.8378      2.00000
     16       0.9074      2.00000
     17       1.7688      2.00000
     18       1.8525      2.00000
     19       2.3635      2.00000
     20       2.4439      2.00000
     21       3.8714      0.00000
     22       4.9609      0.00000
     23       5.0855      0.00000
     24       5.6096      0.00000
     25       5.8789      0.00000
     26       6.5168      0.00000
     27       6.7386      0.00000
     28       6.9153      0.00000
     29       7.1393      0.00000
     30       7.3125      0.00000
     31       7.4702      0.00000
     32       8.0298      0.00000

 k-point     8 :       0.3333    0.1667    0.0000
  band No.  band energies     occupation 
      1     -10.4617      2.00000
      2     -10.2621      2.00000
      3      -9.7392      2.00000
      4      -9.5128      2.00000
      5      -5.5621      2.00000
      6      -5.0132      2.00000
      7      -4.5873      2.00000
      8      -4.1262      2.00000
      9      -1.3261      2.00000
     10      -1.2666      2.00000
     11      -1.0294      2.00000
     12      -0.1294      2.00000
     13       0.1850      2.00000
     14       0.4909      2.00000
     15       0.5509      2.00000
     16       1.0899      2.00000
     17       1.3326      2.00000
     18       1.7121      2.00000
     19       1.7322      2.00000
     20       2.5493      2.00000
     21       3.8255      0.00000
     22       4.5402      0.00000
     23       4.7788      0.00000
     24       5.1363      0.00000
     25       5.1966      0.00000
     26       5.9012      0.00000
     27       6.4360      0.00000
     28       6.7015      0.00000
     29       7.0586      0.00000
     30       7.4140      0.00000
     31       7.8911      0.00000
     32       8.0114      0.00000

 k-point     9 :       0.3333   -0.1667    0.0000
  band No.  band energies     occupation 
      1     -10.4660      2.00000
      2     -10.2572      2.00000
      3      -9.7328      2.00000
      4      -9.5219      2.00000
      5      -5.5066      2.00000
      6      -5.0702      2.00000
      7      -4.5691      2.00000
      8      -4.1480      2.00000
      9      -1.2893      2.00000
     10      -1.2679      2.00000
     11      -1.1272      2.00000
     12      -0.0524      2.00000
     13       0.1800      2.00000
     14       0.6095      2.00000
     15       0.6405      2.00000
     16       0.9746      2.00000
     17       1.0700      2.00000
     18       1.8059      2.00000
     19       2.0375      2.00000
     20       2.1926      2.00000
     21       3.9873      0.00000
     22       4.7533      0.00000
     23       4.7589      0.00000
     24       5.0127      0.00000
     25       5.3077      0.00000
     26       5.6505      0.00000
     27       6.3913      0.00000
     28       6.8473      0.00000
     29       6.9835      0.00000
     30       7.3311      0.00000
     31       7.8704      0.00000
     32       7.8894      0.00000

 k-point    10 :       0.5000    0.1667    0.0000
  band No.  band energies     occupation 
      1      -9.9221      2.00000
      2      -9.9119      2.00000
      3      -9.7556      2.00000
      4      -9.7435      2.00000
      5      -5.4374      2.00000
      6      -5.4094      2.00000
      7      -4.8865      2.00000
      8      -4.8574      2.00000
      9      -0.8684      2.00000
     10      -0.7967      2.00000
     11      -0.5794      2.00000
     12      -0.4600      2.00000
     13      -0.0223      2.00000
     14       0.0444      2.00000
     15       0.6586      2.00000
     16       0.7454      2.00000
     17       1.0112      2.00000
     18       1.2425      2.00000
     19       2.0163      2.00000
     20       2.2849      2.00000
     21       4.1030      0.00000
     22       4.1825      0.00000
     23       4.8853      0.00000
     24       5.0570      0.00000
     25       5.5045      0.00000
     26       5.6189      0.00000
     27       5.9908      0.00000
     28       6.1249      0.00000
     29       6.6400      0.00000
     30       6.7937      0.00000
     31       7.5720      0.00000
     32       7.7217      0.00000

 k-point    11 :       0.0000    0.3333    0.0000
  band No.  band energies     occupation 
      1     -10.8231      2.00000
      2     -10.5862      2.00000
      3     -10.1287      2.00000
      4      -9.8476      2.00000
      5      -5.4296      2.00000
      6      -4.9529      2.00000
      7      -4.5578      2.00000
      8      -4.0340      2.00000
      9      -1.3584      2.00000
     10       0.1481      2.00000
     11       0.4804      2.00000
     12       0.5653      2.00000
     13       0.6682      2.00000
     14       0.7746      2.00000
     15       1.1925      2.00000
     16       1.3405      2.00000
     17       1.5994      2.00000
     18       2.2824      2.00000
     19       2.4833      2.00000
     20       2.9387      2.00000
     21       3.9703      0.00000
     22       4.2805      0.00000
     23       4.6694      0.00000
     24       5.1718      0.00000
     25       5.5706      0.00000
     26       5.6873      0.00000
     27       5.9095      0.00000
     28       6.3646      0.00000
     29       6.5421      0.00000
     30       6.7578      0.00000
     31       7.3734      0.00000
     32       8.2867      0.00000

 k-point    12 :       0.1667    0.3333    0.0000
  band No.  band energies     occupation 
      1     -10.6578      2.00000
      2     -10.4345      2.00000
      3     -10.0166      2.00000
      4      -9.7543      2.00000
      5      -5.3728      2.00000
      6      -4.8997      2.00000
      7      -4.5328      2.00000
      8      -4.0658      2.00000
      9      -1.2182      2.00000
     10      -0.9331      2.00000
     11      -0.8210      2.00000
     12      -0.1455      2.00000
     13       0.2237      2.00000
     14       0.3232      2.00000
     15       0.8453      2.00000
     16       1.5577      2.00000
     17       2.0402      2.00000
     18       2.0955      2.00000
     19       2.1187      2.00000
     20       2.5776      2.00000
     21       4.1817      0.00000
     22       4.8527      0.00000
     23       5.2849      0.00000
     24       5.4015      0.00000
     25       5.4290      0.00000
     26       6.1376      0.00000
     27       6.4342      0.00000
     28       6.7946      0.00000
     29       6.9913      0.00000
     30       7.5038      0.00000
     31       7.7007      0.00000
     32       8.0042      0.00000

 k-point    13 :       0.1667   -0.3333    0.0000
  band No.  band energies     occupation 
      1     -10.6607      2.00000
      2     -10.4312      2.00000
      3     -10.0136      2.00000
      4      -9.7590      2.00000
      5      -5.3388      2.00000
      6      -4.9296      2.00000
      7      -4.4958      2.00000
      8      -4.1128      2.00000
      9      -1.2169      2.00000
     10      -1.0253      2.00000
     11      -0.8008      2.00000
     12      -0.0779      2.00000
     13       0.1802      2.00000
     14       0.5845      2.00000
     15       0.8341      2.00000
     16       1.2714      2.00000
     17       1.7561      2.00000
     18       2.1773      2.00000
     19       2.4676      2.00000
     20       2.4992      2.00000
     21       4.2259      0.00000
     22       4.9980      0.00000
     23       5.2168      0.00000
     24       5.2942      0.00000
     25       5.6168      0.00000
     26       5.9572      0.00000
     27       6.5726      0.00000
     28       6.8568      0.00000
     29       6.9281      0.00000
     30       7.4370      0.00000
     31       7.6358      0.00000
     32       7.8100      0.00000

 k-point    14 :       0.3333    0.3333    0.0000
  band No.  band energies     occupation 
      1     -10.2355      2.00000
      2     -10.0527      2.00000
      3      -9.8034      2.00000
      4      -9.5959      2.00000
      5      -5.3423      2.00000
      6      -4.8514      2.00000
      7      -4.6985      2.00000
      8      -4.3811      2.00000
      9      -1.8289      2.00000
     10      -1.5597      2.00000
     11      -1.1742      2.00000
     12      -0.7008      2.00000
     13      -0.6009      2.00000
     14      -0.0865      2.00000
     15       0.1311      2.00000
     16       0.9571      2.00000
     17       1.0107      2.00000
     18       1.2490      2.00000
     19       1.6237      2.00000
     20       2.6117      2.00000
     21       4.1260      0.00000
     22       5.5212      0.00000
     23       5.7088      0.00000
     24       5.7518      0.00000
     25       6.6514      0.00000
     26       6.8490      0.00000
     27       6.8611      0.00000
     28       7.2004      0.00000
     29       7.6561      0.00000
     30       7.7146      0.00000
     31       8.4492      0.00000
     32       8.8560      0.00000

 k-point    15 :       0.3333   -0.3333    0.0000
  band No.  band energies     occupation 
      1     -10.2447      2.00000
      2     -10.0420      2.00000
      3      -9.7909      2.00000
      4      -9.6121      2.00000
      5      -5.2496      2.00000
      6      -4.9446      2.00000
      7      -4.6825      2.00000
      8      -4.4068      2.00000
      9      -1.8285      2.00000
     10      -1.6021      2.00000
     11      -1.0903      2.00000
     12      -0.7530      2.00000
     13      -0.6791      2.00000
     14       0.1329      2.00000
     15       0.4530      2.00000
     16       0.5167      2.00000
     17       0.6141      2.00000
     18       1.8044      2.00000
     19       1.9186      2.00000
     20       1.9963      2.00000
     21       4.3907      0.00000
     22       5.6187      0.00000
     23       5.7625      0.00000
     24       5.7844      0.00000
     25       6.4757      0.00000
     26       6.7312      0.00000
     27       6.7317      0.00000
     28       7.0663      0.00000
     29       7.7628      0.00000
     30       7.8617      0.00000
     31       8.3778      0.00000
     32       8.8929      0.00000

 k-point    16 :       0.5000    0.3333    0.0000
  band No.  band energies     occupation 
      1      -9.8410      2.00000
      2      -9.8202      2.00000
      3      -9.6906      2.00000
      4      -9.6661      2.00000
      5      -5.2233      2.00000
      6      -5.1458      2.00000
      7      -4.8138      2.00000
      8      -4.7337      2.00000
      9      -1.4879      2.00000
     10      -1.4396      2.00000
     11      -1.2229      2.00000
     12      -1.1171      2.00000
     13      -0.6955      2.00000
     14      -0.6484      2.00000
     15      -0.0792      2.00000
     16      -0.0306      2.00000
     17       0.5988      2.00000
     18       1.0133      2.00000
     19       1.7032      2.00000
     20       2.2759      2.00000
     21       4.7361      0.00000
     22       5.0710      0.00000
     23       6.3539      0.00000
     24       6.5852      0.00000
     25       6.6030      0.00000
     26       6.6435      0.00000
     27       6.9305      0.00000
     28       7.3642      0.00000
     29       7.8991      0.00000
     30       7.9810      0.00000
     31       8.2653      0.00000
     32       8.4004      0.00000

 k-point    17 :       0.0000    0.5000    0.0000
  band No.  band energies     occupation 
      1     -10.4330      2.00000
      2     -10.4330      2.00000
      3     -10.1907      2.00000
      4     -10.1907      2.00000
      5      -5.2626      2.00000
      6      -5.2626      2.00000
      7      -4.7218      2.00000
      8      -4.7218      2.00000
      9      -0.6116      2.00000
     10      -0.6116      2.00000
     11       0.9055      2.00000
     12       0.9055      2.00000
     13       1.0027      2.00000
     14       1.0027      2.00000
     15       1.2906      2.00000
     16       1.2906      2.00000
     17       2.2317      2.00000
     18       2.2317      2.00000
     19       2.5480      2.00000
     20       2.5480      2.00000
     21       4.3445      0.00000
     22       4.3445      0.00000
     23       4.7304      0.00000
     24       4.7304      0.00000
     25       5.2219      0.00000
     26       5.2219      0.00000
     27       5.8234      0.00000
     28       5.8234      0.00000
     29       6.0190      0.00000
     30       6.0190      0.00000
     31       7.9058      0.00000
     32       7.9058      0.00000

 k-point    18 :       0.1667    0.5000    0.0000
  band No.  band energies     occupation 
      1     -10.2975      2.00000
      2     -10.2936      2.00000
      3     -10.0703      2.00000
      4     -10.0653      2.00000
      5      -5.1451      2.00000
      6      -5.1442      2.00000
      7      -4.6724      2.00000
      8      -4.6664      2.00000
      9      -0.7369      2.00000
     10      -0.5496      2.00000
     11      -0.4405      2.00000
     12      -0.4346      2.00000
     13      -0.3292      2.00000
     14      -0.0611      2.00000
     15       1.0700      2.00000
     16       1.2951      2.00000
     17       1.8584      2.00000
     18       2.2144      2.00000
     19       2.3688      2.00000
     20       2.6330      2.00000
     21       4.5551      0.00000
     22       4.6094      0.00000
     23       5.3842      0.00000
     24       5.4973      0.00000
     25       5.9020      0.00000
     26       5.9323      0.00000
     27       6.6052      0.00000
     28       6.6648      0.00000
     29       7.0041      0.00000
     30       7.1071      0.00000
     31       7.5937      0.00000
     32       7.5964      0.00000

[...]
     32       7.3028      0.00000

 k-point    32 :       0.1667    0.3333    0.5000
  band No.  band energies     occupation 
      1     -10.5672      2.00000
      2     -10.5672      2.00000
      3      -9.8648      2.00000
      4      -9.8648      2.00000
      5      -5.1645      2.00000
      6      -5.1645      2.00000
      7      -4.3046      2.00000
      8      -4.3046      2.00000
      9      -1.0258      2.00000
     10      -1.0258      2.00000
     11      -0.3562      2.00000
     12      -0.3562      2.00000
     13       0.2111      2.00000
     14       0.2111      2.00000
     15       1.0511      2.00000
     16       1.0512      2.00000
     17       2.0080      2.00000
     18       2.0080      2.00000
     19       2.2118      2.00000
     20       2.2119      2.00000
     21       4.9958      0.00000
     22       4.9958      0.00000
     23       5.4165      0.00000
     24       5.4165      0.00000
     25       5.8970      0.00000
     26       5.8970      0.00000
     27       6.4307      0.00000
     28       6.4307      0.00000
     29       7.0934      0.00000
     30       7.0934      0.00000
     31       7.6904      0.00000
     32       7.6905      0.00000

 k-point    33 :       0.1667   -0.3333    0.5000
  band No.  band energies     occupation 
      1     -10.5676      2.00000
      2     -10.5676      2.00000
      3      -9.8647      2.00000
      4      -9.8647      2.00000
      5      -5.1552      2.00000
      6      -5.1552      2.00000
      7      -4.3129      2.00000
      8      -4.3129      2.00000
      9      -0.9780      2.00000
     10      -0.9780      2.00000
     11      -0.4377      2.00000
     12      -0.4377      2.00000
     13       0.1409      2.00000
     14       0.1409      2.00000
     15       1.1800      2.00000
     16       1.1801      2.00000
     17       1.9093      2.00000
     18       1.9093      2.00000
     19       2.3455      2.00000
     20       2.3455      2.00000
     21       4.9591      0.00000
     22       4.9591      0.00000
     23       5.3222      0.00000
     24       5.3222      0.00000
     25       5.9998      0.00000
     26       5.9998      0.00000
     27       6.4460      0.00000
     28       6.4460      0.00000
     29       7.0032      0.00000
     30       7.0032      0.00000
     31       7.5515      0.00000
     32       7.5515      0.00000

 k-point    34 :       0.3333    0.3333    0.5000
  band No.  band energies     occupation 
      1     -10.1636      2.00000
      2     -10.1636      2.00000
      3      -9.6807      2.00000
      4      -9.6807      2.00000
      5      -5.1366      2.00000
      6      -5.1366      2.00000
      7      -4.5136      2.00000
      8      -4.5136      2.00000
      9      -1.7486      2.00000
     10      -1.7486      2.00000
     11      -0.9340      2.00000
     12      -0.9340      2.00000
     13      -0.2311      2.00000
     14      -0.2311      2.00000
     15       0.6537      2.00000
     16       0.6537      2.00000
     17       0.9455      2.00000
     18       0.9455      2.00000
     19       1.9171      2.00000
     20       1.9171      2.00000
     21       5.2020      0.00000
     22       5.2020      0.00000
     23       5.6961      0.00000
     24       5.6961      0.00000
     25       6.7538      0.00000
     26       6.7538      0.00000
     27       7.0240      0.00000
     28       7.0240      0.00000
     29       7.5970      0.00000
     30       7.5970      0.00000
     31       8.6030      0.00000
     32       8.6030      0.00000

 k-point    35 :       0.3333   -0.3333    0.5000
  band No.  band energies     occupation 
      1     -10.1643      2.00000
      2     -10.1643      2.00000
      3      -9.6803      2.00000
      4      -9.6803      2.00000
      5      -5.1197      2.00000
      6      -5.1197      2.00000
      7      -4.5309      2.00000
      8      -4.5309      2.00000
      9      -1.7255      2.00000
     10      -1.7255      2.00000
     11      -0.9826      2.00000
     12      -0.9826      2.00000
     13      -0.2497      2.00000
     14      -0.2497      2.00000
     15       0.6485      2.00000
     16       0.6485      2.00000
     17       0.9916      2.00000
     18       0.9916      2.00000
     19       1.9610      2.00000
     20       1.9610      2.00000
     21       5.1899      0.00000
     22       5.1899      0.00000
     23       5.6432      0.00000
     24       5.6432      0.00000
     25       6.7446      0.00000
     26       6.7446      0.00000
     27       6.8881      0.00000
     28       6.8881      0.00000
     29       7.6222      0.00000
     30       7.6222      0.00000
     31       8.8148      0.00000
     32       8.8148      0.00000

 k-point    36 :       0.5000    0.3333    0.5000
  band No.  band energies     occupation 
      1      -9.8290      2.00000
      2      -9.8290      2.00000
      3      -9.6804      2.00000
      4      -9.6804      2.00000
      5      -5.1517      2.00000
      6      -5.1517      2.00000
      7      -4.8131      2.00000
      8      -4.8131      2.00000
      9      -1.4923      2.00000
     10      -1.4923      2.00000
     11      -1.1266      2.00000
     12      -1.1266      2.00000
     13      -0.6753      2.00000
     14      -0.6753      2.00000
     15      -0.1300      2.00000
     16      -0.1300      2.00000
     17       1.1465      2.00000
     18       1.1465      2.00000
     19       1.6142      2.00000
     20       1.6142      2.00000
     21       5.0796      0.00000
     22       5.0796      0.00000
     23       6.4161      0.00000
     24       6.4161      0.00000
     25       6.5705      0.00000
     26       6.5705      0.00000
     27       7.1813      0.00000
     28       7.1813      0.00000
     29       7.9505      0.00000
     30       7.9505      0.00000
     31       8.3426      0.00000
     32       8.3426      0.00000

 k-point    37 :       0.0000    0.5000    0.5000
  band No.  band energies     occupation 
      1     -10.4303      2.00000
      2     -10.4303      2.00000
      3     -10.1943      2.00000
      4     -10.1943      2.00000
      5      -5.0943      2.00000
      6      -5.0943      2.00000
      7      -4.9322      2.00000
      8      -4.9322      2.00000
      9      -0.0955      2.00000
     10      -0.0955      2.00000
     11       0.4770      2.00000
     12       0.4770      2.00000
     13       0.9304      2.00000
     14       0.9304      2.00000
     15       1.0277      2.00000
     16       1.0277      2.00000
     17       2.4217      2.00000
     18       2.4217      2.00000
     19       2.4716      2.00000
     20       2.4716      2.00000
     21       4.4364      0.00000
     22       4.4364      0.00000
     23       4.5705      0.00000
     24       4.5705      0.00000
     25       5.7923      0.00000
     26       5.7923      0.00000
     27       5.9524      0.00000
     28       5.9524      0.00000
     29       6.5655      0.00000
     30       6.5655      0.00000
     31       6.6896      0.00000
     32       6.6896      0.00000

 k-point    38 :       0.1667    0.5000    0.5000
  band No.  band energies     occupation 
      1     -10.2930      2.00000
      2     -10.2930      2.00000
      3     -10.0711      2.00000
      4     -10.0711      2.00000
      5      -4.9817      2.00000
      6      -4.9817      2.00000
      7      -4.8648      2.00000
      8      -4.8648      2.00000
      9      -0.6627      2.00000
     10      -0.6627      2.00000
     11      -0.3853      2.00000
     12      -0.3853      2.00000
     13       0.2541      2.00000
     14       0.2542      2.00000
     15       0.6400      2.00000
     16       0.6400      2.00000
     17       1.9965      2.00000
     18       1.9965      2.00000
     19       2.3448      2.00000
     20       2.3448      2.00000
     21       5.1469      0.00000
     22       5.1469      0.00000
     23       5.4325      0.00000
     24       5.4325      0.00000
     25       6.1550      0.00000
     26       6.1550      0.00000
     27       6.5474      0.00000
     28       6.5474      0.00000
     29       7.0078      0.00000
     30       7.0078      0.00000
     31       7.1783      0.00000
     32       7.1783      0.00000

 k-point    39 :       0.3333    0.5000    0.5000
  band No.  band energies     occupation 
      1      -9.9755      2.00000
      2      -9.9755      2.00000
      3      -9.7961      2.00000
      4      -9.7961      2.00000
      5      -4.9147      2.00000
      6      -4.9147      2.00000
      7      -4.7498      2.00000
      8      -4.7498      2.00000
      9      -1.6257      2.00000
     10      -1.6257      2.00000
     11      -1.5296      2.00000
     12      -1.5296      2.00000
     13      -0.1656      2.00000
     14      -0.1656      2.00000
     15       0.2238      2.00000
     16       0.2238      2.00000
     17       1.0956      2.00000
     18       1.0956      2.00000
     19       1.6098      2.00000
     20       1.6098      2.00000
     21       5.3939      0.00000
     22       5.3939      0.00000
     23       6.4333      0.00000
     24       6.4333      0.00000
     25       7.0348      0.00000
     26       7.0348      0.00000
     27       7.3775      0.00000
     28       7.3775      0.00000
     29       8.2497      0.00000
     30       8.2497      0.00000
     31       8.6226      0.00000
     32       8.6226      0.00000

 k-point    40 :       0.5000    0.5000    0.5000
  band No.  band energies     occupation 
      1      -9.7849      2.00000
      2      -9.7849      2.00000
      3      -9.6422      2.00000
      4      -9.6422      2.00000
      5      -5.0396      2.00000
      6      -5.0396      2.00000
      7      -4.7303      2.00000
      8      -4.7303      2.00000
      9      -1.7781      2.00000
     10      -1.7781      2.00000
     11      -1.3539      2.00000
     12      -1.3539      2.00000
     13      -1.0286      2.00000
     14      -1.0286      2.00000
     15      -0.5448      2.00000
     16      -0.5448      2.00000
     17       1.2117      2.00000
     18       1.2117      2.00000
     19       1.5760      2.00000
     20       1.5760      2.00000
     21       4.9446      0.00000
     22       4.9446      0.00000
     23       7.0258      0.00000
     24       7.0258      0.00000
     25       7.3149      0.00000
     26       7.3149      0.00000
     27       7.7125      0.00000
     28       7.7125      0.00000
     29       8.1278      0.00000
     30       8.1278      0.00000
     31       9.4255      0.00000
     32       9.4255      0.00000


--------------------------------------------------------------------------------------------------------


 soft charge-density along one line, spin component            1
         0         1         2         3         4         5         6         7         8         9
 total charge-density along one line
 
 pseudopotential strength for first ion, spin component:            1
 14.610  18.231   0.043   0.046   0.001   0.078   0.084   0.001
 18.231  22.763   0.055   0.059   0.001   0.098   0.106   0.001
  0.043   0.055   3.239  -0.003  -0.000   5.516  -0.005  -0.000
  0.046   0.059  -0.003   3.238  -0.000  -0.005   5.513  -0.000
  0.001   0.001  -0.000  -0.000   3.241  -0.000  -0.000   5.518
  0.078   0.098   5.516  -0.005  -0.000   9.449  -0.008  -0.001
  0.084   0.106  -0.005   5.513  -0.000  -0.008   9.445  -0.000
  0.001   0.001  -0.000  -0.000   5.518  -0.001  -0.000   9.454
 -0.000  -0.001   0.000   0.000   0.007   0.000   0.000   0.014
 -0.006  -0.007   0.012   0.013   0.000   0.022   0.024   0.000
 -0.003  -0.003  -0.004   0.012  -0.000  -0.007   0.022  -0.000
 -0.000  -0.000   0.000   0.000   0.012   0.000   0.000   0.022
  0.002   0.002  -0.013   0.000   0.000  -0.023   0.000   0.000
 total augmentation occupancy for first ion, spin component:            1
  2.710  -0.689   0.355   0.378  -0.000  -0.065  -0.069   0.000  -0.001  -0.013  -0.007  -0.001   0.008
 -0.689   0.668  -0.451  -0.493  -0.005   0.071   0.077   0.001   0.002   0.006   0.007   0.003  -0.004
  0.355  -0.451   1.234   0.047   0.003  -0.202   0.005  -0.000  -0.001   0.042  -0.096  -0.001  -0.000
  0.378  -0.493   0.047   1.272   0.003   0.005  -0.204   0.000   0.001  -0.015   0.108   0.001  -0.003
 -0.000  -0.005   0.003   0.003   1.231  -0.000   0.000  -0.211   0.146   0.000   0.001   0.037   0.000
 -0.065   0.071  -0.202   0.005  -0.000   0.037  -0.003   0.000   0.000  -0.007   0.016   0.000   0.000
 -0.069   0.077   0.005  -0.204   0.000  -0.003   0.037  -0.000  -0.000   0.002  -0.019  -0.000   0.000
  0.000   0.001  -0.000   0.000  -0.211   0.000  -0.000   0.040  -0.025   0.000  -0.000  -0.006  -0.000
 -0.001   0.002  -0.001   0.001   0.146   0.000  -0.000  -0.025   0.031   0.000  -0.000   0.002  -0.000
 -0.013   0.006   0.042  -0.015   0.000  -0.007   0.002   0.000   0.000   0.011  -0.006   0.000   0.001
 -0.007   0.007  -0.096   0.108   0.001   0.016  -0.019  -0.000  -0.000  -0.006   0.030  -0.001  -0.002
 -0.001   0.003  -0.001   0.001   0.037   0.000  -0.000  -0.006   0.002   0.000  -0.001   0.009  -0.000
  0.008  -0.004  -0.000  -0.003   0.000   0.000   0.000  -0.000  -0.000   0.001  -0.002  -0.000   0.008


------------------------ aborting loop because EDIFF is reached ----------------------------------------


    CHARGE:  cpu time      0.0075: real time      0.0076
    FORLOC:  cpu time      0.0002: real time      0.0002
    FORNL :  cpu time      0.0268: real time      0.0270
    STRESS:  cpu time      0.2805: real time      0.2818
    FORCOR:  cpu time      0.0079: real time      0.0079
    FORHAR:  cpu time      0.0016: real time      0.0016
    MIXING:  cpu time      0.0029: real time      0.0029
    OFIELD:  cpu time      0.0000: real time      0.0000

  FORCE on cell =-STRESS in cart. coord.  units (eV):
  Direction    XX          YY          ZZ          XY          YZ          ZX
  --------------------------------------------------------------------------------------
  Alpha Z    83.74936    83.74936    83.74936
  Ewald    -403.24301  -466.06417  -511.40008     3.55902    -0.00000     0.00000
  Hartree    82.84264    53.62390    22.22143     1.80477     0.00000     0.00000
  E(xc)    -140.94505  -140.98875  -141.32143     0.02082     0.00000    -0.00000
  Local    -240.45017  -154.62844   -80.92525    -5.58504     0.00000    -0.00000
  n-local   240.47563   240.12687   241.59570     0.05970    -0.00000     0.00000
  augment   -11.32119   -11.74791   -12.05188    -0.00901    -0.00000     0.00000
  Kinetic   389.77527   396.51676   399.16519    -0.00658     0.00000    -0.00000
  Fock        0.00000     0.00000     0.00000     0.00000     0.00000     0.00000
  -------------------------------------------------------------------------------------
  Total       0.88349     0.58761     1.03304    -0.15632    -0.00000    -0.00000
  in kB       6.99623     4.65326     8.18050    -1.23792    -0.00000    -0.00001
  external pressure =        6.61 kB  Pullay stress =        0.00 kB


 VOLUME and BASIS-vectors are now :
 -----------------------------------------------------------------------------
  energy-cutoff  :      360.00
  volume of cell :      202.32
      direct lattice vectors                 reciprocal lattice vectors
     3.858100176  0.000000000  0.000000000     0.259194929  0.000000000  0.000000000
     0.000000000  4.526575088  0.000000000     0.000000000  0.220917577  0.000000000
     0.000000000  0.000000000 11.585176468     0.000000000  0.000000000  0.086317200

  length of vectors
     3.858100176  4.526575088 11.585176468     0.259194929  0.220917577  0.086317200


 FORCES acting on ions
    electron-ion (+dipol)            ewald-force                    non-local-force                 convergence-correction
 -----------------------------------------------------------------------------------------------
   0.592E+00 0.172E+02 0.318E+02   -.654E+00 -.200E+02 -.347E+02   0.895E-01 0.259E+01 0.299E+01   -.320E-04 -.161E-03 -.636E-03
   0.592E+00 0.172E+02 -.318E+02   -.654E+00 -.200E+02 0.347E+02   0.895E-01 0.259E+01 -.299E+01   -.323E-04 -.162E-03 0.635E-03
   -.592E+00 -.172E+02 -.318E+02   0.654E+00 0.200E+02 0.347E+02   -.895E-01 -.259E+01 -.299E+01   0.323E-04 0.162E-03 0.636E-03
   -.592E+00 -.172E+02 0.318E+02   0.654E+00 0.200E+02 -.347E+02   -.895E-01 -.259E+01 0.299E+01   0.323E-04 0.161E-03 -.636E-03
   0.194E+00 -.182E+02 -.338E+02   -.225E+00 0.197E+02 0.356E+02   -.147E-01 -.136E+01 -.172E+01   0.384E-04 0.895E-04 0.916E-03
   0.194E+00 -.182E+02 0.338E+02   -.225E+00 0.197E+02 -.356E+02   -.147E-01 -.136E+01 0.172E+01   0.374E-04 0.890E-04 -.917E-03
   -.194E+00 0.182E+02 0.338E+02   0.225E+00 -.197E+02 -.356E+02   0.147E-01 0.136E+01 0.172E+01   -.379E-04 -.901E-04 -.918E-03
   -.194E+00 0.182E+02 -.338E+02   0.225E+00 -.197E+02 0.356E+02   0.147E-01 0.136E+01 -.172E+01   -.385E-04 -.895E-04 0.919E-03
 -----------------------------------------------------------------------------------------------
   -.695E-04 0.138E-04 0.279E-05   0.477E-14 0.000E+00 0.711E-14   -.129E-04 -.490E-04 -.642E-07   -.447E-06 -.140E-05 -.163E-05
 
 
 POSITION                                       TOTAL-FORCE (eV/Angst)
 -----------------------------------------------------------------------------------
      3.59251      1.87891      1.52892         0.028055     -0.140158      0.088274
      1.66346      4.14220      4.26367         0.028056     -0.140159     -0.088274
      2.89357      4.09092     10.05626        -0.028022      0.140212     -0.088311
      0.96452      1.82763      7.32150        -0.028022      0.140212      0.088311
      3.59251      1.35031      4.06767        -0.046465      0.112285      0.052815
      1.66346      3.61359      1.72492        -0.046465      0.112285     -0.052814
      2.89357      0.09295      7.51751         0.046432     -0.112338     -0.052421
      0.96452      2.35624      9.86026         0.046432     -0.112338      0.052420
 -----------------------------------------------------------------------------------
    total drift:                               -0.000083     -0.000037      0.000001


--------------------------------------------------------------------------------------------------------



  FREE ENERGIE OF THE ION-ELECTRON SYSTEM (eV)
  ---------------------------------------------------
  free  energy   TOTEN  =       -33.67661281 eV

  energy  without entropy=      -33.67661281  energy(sigma->0) =      -33.67661281
 


--------------------------------------------------------------------------------------------------------


    POTLOK:  cpu time      0.2163: real time      0.2171


--------------------------------------------------------------------------------------------------------


     LOOP+:  cpu time      7.6327: real time      7.6751
    4ORBIT:  cpu time      0.0000: real time      0.0000

 total amount of memory used by VASP MPI-rank0    37119. kBytes
=======================================================================

   base      :      30000. kBytes
   nonl-proj :       5406. kBytes
   fftplans  :        334. kBytes
   grid      :        503. kBytes
   one-center:         16. kBytes
   wavefun   :        860. kBytes
 
  
  
 General timing and accounting informations for this job:
 ========================================================
  
                  Total CPU time used (sec):        9.234
                            User time (sec):        8.943
                          System time (sec):        0.292
                         Elapsed time (sec):        9.734
  
                   Maximum memory used (kb):      175356.
                   Average memory used (kb):          N/A
  
                          Minor page faults:        17735
                          Major page faults:           20
                 Voluntary context switches:         2257
