 running  160 mpi-ranks, with    1 threads/rank, on   10 nodes
 distrk:  each k-point on   80 cores,    2 groups
 distr:  one band on    5 cores,   16 groups
 vasp.6.4.2 20Jul23 (build Oct 12 2023 10:31:02) complex                         
 POSCAR found type information on POSCAR GeSe
 POSCAR found :  2 types and       8 ions
 Reading from existing POTCAR
 scaLAPACK will be used
 Reading from existing POTCAR
 LDA part: xc-table for Pade appr. of Perdew
 POSCAR, INCAR and KPOINTS ok, starting setup
 FFT: planning ... GRIDC
 FFT: planning ... GRID_SOFT
 FFT: planning ... GRID
 WAVECAR not read
 entering main loop
       N       E                     dE             d eps       ncg     rms          rms(c)
DAV:   1     0.132449212072E+03    0.13245E+03   -0.12869E+04  2560   0.772E+02
DAV:   2    -0.252023756377E+02   -0.15765E+03   -0.15280E+03  3760   0.139E+02
DAV:   3    -0.340418589465E+02   -0.88395E+01   -0.88202E+01  3072   0.383E+01
DAV:   4    -0.341076700530E+02   -0.65811E-01   -0.65794E-01  3472   0.378E+00
DAV:   5    -0.341081484988E+02   -0.47845E-03   -0.47843E-03  3088   0.312E-01    0.645E+00
DAV:   6    -0.337194090801E+02    0.38874E+00   -0.81866E-01  3232   0.301E+00    0.406E+00
DAV:   7    -0.337109876404E+02    0.84214E-02   -0.22484E-01  3056   0.168E+00    0.130E+00
DAV:   8    -0.337094192818E+02    0.15684E-02   -0.24647E-02  3104   0.577E-01    0.179E-01
DAV:   9    -0.337097684103E+02   -0.34913E-03   -0.36006E-03  3392   0.263E-01    0.681E-02
DAV:  10    -0.337098848387E+02   -0.11643E-03   -0.29875E-04  3008   0.774E-02    0.243E-02
DAV:  11    -0.337099162136E+02   -0.31375E-04   -0.39058E-05  3376   0.294E-02    0.118E-02
DAV:  12    -0.337099175081E+02   -0.12945E-05   -0.62632E-06  3264   0.974E-03    0.285E-03
DAV:  13    -0.337099179899E+02   -0.48177E-06   -0.13827E-06  2096   0.513E-03
   1 F= -.33709918E+02 E0= -.33709798E+02  d E =-.239782E-03
