 running  128 mpi-ranks, with    1 threads/rank, on    2 nodes
 distrk:  each k-point on   64 cores,    2 groups
 distr:  one band on    4 cores,   16 groups
 vasp.6.4.2 20Jul23 (build Oct 12 2023 10:31:02) complex                         
 POSCAR found type information on POSCAR GeSe
 POSCAR found :  2 types and       8 ions
 Reading from existing POTCAR
 scaLAPACK will be used
 Reading from existing POTCAR
 LDA part: xc-table for Pade appr. of Perdew
 POSCAR, INCAR and KPOINTS ok, starting setup
 FFT: planning ... GRIDC
 FFT: planning ... GRID_SOFT
 FFT: planning ... GRID
 WAVECAR not read
 entering main loop
       N       E                     dE             d eps       ncg     rms          rms(c)
DAV:   1     0.128730180564E+03    0.12873E+03   -0.12849E+04  2560   0.775E+02
DAV:   2    -0.258110514683E+02   -0.15454E+03   -0.14962E+03  3696   0.139E+02
DAV:   3    -0.340927441989E+02   -0.82817E+01   -0.82643E+01  3216   0.373E+01
DAV:   4    -0.341457371560E+02   -0.52993E-01   -0.52987E-01  3248   0.342E+00
DAV:   5    -0.341460454352E+02   -0.30828E-03   -0.30827E-03  3200   0.254E-01    0.658E+00
DAV:   6    -0.337883940659E+02    0.35765E+00   -0.70682E-01  3136   0.286E+00    0.414E+00
DAV:   7    -0.337756557125E+02    0.12738E-01   -0.23054E-01  3040   0.171E+00    0.123E+00
DAV:   8    -0.337735442295E+02    0.21115E-02   -0.23535E-02  2896   0.575E-01    0.179E-01
DAV:   9    -0.337737979261E+02   -0.25370E-03   -0.34129E-03  3136   0.254E-01    0.634E-02
DAV:  10    -0.337738550876E+02   -0.57162E-04   -0.20664E-04  3200   0.614E-02    0.240E-02
DAV:  11    -0.337738803649E+02   -0.25277E-04   -0.35336E-05  2848   0.272E-02    0.121E-02
DAV:  12    -0.337738802612E+02    0.10368E-06   -0.42625E-06  3360   0.894E-03
   1 F= -.33773880E+02 E0= -.33773880E+02  d E =-.214371E-14
