 running  128 mpi-ranks, with    1 threads/rank, on    2 nodes
 distrk:  each k-point on   64 cores,    2 groups
 distr:  one band on    8 cores,    8 groups
 vasp.6.4.2 20Jul23 (build Oct 12 2023 10:31:02) complex                         
 POSCAR found type information on POSCAR GeSe
 POSCAR found :  2 types and      72 ions
 Reading from existing POTCAR
 -----------------------------------------------------------------------------
|                                                                             |
|           W    W    AA    RRRRR   N    N  II  N    N   GGGG   !!!           |
|           W    W   A  A   R    R  NN   N  II  NN   N  G    G  !!!           |
|           W    W  A    A  R    R  N N  N  II  N N  N  G       !!!           |
|           W WW W  AAAAAA  RRRRR   N  N N  II  N  N N  G  GGG   !            |
|           WW  WW  A    A  R   R   N   NN  II  N   NN  G    G                |
|           W    W  A    A  R    R  N    N  II  N    N   GGGG   !!!           |
|                                                                             |
|     You use a magnetic or noncollinear calculation, but did not specify     |
|     the initial magnetic moment with the MAGMOM tag. Note that a            |
|     default of 1 will be used for all atoms. This ferromagnetic setup       |
|     may break the symmetry of the crystal, in particular it may rule        |
|     out finding an antiferromagnetic solution. Thence, we recommend         |
|     setting the initial magnetic moment manually or verifying carefully     |
|     that this magnetic setup is desired.                                    |
|                                                                             |
 -----------------------------------------------------------------------------

 scaLAPACK will be used
 Reading from existing POTCAR
 -----------------------------------------------------------------------------
|                                                                             |
|               ----> ADVICE to this user running VASP <----                  |
|                                                                             |
|     You have a (more or less) 'large supercell' and for larger cells it     |
|     might be more efficient to use real-space projection operators.         |
|     Therefore, try LREAL= Auto in the INCAR file.                           |
|     Mind: For very accurate calculation, you might also keep the            |
|     reciprocal projection scheme (i.e. LREAL=.FALSE.).                      |
|                                                                             |
 -----------------------------------------------------------------------------

 LDA part: xc-table for Pade appr. of Perdew
 -----------------------------------------------------------------------------
|                                                                             |
|           W    W    AA    RRRRR   N    N  II  N    N   GGGG   !!!           |
|           W    W   A  A   R    R  NN   N  II  NN   N  G    G  !!!           |
|           W    W  A    A  R    R  N N  N  II  N N  N  G       !!!           |
|           W WW W  AAAAAA  RRRRR   N  N N  II  N  N N  G  GGG   !            |
|           WW  WW  A    A  R   R   N   NN  II  N   NN  G    G                |
|           W    W  A    A  R    R  N    N  II  N    N   GGGG   !!!           |
|                                                                             |
|     The number of bands has been changed from the values supplied in        |
|     the INCAR file. This is a result of running the parallel version.       |
|     The orbitals not found in the WAVECAR file will be initialized with     |
|     random numbers, which is usually adequate. For correlated               |
|     calculations, however, you should redo the groundstate calculation.     |
|     I found NBANDS = 220. Now, NBANDS = 224.                                |
|                                                                             |
 -----------------------------------------------------------------------------

 POSCAR, INCAR and KPOINTS ok, starting setup
 FFT: planning ... GRIDC
 FFT: planning ... GRID_SOFT
 FFT: planning ... GRID
 WAVECAR not read
 WARNING: random wavefunctions but no delay for mixing, default for NELMDL
 entering main loop
       N       E                     dE             d eps       ncg     rms          rms(c)
DAV:   1     0.181337845140E+04    0.18134E+04   -0.14209E+05  7168   0.135E+03
DAV:   2    -0.645989640996E+02   -0.18780E+04   -0.18029E+04  8488   0.205E+02
DAV:   3    -0.281686702164E+03   -0.21709E+03   -0.21126E+03  8584   0.690E+01
DAV:   4    -0.289582677689E+03   -0.78960E+01   -0.78087E+01  8792   0.130E+01
DAV:   5    -0.289863088998E+03   -0.28041E+00   -0.27967E+00  9016   0.210E+00    0.291E+01
DAV:   6    -0.289105617541E+03    0.75747E+00   -0.27207E+01  7936   0.772E+00    0.172E+01
DAV:   7    -0.296657203768E+03   -0.75516E+01   -0.87667E+00  8072   0.448E+00    0.908E+00
DAV:   8    -0.299890037529E+03   -0.32328E+01   -0.17353E+00  8136   0.227E+00    0.338E+00
DAV:   9    -0.300285690306E+03   -0.39565E+00   -0.43880E-01  9136   0.102E+00    0.150E+00
DAV:  10    -0.300392373217E+03   -0.10668E+00   -0.95446E-02  8040   0.468E-01    0.736E-01
DAV:  11    -0.300424013167E+03   -0.31640E-01   -0.37960E-02  9112   0.288E-01    0.289E-01
DAV:  12    -0.300427201132E+03   -0.31880E-02   -0.43910E-03  8424   0.118E-01    0.116E-01
DAV:  13    -0.300427334681E+03   -0.13355E-03   -0.68863E-04  9936   0.405E-02    0.506E-02
DAV:  14    -0.300427356562E+03   -0.21881E-04   -0.10532E-04  8368   0.198E-02    0.188E-02
DAV:  15    -0.300427360203E+03   -0.36408E-05   -0.18337E-05  8568   0.912E-03    0.814E-03
DAV:  16    -0.300427360783E+03   -0.57980E-06   -0.15806E-06  4888   0.282E-03
   1 F= -.30042736E+03 E0= -.30042736E+03  d E =-.790468E-12  mag=     0.0005
