 vasp.6.4.2 20Jul23 (build Oct 12 2023 10:31:02) complex                         
 executed on              LinuxNV date 2025.05.28  08:31:26
 running  128 mpi-ranks, with    1 threads/rank, on    2 nodes
 distrk:  each k-point on   64 cores,    2 groups
 distr:  one band on NCORE=   4 cores,   16 groups


--------------------------------------------------------------------------------------------------------


 INCAR:
   ENCUT = 360.000000
   SIGMA = 0.050000
   EDIFF = 1.00e-06
   ALGO = Normal
   GGA = PE
   PREC = Normal
   SYSTEM = ./
   ICHARG = 2
   ISMEAR = 0
   ISPIN = 1
   ISTART = 0
   ISYM = 0
   KPAR = 2
   LMAXMIX = 4
   NELM = 100
   NPAR = 16
   LASPH = .TRUE.
   LCHARG = .FALSE.
   LWAVE = .FALSE.

 POTCAR:    PAW_PBE Ge 05Jan2001                  
 POTCAR:    PAW_PBE Se 06Sep2000                  
 POTCAR:    PAW_PBE Ge 05Jan2001                  
   VRHFIN =Ge: s2p2                                                                                 
   LEXCH  = PE                                                                                      
   EATOM  =   104.9960 eV,    7.7170 Ry                                                             
                                                                                                    
   TITEL  = PAW_PBE Ge 05Jan2001                                                                    
   LULTRA =        F    use ultrasoft PP ?                                                          
   IUNSCR =        1    unscreen: 0-lin 1-nonlin 2-no                                               
   RPACOR =    2.170    partial core radius                                                         
   POMASS =   72.610; ZVAL   =    4.000    mass and valenz                                          
   RCORE  =    2.300    outmost cutoff radius                                                       
   RWIGS  =    2.300; RWIGS  =    1.217    wigner-seitz radius (au A)                               
   ENMAX  =  173.807; ENMIN  =  130.355 eV                                                          
   ICORE  =        3    local potential                                                             
   LCOR   =        T    correct aug charges                                                         
   LPAW   =        T    paw PP                                                                      
   EAUG   =  385.843                                                                                
   DEXC   =    0.000                                                                                
   RMAX   =    2.342    core radius for proj-oper                                                   
   RAUG   =    1.300    factor for augmentation sphere                                              
   RDEP   =    2.318    radius for radial grids                                                     
   RDEPT  =    2.103    core radius for aug-charge                                                  
                                                                                                    
   Atomic configuration                                                                             
   10 entries                                                                                       
     n  l   j            E        occ.                                                              
     1  0  0.50    -10959.8463   2.0000                                                             
     2  0  0.50     -1371.6056   2.0000                                                             
     2  1  1.50     -1198.4791   6.0000                                                             
     3  0  0.50      -168.4733   2.0000                                                             
     3  1  1.50      -115.6019   6.0000                                                             
     3  2  2.50       -29.3106  10.0000                                                             
     4  0  0.50       -11.7309   2.0000                                                             
     4  1  0.50        -3.8952   2.0000                                                             
     4  2  1.50        -4.0817   0.0000                                                             
     4  3  2.50        -4.0817   0.0000                                                             
   Description                                                                                      
     l       E           TYP  RCUT    TYP  RCUT                                                     
     0    -11.7309493     23  2.300                                                                 
     0     -7.4578696     23  2.300                                                                 
     1     -3.8952261     23  2.300                                                                 
     1      6.1178114     23  2.300                                                                 
     2     -4.0817478     23  2.300                                                                 
     3     -1.3605826      7  2.300                                                                 
  local pseudopotential read in
  partial core-charges read in
  partial kinetic energy density read in
  atomic valenz-charges read in
  non local Contribution for L=            0  read in
    real space projection operators read in
  non local Contribution for L=            0  read in
    real space projection operators read in
  non local Contribution for L=            1  read in
    real space projection operators read in
  non local Contribution for L=            1  read in
    real space projection operators read in
  non local Contribution for L=            2  read in
    real space projection operators read in
    PAW grid and wavefunctions read in
 
   number of l-projection  operators is LMAX  =            5
   number of lm-projection operators is LMMAX =           13
 
 POTCAR:    PAW_PBE Se 06Sep2000                  
   VRHFIN =Se: s2p4                                                                                 
   LEXCH  = PE                                                                                      
   EATOM  =   257.1286 eV,   18.8984 Ry                                                             
                                                                                                    
   TITEL  = PAW_PBE Se 06Sep2000                                                                    
   LULTRA =        F    use ultrasoft PP ?                                                          
   IUNSCR =        1    unscreen: 0-lin 1-nonlin 2-no                                               
   RPACOR =    1.900    partial core radius                                                         
   POMASS =   78.960; ZVAL   =    6.000    mass and valenz                                          
   RCORE  =    2.100    outmost cutoff radius                                                       
   RWIGS  =    2.200; RWIGS  =    1.164    wigner-seitz radius (au A)                               
   ENMAX  =  211.555; ENMIN  =  158.666 eV                                                          
   ICORE  =        3    local potential                                                             
   LCOR   =        T    correct aug charges                                                         
   LPAW   =        T    paw PP                                                                      
   EAUG   =  446.842                                                                                
   DEXC   =    0.000                                                                                
   RMAX   =    2.147    core radius for proj-oper                                                   
   RAUG   =    1.300    factor for augmentation sphere                                              
   RDEP   =    2.177    radius for radial grids                                                     
   RDEPT  =    1.928    core radius for aug-charge                                                  
                                                                                                    
   Atomic configuration                                                                             
   10 entries                                                                                       
     n  l   j            E        occ.                                                              
     1  0  0.50    -12503.4787   2.0000                                                             
     2  0  0.50     -1606.9547   2.0000                                                             
     2  1  1.50     -1413.3140   6.0000                                                             
     3  0  0.50      -213.4885   2.0000                                                             
     3  1  1.50      -152.9538   6.0000                                                             
     3  2  2.50       -53.1221  10.0000                                                             
     4  0  0.50       -17.2865   2.0000                                                             
     4  1  0.50        -6.5110   4.0000                                                             
     4  2  2.50        -6.8029   0.0000                                                             
     4  3  2.50        -6.8029   0.0000                                                             
   Description                                                                                      
     l       E           TYP  RCUT    TYP  RCUT                                                     
     0    -17.2865377     23  2.100                                                                 
     0    -15.3094411     23  2.100                                                                 
     1     -6.5110275     23  2.100                                                                 
     1     -0.0695192     23  2.100                                                                 
     2     -6.8029130     23  2.100                                                                 
     3     -1.3605826      7  2.100                                                                 
  local pseudopotential read in
  partial core-charges read in
  partial kinetic energy density read in
  atomic valenz-charges read in
  non local Contribution for L=            0  read in
    real space projection operators read in
  non local Contribution for L=            0  read in
    real space projection operators read in
  non local Contribution for L=            1  read in
    real space projection operators read in
  non local Contribution for L=            1  read in
    real space projection operators read in
  non local Contribution for L=            2  read in
    real space projection operators read in
    PAW grid and wavefunctions read in
 
   number of l-projection  operators is LMAX  =            5
   number of lm-projection operators is LMMAX =           13
 
  PAW_PBE Ge 05Jan2001                  :
 energy of atom  1       EATOM= -104.9960
 kinetic energy error for atom=    0.0005 (will be added to EATOM!!)
  PAW_PBE Se 06Sep2000                  :
 energy of atom  2       EATOM= -257.1286
 kinetic energy error for atom=    0.0030 (will be added to EATOM!!)
 
 
 POSCAR: Ge Se
  positions in cartesian coordinates
  No initial velocities read in
 exchange correlation table for  LEXCH =        8
   RHO(1)=    0.500       N(1)  =     2000
   RHO(2)=  100.500       N(2)  =     4000
 


--------------------------------------------------------------------------------------------------------


 ion  position               nearest neighbor table
   1  0.250  0.113  0.130-   5 2.56   6 2.69   6 2.69
   2  0.750  0.613  0.370-   6 2.56   5 2.69   5 2.69
   3  0.750  0.887  0.870-   7 2.56   8 2.69   8 2.69
   4  0.250  0.387  0.630-   8 2.56   7 2.69   7 2.69
   5  0.250  0.962  0.351-   1 2.56   2 2.69   2 2.69
   6  0.750  0.462  0.149-   2 2.56   1 2.69   1 2.69
   7  0.750  0.038  0.649-   3 2.56   4 2.69   4 2.69
   8  0.250  0.538  0.851-   4 2.56   3 2.69   3 2.69
 

IMPORTANT INFORMATION: All symmetrisations will be switched off!
NOSYMM: (Re-)initialisation of all symmetry stuff for point group C_1.


----------------------------------------------------------------------------------------

                                     Primitive cell                                     

  volume of cell :     222.5659

  direct lattice vectors                    reciprocal lattice vectors
     4.250000000  0.000000000  0.000000000     0.235294118  0.000000000  0.000000000
     0.000000000  4.700000000  0.000000000     0.000000000  0.212765957  0.000000000
     0.000000000  0.000000000 11.142221000     0.000000000  0.000000000  0.089748713

  length of vectors
     4.250000000  4.700000000 11.142221000     0.235294118  0.212765957  0.089748713

  position of ions in fractional coordinates (direct lattice)
     0.250000000  0.113215985  0.130082781
     0.750000000  0.613215985  0.369917219
     0.750000000  0.886784015  0.869917219
     0.250000000  0.386784015  0.630082781
     0.250000000  0.961973386  0.350906448
     0.750000000  0.461973386  0.149093552
     0.750000000  0.038026614  0.649093552
     0.250000000  0.538026614  0.850906448

  ion indices of the primitive-cell ions
   primitive index   ion index
                 1           1
                 2           2
                 3           3
                 4           4
                 5           5
                 6           6
                 7           7
                 8           8

----------------------------------------------------------------------------------------

 
 
 KPOINTS: KPOINTS created by Atomic Simulation Env

Automatic generation of k-mesh.
 Grid dimensions read from file:
 generate k-points for:    6    6    2

 Generating k-lattice:

  Cartesian coordinates                     Fractional coordinates (reciprocal lattice)
     0.039215686  0.000000000  0.000000000     0.166666667  0.000000000  0.000000000
     0.000000000  0.035460993  0.000000000     0.000000000  0.166666667  0.000000000
     0.000000000  0.000000000  0.044874357     0.000000000  0.000000000  0.500000000

  Length of vectors
     0.039215686  0.035460993  0.044874357

  Shift w.r.t. Gamma in fractional coordinates (k-lattice)
     0.000000000  0.000000000  0.000000000

 
 Subroutine IBZKPT returns following result:
 ===========================================
 
 Found     40 irreducible k-points:
 
 Following reciprocal coordinates:
            Coordinates               Weight
  0.000000  0.000000  0.000000      1.000000
  0.166667  0.000000  0.000000      2.000000
  0.333333  0.000000  0.000000      2.000000
  0.500000  0.000000  0.000000      1.000000
  0.000000  0.166667  0.000000      2.000000
  0.166667  0.166667  0.000000      2.000000
  0.166667 -0.166667  0.000000      2.000000
  0.333333  0.166667  0.000000      2.000000
  0.333333 -0.166667  0.000000      2.000000
  0.500000  0.166667  0.000000      2.000000
  0.000000  0.333333  0.000000      2.000000
  0.166667  0.333333  0.000000      2.000000
  0.166667 -0.333333  0.000000      2.000000
  0.333333  0.333333  0.000000      2.000000
  0.333333 -0.333333  0.000000      2.000000
  0.500000  0.333333  0.000000      2.000000
  0.000000  0.500000  0.000000      1.000000
  0.166667  0.500000  0.000000      2.000000
  0.333333  0.500000  0.000000      2.000000
  0.500000  0.500000  0.000000      1.000000
  0.000000  0.000000  0.500000      1.000000
  0.166667  0.000000  0.500000      2.000000
  0.333333  0.000000  0.500000      2.000000
  0.500000  0.000000  0.500000      1.000000
  0.000000  0.166667  0.500000      2.000000
  0.166667  0.166667  0.500000      2.000000
  0.166667 -0.166667  0.500000      2.000000
  0.333333  0.166667  0.500000      2.000000
  0.333333 -0.166667  0.500000      2.000000
  0.500000  0.166667  0.500000      2.000000
  0.000000  0.333333  0.500000      2.000000
  0.166667  0.333333  0.500000      2.000000
  0.166667 -0.333333  0.500000      2.000000
  0.333333  0.333333  0.500000      2.000000
  0.333333 -0.333333  0.500000      2.000000
  0.500000  0.333333  0.500000      2.000000
  0.000000  0.500000  0.500000      1.000000
  0.166667  0.500000  0.500000      2.000000
  0.333333  0.500000  0.500000      2.000000
  0.500000  0.500000  0.500000      1.000000
 
 Following cartesian coordinates:
            Coordinates               Weight
  0.000000  0.000000  0.000000      1.000000
  0.039216  0.000000  0.000000      2.000000
  0.078431  0.000000  0.000000      2.000000
  0.117647  0.000000  0.000000      1.000000
  0.000000  0.035461  0.000000      2.000000
  0.039216  0.035461  0.000000      2.000000
  0.039216 -0.035461  0.000000      2.000000
  0.078431  0.035461  0.000000      2.000000
  0.078431 -0.035461  0.000000      2.000000
  0.117647  0.035461  0.000000      2.000000
  0.000000  0.070922  0.000000      2.000000
  0.039216  0.070922  0.000000      2.000000
  0.039216 -0.070922  0.000000      2.000000
  0.078431  0.070922  0.000000      2.000000
  0.078431 -0.070922  0.000000      2.000000
  0.117647  0.070922  0.000000      2.000000
  0.000000  0.106383  0.000000      1.000000
  0.039216  0.106383  0.000000      2.000000
  0.078431  0.106383  0.000000      2.000000
  0.117647  0.106383  0.000000      1.000000
  0.000000  0.000000  0.044874      1.000000
  0.039216  0.000000  0.044874      2.000000
  0.078431  0.000000  0.044874      2.000000
  0.117647  0.000000  0.044874      1.000000
  0.000000  0.035461  0.044874      2.000000
  0.039216  0.035461  0.044874      2.000000
  0.039216 -0.035461  0.044874      2.000000
  0.078431  0.035461  0.044874      2.000000
  0.078431 -0.035461  0.044874      2.000000
  0.117647  0.035461  0.044874      2.000000
  0.000000  0.070922  0.044874      2.000000
  0.039216  0.070922  0.044874      2.000000
  0.039216 -0.070922  0.044874      2.000000
  0.078431  0.070922  0.044874      2.000000
  0.078431 -0.070922  0.044874      2.000000
  0.117647  0.070922  0.044874      2.000000
  0.000000  0.106383  0.044874      1.000000
  0.039216  0.106383  0.044874      2.000000
  0.078431  0.106383  0.044874      2.000000
  0.117647  0.106383  0.044874      1.000000
 


--------------------------------------------------------------------------------------------------------




 Dimension of arrays:
   k-points           NKPTS =     40   k-points in BZ     NKDIM =     40   number of bands    NBANDS=     32
   number of dos      NEDOS =    301   number of ions     NIONS =      8
   non local maximal  LDIM  =      5   non local SUM 2l+1 LMDIM =     13
   total plane-waves  NPLWV =  25920
   max r-space proj   IRMAX =      1   max aug-charges    IRDMAX=   6528
   dimension x,y,z NGX =    20 NGY =   24 NGZ =   54
   dimension x,y,z NGXF=    40 NGYF=   48 NGZF=  108
   support grid    NGXF=    40 NGYF=   48 NGZF=  108
   ions per type =               4   4
   NGX,Y,Z   is equivalent  to a cutoff of   7.82,  8.49,  8.06 a.u.
   NGXF,Y,Z  is equivalent  to a cutoff of  15.65, 16.98, 16.11 a.u.

 SYSTEM =  ./                                      
 POSCAR =  Ge Se                                   

 Startparameter for this run:
   NWRITE =      2    write-flag & timer
   PREC   = normal    normal or accurate (medium, high low for compatibility)
   ISTART =      0    job   : 0-new  1-cont  2-samecut
   ICHARG =      2    charge: 1-file 2-atom 10-const
   ISPIN  =      1    spin polarized calculation?
   LNONCOLLINEAR =      F non collinear calculations
   LSORBIT =      F    spin-orbit coupling
   INIWAV =      1    electr: 0-lowe 1-rand  2-diag
   LASPH  =      T    aspherical Exc in radial PAW
 Electronic Relaxation 1
   ENCUT  =  360.0 eV  26.46 Ry    5.14 a.u.   6.58  7.27 17.24*2*pi/ulx,y,z
   ENINI  =  360.0     initial cutoff
   ENAUG  =  446.8 eV  augmentation charge cutoff
   NELM   =    100;   NELMIN=  2; NELMDL= -5     # of ELM steps 
   EDIFF  = 0.1E-05   stopping-criterion for ELM
   LREAL  =      F    real-space projection
   NLSPLINE    = F    spline interpolate recip. space projectors
   LCOMPAT=      F    compatible to vasp.4.4
   GGA_COMPAT  = T    GGA compatible to vasp.4.4-vasp.4.6
   LMAXPAW     = -100 max onsite density
   LMAXMIX     =    4 max onsite mixed and CHGCAR
   VOSKOWN=      0    Vosko Wilk Nusair interpolation
   ROPT   =    0.00000   0.00000
 Ionic relaxation
   EDIFFG = 0.1E-04   stopping-criterion for IOM
   NSW    =      0    number of steps for IOM
   NBLOCK =      1;   KBLOCK =      1    inner block; outer block 
   IBRION =     -1    ionic relax: 0-MD 1-quasi-New 2-CG
   NFREE  =      0    steps in history (QN), initial steepest desc. (CG)
   ISIF   =      2    stress and relaxation
   IWAVPR =     10    prediction:  0-non 1-charg 2-wave 3-comb
   ISYM   =      0    0-nonsym 1-usesym 2-fastsym
   LCORR  =      T    Harris-Foulkes like correction to forces

   POTIM  = 0.5000    time-step for ionic-motion
   TEIN   =    0.0    initial temperature
   TEBEG  =    0.0;   TEEND  =   0.0 temperature during run
   SMASS  =  -3.00    Nose mass-parameter (am)
   estimated Nose-frequenzy (Omega)   =  0.10E-29 period in steps = 0.13E+47 mass=  -0.413E-27a.u.
   SCALEE = 1.0000    scale energy and forces
   NPACO  =    256;   APACO  = 10.0  distance and # of slots for P.C.
   PSTRESS=    0.0 pullay stress

  Mass of Ions in am
   POMASS =  72.61 78.96
  Ionic Valenz
   ZVAL   =   4.00  6.00
  Atomic Wigner-Seitz radii
   RWIGS  =  -1.00 -1.00
  virtual crystal weights 
   VCA    =   1.00  1.00
   NELECT =      40.0000    total number of electrons
   NUPDOWN=      -1.0000    fix difference up-down

 DOS related values:
   EMIN   =  10.00;   EMAX   =-10.00  energy-range for DOS
   EFERMI =   0.00;   METHOD = LEGACY      
   ISMEAR =     0;   SIGMA  =   0.05  broadening in eV -4-tet -1-fermi 0-gaus

 Electronic relaxation 2 (details)
   IALGO  =     38    algorithm
   LDIAG  =      T    sub-space diagonalisation (order eigenvalues)
   LSUBROT=      F    optimize rotation matrix (better conditioning)
   TURBO    =      0    0=normal 1=particle mesh
   IRESTART =      0    0=no restart 2=restart with 2 vectors
   NREBOOT  =      0    no. of reboots
   NMIN     =      0    reboot dimension
   EREF     =   0.00    reference energy to select bands
   IMIX   =      4    mixing-type and parameters
     AMIX     =   0.40;   BMIX     =  1.00
     AMIX_MAG =   1.60;   BMIX_MAG =  1.00
     AMIN     =   0.10
     WC   =   100.;   INIMIX=   1;  MIXPRE=   1;  MAXMIX= -45

 Intra band minimization:
   WEIMIN = 0.0000     energy-eigenvalue tresh-hold
   EBREAK =  0.78E-08  absolut break condition
   DEPER  =   0.30     relativ break condition  

   TIME   =   0.40     timestep for ELM

  volume/ion in A,a.u.               =      27.82       187.74
  Fermi-wavevector in a.u.,A,eV,Ry     =   0.923865  1.745852 11.612940  0.853527
  Thomas-Fermi vector in A             =   2.049549
 
 Write flags
   LWAVE        =      F    write WAVECAR
   LDOWNSAMPLE  =      F    k-point downsampling of WAVECAR
   LCHARG       =      F    write CHGCAR
   LVTOT        =      F    write LOCPOT, total local potential
   LVHAR        =      F    write LOCPOT, Hartree potential only
   LELF         =      F    write electronic localiz. function (ELF)
   LORBIT       =      0    0 simple, 1 ext, 2 COOP (PROOUT), +10 PAW based schemes


 Dipole corrections
   LMONO  =      F    monopole corrections only (constant potential shift)
   LDIPOL =      F    correct potential (dipole corrections)
   IDIPOL =      0    1-x, 2-y, 3-z, 4-all directions 
   EPSILON=  1.0000000 bulk dielectric constant

 Exchange correlation treatment:
   GGA     =    PE    GGA type
   LEXCH   =     8    internal setting for exchange type
   LIBXC   =     F    Libxc                    
   VOSKOWN =     0    Vosko Wilk Nusair interpolation
   LHFCALC =     F    Hartree Fock is set to
   LHFONE  =     F    Hartree Fock one center treatment
   AEXX    =    0.0000 exact exchange contribution

 Linear response parameters
   LEPSILON=     F    determine dielectric tensor
   LRPA    =     F    only Hartree local field effects (RPA)
   LNABLA  =     F    use nabla operator in PAW spheres
   LVEL    =     F    velocity operator in full k-point grid
   CSHIFT  =0.1000    complex shift for real part using Kramers Kronig
   OMEGAMAX=  -1.0    maximum frequency
   DEG_THRESHOLD= 0.2000000E-02 threshold for treating states as degnerate
   RTIME   =   -0.100 relaxation time in fs
  (WPLASMAI=    0.000 imaginary part of plasma frequency in eV, 0.658/RTIME)
   DFIELD  = 0.0000000 0.0000000 0.0000000 field for delta impulse in time
 
  Optional k-point grid parameters
   LKPOINTS_OPT  =     F    use optional k-point grid
   KPOINTS_OPT_MODE=     1    mode for optional k-point grid
 
 Orbital magnetization related:
   ORBITALMAG=     F  switch on orbital magnetization
   LCHIMAG   =     F  perturbation theory with respect to B field
   DQ        =  0.001000  dq finite difference perturbation B field
   LLRAUG    =     F  two centre corrections for induced B field
   LBONE     =     F  B-component reconstruction in AE one-centre
   LVGVCALC  =     T  calculate vGv susceptibility
   LVGVAPPL  =     F  apply vGv susceptibility instead of pGv for G=0

 Random number generation:
   RANDOM_GENERATOR = DEFAULT
   PCG_SEED         = not used


--------------------------------------------------------------------------------------------------------


 Static calculation
 charge density and potential will be updated during run
 non-spin polarized calculation
 Variant of blocked Davidson
 Davidson routine will perform the subspace rotation
 perform sub-space diagonalisation
    after iterative eigenvector-optimisation
 modified Broyden-mixing scheme, WC =      100.0
 initial mixing is a Kerker type mixing with AMIX =  0.4000 and BMIX =      1.0000
 Hartree-type preconditioning will be used
 using additional bands            12
 reciprocal scheme for non local part
 use partial core corrections
 calculate Harris-corrections to forces 
   (improved forces if not selfconsistent)
 use gradient corrections 
 use of overlap-Matrix (Vanderbilt PP)
 Gauss-broadening in eV      SIGMA  =   0.05


--------------------------------------------------------------------------------------------------------


  energy-cutoff  :      360.00
  volume of cell :      222.57
      direct lattice vectors                 reciprocal lattice vectors
     4.250000000  0.000000000  0.000000000     0.235294118  0.000000000  0.000000000
     0.000000000  4.700000000  0.000000000     0.000000000  0.212765957  0.000000000
     0.000000000  0.000000000 11.142221000     0.000000000  0.000000000  0.089748713

  length of vectors
     4.250000000  4.700000000 11.142221000     0.235294118  0.212765957  0.089748713


 
 k-points in units of 2pi/SCALE and weight: KPOINTS created by Atomic Simulation Env
   0.00000000  0.00000000  0.00000000       0.014
   0.03921569  0.00000000  0.00000000       0.028
   0.07843137  0.00000000  0.00000000       0.028
   0.11764706  0.00000000  0.00000000       0.014
   0.00000000  0.03546099  0.00000000       0.028
   0.03921569  0.03546099  0.00000000       0.028
   0.03921569 -0.03546099  0.00000000       0.028
   0.07843137  0.03546099  0.00000000       0.028
   0.07843137 -0.03546099  0.00000000       0.028
   0.11764706  0.03546099  0.00000000       0.028
   0.00000000  0.07092199  0.00000000       0.028
   0.03921569  0.07092199  0.00000000       0.028
   0.03921569 -0.07092199  0.00000000       0.028
   0.07843137  0.07092199  0.00000000       0.028
   0.07843137 -0.07092199  0.00000000       0.028
   0.11764706  0.07092199  0.00000000       0.028
   0.00000000  0.10638298  0.00000000       0.014
   0.03921569  0.10638298  0.00000000       0.028
   0.07843137  0.10638298  0.00000000       0.028
   0.11764706  0.10638298  0.00000000       0.014
   0.00000000  0.00000000  0.04487436       0.014
   0.03921569  0.00000000  0.04487436       0.028
   0.07843137  0.00000000  0.04487436       0.028
   0.11764706  0.00000000  0.04487436       0.014
   0.00000000  0.03546099  0.04487436       0.028
   0.03921569  0.03546099  0.04487436       0.028
   0.03921569 -0.03546099  0.04487436       0.028
   0.07843137  0.03546099  0.04487436       0.028
   0.07843137 -0.03546099  0.04487436       0.028
   0.11764706  0.03546099  0.04487436       0.028
   0.00000000  0.07092199  0.04487436       0.028
   0.03921569  0.07092199  0.04487436       0.028
   0.03921569 -0.07092199  0.04487436       0.028
   0.07843137  0.07092199  0.04487436       0.028
   0.07843137 -0.07092199  0.04487436       0.028
   0.11764706  0.07092199  0.04487436       0.028
   0.00000000  0.10638298  0.04487436       0.014
   0.03921569  0.10638298  0.04487436       0.028
   0.07843137  0.10638298  0.04487436       0.028
   0.11764706  0.10638298  0.04487436       0.014
 
 k-points in reciprocal lattice and weights: KPOINTS created by Atomic Simulation Env
   0.00000000  0.00000000  0.00000000       0.014
   0.16666667  0.00000000  0.00000000       0.028
   0.33333333  0.00000000  0.00000000       0.028
   0.50000000  0.00000000  0.00000000       0.014
   0.00000000  0.16666667  0.00000000       0.028
   0.16666667  0.16666667  0.00000000       0.028
   0.16666667 -0.16666667  0.00000000       0.028
   0.33333333  0.16666667  0.00000000       0.028
   0.33333333 -0.16666667  0.00000000       0.028
   0.50000000  0.16666667  0.00000000       0.028
   0.00000000  0.33333333  0.00000000       0.028
   0.16666667  0.33333333  0.00000000       0.028
   0.16666667 -0.33333333  0.00000000       0.028
   0.33333333  0.33333333  0.00000000       0.028
   0.33333333 -0.33333333  0.00000000       0.028
   0.50000000  0.33333333  0.00000000       0.028
   0.00000000  0.50000000  0.00000000       0.014
   0.16666667  0.50000000  0.00000000       0.028
   0.33333333  0.50000000  0.00000000       0.028
   0.50000000  0.50000000  0.00000000       0.014
   0.00000000  0.00000000  0.50000000       0.014
   0.16666667  0.00000000  0.50000000       0.028
   0.33333333  0.00000000  0.50000000       0.028
   0.50000000  0.00000000  0.50000000       0.014
   0.00000000  0.16666667  0.50000000       0.028
   0.16666667  0.16666667  0.50000000       0.028
   0.16666667 -0.16666667  0.50000000       0.028
   0.33333333  0.16666667  0.50000000       0.028
   0.33333333 -0.16666667  0.50000000       0.028
   0.50000000  0.16666667  0.50000000       0.028
   0.00000000  0.33333333  0.50000000       0.028
   0.16666667  0.33333333  0.50000000       0.028
   0.16666667 -0.33333333  0.50000000       0.028
   0.33333333  0.33333333  0.50000000       0.028
   0.33333333 -0.33333333  0.50000000       0.028
   0.50000000  0.33333333  0.50000000       0.028
   0.00000000  0.50000000  0.50000000       0.014
   0.16666667  0.50000000  0.50000000       0.028
   0.33333333  0.50000000  0.50000000       0.028
   0.50000000  0.50000000  0.50000000       0.014
 
 position of ions in fractional coordinates (direct lattice) 
   0.25000000  0.11321598  0.13008278
   0.75000000  0.61321598  0.36991722
   0.75000000  0.88678402  0.86991722
   0.25000000  0.38678402  0.63008278
   0.25000000  0.96197339  0.35090645
   0.75000000  0.46197339  0.14909355
   0.75000000  0.03802661  0.64909355
   0.25000000  0.53802661  0.85090645
 
 position of ions in cartesian coordinates  (Angst):
   1.06250000  0.53211513  1.44941109
   3.18750000  2.88211513  4.12169941
   3.18750000  4.16788487  9.69280991
   1.06250000  1.81788487  7.02052159
   1.06250000  4.52127491  3.90987719
   3.18750000  2.17127491  1.66123331
   3.18750000  0.17872509  7.23234381
   1.06250000  2.52872509  9.48098769
 


--------------------------------------------------------------------------------------------------------


 k-point   1 :   0.0000 0.0000 0.0000  plane waves:    3445
 k-point   2 :   0.1667 0.0000 0.0000  plane waves:    3465
 k-point   3 :   0.3333 0.0000 0.0000  plane waves:    3459
 k-point   4 :   0.5000 0.0000 0.0000  plane waves:    3462
 k-point   5 :   0.0000 0.1667 0.0000  plane waves:    3453
 k-point   6 :   0.1667 0.1667 0.0000  plane waves:    3462
 k-point   7 :   0.1667-0.1667 0.0000  plane waves:    3462
 k-point   8 :   0.3333 0.1667 0.0000  plane waves:    3454
 k-point   9 :   0.3333-0.1667 0.0000  plane waves:    3454
 k-point  10 :   0.5000 0.1667 0.0000  plane waves:    3442
 k-point  11 :   0.0000 0.3333 0.0000  plane waves:    3484
 k-point  12 :   0.1667 0.3333 0.0000  plane waves:    3448
 k-point  13 :   0.1667-0.3333 0.0000  plane waves:    3448
 k-point  14 :   0.3333 0.3333 0.0000  plane waves:    3434
 k-point  15 :   0.3333-0.3333 0.0000  plane waves:    3434
 k-point  16 :   0.5000 0.3333 0.0000  plane waves:    3436
 k-point  17 :   0.0000 0.5000 0.0000  plane waves:    3466
 k-point  18 :   0.1667 0.5000 0.0000  plane waves:    3466
 k-point  19 :   0.3333 0.5000 0.0000  plane waves:    3444
 k-point  20 :   0.5000 0.5000 0.0000  plane waves:    3452
 k-point  21 :   0.0000 0.0000 0.5000  plane waves:    3450
 k-point  22 :   0.1667 0.0000 0.5000  plane waves:    3446
 k-point  23 :   0.3333 0.0000 0.5000  plane waves:    3464
 k-point  24 :   0.5000 0.0000 0.5000  plane waves:    3448
 k-point  25 :   0.0000 0.1667 0.5000  plane waves:    3452
 k-point  26 :   0.1667 0.1667 0.5000  plane waves:    3470
 k-point  27 :   0.1667-0.1667 0.5000  plane waves:    3470
 k-point  28 :   0.3333 0.1667 0.5000  plane waves:    3452
 k-point  29 :   0.3333-0.1667 0.5000  plane waves:    3452
 k-point  30 :   0.5000 0.1667 0.5000  plane waves:    3444
 k-point  31 :   0.0000 0.3333 0.5000  plane waves:    3454
 k-point  32 :   0.1667 0.3333 0.5000  plane waves:    3466
 k-point  33 :   0.1667-0.3333 0.5000  plane waves:    3466
 k-point  34 :   0.3333 0.3333 0.5000  plane waves:    3444
 k-point  35 :   0.3333-0.3333 0.5000  plane waves:    3444
 k-point  36 :   0.5000 0.3333 0.5000  plane waves:    3440
 k-point  37 :   0.0000 0.5000 0.5000  plane waves:    3456
 k-point  38 :   0.1667 0.5000 0.5000  plane waves:    3456
 k-point  39 :   0.3333 0.5000 0.5000  plane waves:    3456
 k-point  40 :   0.5000 0.5000 0.5000  plane waves:    3464

 maximum and minimum number of plane-waves per node :       887      840

 maximum number of plane-waves:      3484
 maximum index in each direction: 
   IXMAX=    6   IYMAX=    7   IZMAX=   17
   IXMIN=   -7   IYMIN=   -7   IZMIN=  -17


 parallel 3D FFT for wavefunctions:
    minimum data exchange during FFTs selected (reduces bandwidth)
 parallel 3D FFT for charge:
    minimum data exchange during FFTs selected (reduces bandwidth)


 total amount of memory used by VASP MPI-rank0    39546. kBytes
=======================================================================

   base      :      30000. kBytes
   nonl-proj :       7434. kBytes
   fftplans  :        374. kBytes
   grid      :        555. kBytes
   one-center:         16. kBytes
   wavefun   :       1167. kBytes
 
     INWAV:  cpu time      0.0000: real time      0.0001
 Broyden mixing: mesh for mixing (old mesh)
   NGX = 13   NGY = 15   NGZ = 35
  (NGX  = 40   NGY  = 48   NGZ  =108)
  gives a total of   6825 points

 initial charge density was supplied:
 charge density of overlapping atoms calculated
 number of electron      40.0000000 magnetization 
 keeping initial charge density in first step


--------------------------------------------------------------------------------------------------------


 Maximum index for augmentation-charges            71 (set IRDMAX)


--------------------------------------------------------------------------------------------------------


 First call to EWALD:  gamma=   0.292
 Maximum number of real-space cells 4x 3x 2
 Maximum number of reciprocal cells 2x 2x 5

    FEWALD:  cpu time      0.0028: real time      0.0028


--------------------------------------- Ionic step        1  -------------------------------------------




--------------------------------------- Iteration      1(   1)  ---------------------------------------


    POTLOK:  cpu time      0.0063: real time      0.0066
    SETDIJ:  cpu time      0.1441: real time      0.1446
     EDDAV:  cpu time      0.2648: real time      0.2676
       DOS:  cpu time      0.0014: real time      0.0014
    --------------------------------------------
      LOOP:  cpu time      0.4166: real time      0.4203

 eigenvalue-minimisations  :  2560
 total energy-change (2. order) : 0.1334441E+03  (-0.1257185E+04)
 number of electron      40.0000000 magnetization 
 augmentation part       40.0000000 magnetization 

 Free energy of the ion-electron system (eV)
  ---------------------------------------------------
  alpha Z        PSCENC =        76.13227428
  Ewald energy   TEWEN  =     -1340.60969864
  -Hartree energ DENC   =      -157.17705282
  -exchange      EXHF   =         0.00000000
  -V(xc)+E(xc)   XCENC  =       -34.96375927
  PAW double counting   =      1193.78262552    -1080.73714043
  entropy T*S    EENTRO =        -0.00763575
  eigenvalues    EBANDS =        28.53984785
  atomic energy  EATOM  =      1448.48460880
  Solvation  Ediel_sol  =         0.00000000
  ---------------------------------------------------
  free energy    TOTEN  =       133.44406953 eV

  energy without entropy =      133.45170528  energy(sigma->0) =      133.44788740


--------------------------------------------------------------------------------------------------------




--------------------------------------- Iteration      1(   2)  ---------------------------------------


     EDDAV:  cpu time      0.3407: real time      0.3438
       DOS:  cpu time      0.0007: real time      0.0007
    --------------------------------------------
      LOOP:  cpu time      0.3414: real time      0.3444

 eigenvalue-minimisations  :  3712
 total energy-change (2. order) :-0.1577317E+03  (-0.1529374E+03)
 number of electron      40.0000000 magnetization 
 augmentation part       40.0000000 magnetization 

 Free energy of the ion-electron system (eV)
  ---------------------------------------------------
  alpha Z        PSCENC =        76.13227428
  Ewald energy   TEWEN  =     -1340.60969864
  -Hartree energ DENC   =      -157.17705282
  -exchange      EXHF   =         0.00000000
  -V(xc)+E(xc)   XCENC  =       -34.96375927
  PAW double counting   =      1193.78262552    -1080.73714043
  entropy T*S    EENTRO =        -0.00000000
  eigenvalues    EBANDS =      -129.19943924
  atomic energy  EATOM  =      1448.48460880
  Solvation  Ediel_sol  =         0.00000000
  ---------------------------------------------------
  free energy    TOTEN  =       -24.28758180 eV

  energy without entropy =      -24.28758180  energy(sigma->0) =      -24.28758180


--------------------------------------------------------------------------------------------------------




--------------------------------------- Iteration      1(   3)  ---------------------------------------


     EDDAV:  cpu time      0.3154: real time      0.3186
       DOS:  cpu time      0.0005: real time      0.0005
    --------------------------------------------
      LOOP:  cpu time      0.3159: real time      0.3191

 eigenvalue-minimisations  :  3216
 total energy-change (2. order) :-0.9615511E+01  (-0.9590193E+01)
 number of electron      40.0000000 magnetization 
 augmentation part       40.0000000 magnetization 

 Free energy of the ion-electron system (eV)
  ---------------------------------------------------
  alpha Z        PSCENC =        76.13227428
  Ewald energy   TEWEN  =     -1340.60969864
  -Hartree energ DENC   =      -157.17705282
  -exchange      EXHF   =         0.00000000
  -V(xc)+E(xc)   XCENC  =       -34.96375927
  PAW double counting   =      1193.78262552    -1080.73714043
  entropy T*S    EENTRO =        -0.00000000
  eigenvalues    EBANDS =      -138.81495068
  atomic energy  EATOM  =      1448.48460880
  Solvation  Ediel_sol  =         0.00000000
  ---------------------------------------------------
  free energy    TOTEN  =       -33.90309324 eV

  energy without entropy =      -33.90309324  energy(sigma->0) =      -33.90309324


--------------------------------------------------------------------------------------------------------




--------------------------------------- Iteration      1(   4)  ---------------------------------------


     EDDAV:  cpu time      0.2976: real time      0.3010
       DOS:  cpu time      0.0005: real time      0.0005
    --------------------------------------------
      LOOP:  cpu time      0.2982: real time      0.3016

 eigenvalue-minimisations  :  3136
 total energy-change (2. order) :-0.7324925E-01  (-0.7324202E-01)
 number of electron      40.0000000 magnetization 
 augmentation part       40.0000000 magnetization 

 Free energy of the ion-electron system (eV)
  ---------------------------------------------------
  alpha Z        PSCENC =        76.13227428
  Ewald energy   TEWEN  =     -1340.60969864
  -Hartree energ DENC   =      -157.17705282
  -exchange      EXHF   =         0.00000000
  -V(xc)+E(xc)   XCENC  =       -34.96375927
  PAW double counting   =      1193.78262552    -1080.73714043
  entropy T*S    EENTRO =        -0.00000000
  eigenvalues    EBANDS =      -138.88819993
  atomic energy  EATOM  =      1448.48460880
  Solvation  Ediel_sol  =         0.00000000
  ---------------------------------------------------
  free energy    TOTEN  =       -33.97634249 eV

  energy without entropy =      -33.97634249  energy(sigma->0) =      -33.97634249


--------------------------------------------------------------------------------------------------------




--------------------------------------- Iteration      1(   5)  ---------------------------------------


     EDDAV:  cpu time      0.3091: real time      0.3123
       DOS:  cpu time      0.0009: real time      0.0009
    CHARGE:  cpu time      0.0050: real time      0.0050
    MIXING:  cpu time      0.0007: real time      0.0007
    --------------------------------------------
      LOOP:  cpu time      0.3158: real time      0.3190

 eigenvalue-minimisations  :  3232
 total energy-change (2. order) :-0.4799211E-03  (-0.4799178E-03)
 number of electron      39.9999955 magnetization 
 augmentation part       -7.4142584 magnetization 

 Broyden mixing:
  rms(total) = 0.60667E+00    rms(broyden)= 0.60666E+00
  rms(prec ) = 0.72701E+00
  weight for this iteration     100.00

 Free energy of the ion-electron system (eV)
  ---------------------------------------------------
  alpha Z        PSCENC =        76.13227428
  Ewald energy   TEWEN  =     -1340.60969864
  -Hartree energ DENC   =      -157.17705282
  -exchange      EXHF   =         0.00000000
  -V(xc)+E(xc)   XCENC  =       -34.96375927
  PAW double counting   =      1193.78262552    -1080.73714043
  entropy T*S    EENTRO =        -0.00000000
  eigenvalues    EBANDS =      -138.88867985
  atomic energy  EATOM  =      1448.48460880
  Solvation  Ediel_sol  =         0.00000000
  ---------------------------------------------------
  free energy    TOTEN  =       -33.97682241 eV

  energy without entropy =      -33.97682241  energy(sigma->0) =      -33.97682241


--------------------------------------------------------------------------------------------------------




--------------------------------------- Iteration      1(   6)  ---------------------------------------


    POTLOK:  cpu time      0.0058: real time      0.0060
    SETDIJ:  cpu time      0.1380: real time      0.1385
     EDDAV:  cpu time      0.3099: real time      0.3128
       DOS:  cpu time      0.0006: real time      0.0006
    CHARGE:  cpu time      0.0054: real time      0.0055
    MIXING:  cpu time      0.0006: real time      0.0006
    --------------------------------------------
      LOOP:  cpu time      0.4603: real time      0.4639

 eigenvalue-minimisations  :  2880
 total energy-change (2. order) : 0.5619186E+00  (-0.1269220E+00)
 number of electron      39.9999956 magnetization 
 augmentation part       -7.3401123 magnetization 

 Broyden mixing:
  rms(total) = 0.37459E+00    rms(broyden)= 0.37459E+00
  rms(prec ) = 0.40037E+00
  weight for this iteration     100.00

 eigenvalues of (default mixing * dielectric matrix)
  average eigenvalue GAMMA=   1.8683
  1.8683

 Free energy of the ion-electron system (eV)
  ---------------------------------------------------
  alpha Z        PSCENC =        76.13227428
  Ewald energy   TEWEN  =     -1340.60969864
  -Hartree energ DENC   =      -164.47045689
  -exchange      EXHF   =         0.00000000
  -V(xc)+E(xc)   XCENC  =       -34.29261160
  PAW double counting   =      1423.12988382    -1310.36729450
  entropy T*S    EENTRO =        -0.00000000
  eigenvalues    EBANDS =      -131.42160911
  atomic energy  EATOM  =      1448.48460880
  Solvation  Ediel_sol  =         0.00000000
  ---------------------------------------------------
  free energy    TOTEN  =       -33.41490384 eV

  energy without entropy =      -33.41490384  energy(sigma->0) =      -33.41490384


--------------------------------------------------------------------------------------------------------




--------------------------------------- Iteration      1(   7)  ---------------------------------------


    POTLOK:  cpu time      0.0057: real time      0.0059
    SETDIJ:  cpu time      0.1378: real time      0.1388
     EDDAV:  cpu time      0.2937: real time      0.2967
       DOS:  cpu time      0.0006: real time      0.0006
    CHARGE:  cpu time      0.0046: real time      0.0046
    MIXING:  cpu time      0.0005: real time      0.0006
    --------------------------------------------
      LOOP:  cpu time      0.4429: real time      0.4472

 eigenvalue-minimisations  :  3024
 total energy-change (2. order) : 0.8601510E-02  (-0.2702953E-01)
 number of electron      39.9999956 magnetization 
 augmentation part       -7.3342297 magnetization 

 Broyden mixing:
  rms(total) = 0.16001E+00    rms(broyden)= 0.16001E+00
  rms(prec ) = 0.17094E+00
  weight for this iteration     100.00

 eigenvalues of (default mixing * dielectric matrix)
  average eigenvalue GAMMA=   1.7710
  1.1609  2.3812

 Free energy of the ion-electron system (eV)
  ---------------------------------------------------
  alpha Z        PSCENC =        76.13227428
  Ewald energy   TEWEN  =     -1340.60969864
  -Hartree energ DENC   =      -166.62076948
  -exchange      EXHF   =         0.00000000
  -V(xc)+E(xc)   XCENC  =       -33.90820956
  PAW double counting   =      1656.22249417    -1543.60202082
  entropy T*S    EENTRO =        -0.00000000
  eigenvalues    EBANDS =      -129.50498107
  atomic energy  EATOM  =      1448.48460880
  Solvation  Ediel_sol  =         0.00000000
  ---------------------------------------------------
  free energy    TOTEN  =       -33.40630233 eV

  energy without entropy =      -33.40630233  energy(sigma->0) =      -33.40630233


--------------------------------------------------------------------------------------------------------




--------------------------------------- Iteration      1(   8)  ---------------------------------------


    POTLOK:  cpu time      0.0057: real time      0.0059
    SETDIJ:  cpu time      0.1376: real time      0.1381
     EDDAV:  cpu time      0.2873: real time      0.2900
       DOS:  cpu time      0.0006: real time      0.0006
    CHARGE:  cpu time      0.0045: real time      0.0045
    MIXING:  cpu time      0.0005: real time      0.0005
    --------------------------------------------
      LOOP:  cpu time      0.4362: real time      0.4397

 eigenvalue-minimisations  :  2896
 total energy-change (2. order) : 0.7496574E-04  (-0.2746846E-02)
 number of electron      39.9999956 magnetization 
 augmentation part       -7.3454468 magnetization 

 Broyden mixing:
  rms(total) = 0.18142E-01    rms(broyden)= 0.18142E-01
  rms(prec ) = 0.24660E-01
  weight for this iteration     100.00

 eigenvalues of (default mixing * dielectric matrix)
  average eigenvalue GAMMA=   1.6065
  2.4309  1.1943  1.1943

 Free energy of the ion-electron system (eV)
  ---------------------------------------------------
  alpha Z        PSCENC =        76.13227428
  Ewald energy   TEWEN  =     -1340.60969864
  -Hartree energ DENC   =      -166.97191422
  -exchange      EXHF   =         0.00000000
  -V(xc)+E(xc)   XCENC  =       -33.71468369
  PAW double counting   =      1816.58868479    -1704.02495577
  entropy T*S    EENTRO =        -0.00000000
  eigenvalues    EBANDS =      -129.29054291
  atomic energy  EATOM  =      1448.48460880
  Solvation  Ediel_sol  =         0.00000000
  ---------------------------------------------------
  free energy    TOTEN  =       -33.40622737 eV

  energy without entropy =      -33.40622737  energy(sigma->0) =      -33.40622737


--------------------------------------------------------------------------------------------------------




--------------------------------------- Iteration      1(   9)  ---------------------------------------


    POTLOK:  cpu time      0.0055: real time      0.0058
    SETDIJ:  cpu time      0.1375: real time      0.1382
     EDDAV:  cpu time      0.2958: real time      0.2988
       DOS:  cpu time      0.0004: real time      0.0004
    CHARGE:  cpu time      0.0039: real time      0.0040
    MIXING:  cpu time      0.0004: real time      0.0004
    --------------------------------------------
      LOOP:  cpu time      0.4435: real time      0.4475

 eigenvalue-minimisations  :  3136
 total energy-change (2. order) : 0.6164315E-04  (-0.5157137E-03)
 number of electron      39.9999956 magnetization 
 augmentation part       -7.3417785 magnetization 

 Broyden mixing:
  rms(total) = 0.74660E-02    rms(broyden)= 0.74660E-02
  rms(prec ) = 0.89306E-02
  weight for this iteration     100.00

 eigenvalues of (default mixing * dielectric matrix)
  average eigenvalue GAMMA=   1.7407
  2.3560  2.3560  1.1255  1.1255

 Free energy of the ion-electron system (eV)
  ---------------------------------------------------
  alpha Z        PSCENC =        76.13227428
  Ewald energy   TEWEN  =     -1340.60969864
  -Hartree energ DENC   =      -167.46284877
  -exchange      EXHF   =         0.00000000
  -V(xc)+E(xc)   XCENC  =       -33.67344869
  PAW double counting   =      1824.52591932    -1711.97007723
  entropy T*S    EENTRO =        -0.00000000
  eigenvalues    EBANDS =      -128.83289479
  atomic energy  EATOM  =      1448.48460880
  Solvation  Ediel_sol  =         0.00000000
  ---------------------------------------------------
  free energy    TOTEN  =       -33.40616573 eV

  energy without entropy =      -33.40616573  energy(sigma->0) =      -33.40616573


--------------------------------------------------------------------------------------------------------




--------------------------------------- Iteration      1(  10)  ---------------------------------------


    POTLOK:  cpu time      0.0043: real time      0.0044
    SETDIJ:  cpu time      0.1370: real time      0.1373
     EDDAV:  cpu time      0.1851: real time      0.1864
       DOS:  cpu time      0.0003: real time      0.0003
    CHARGE:  cpu time      0.0035: real time      0.0035
    MIXING:  cpu time      0.0003: real time      0.0003
    --------------------------------------------
      LOOP:  cpu time      0.3304: real time      0.3322

 eigenvalue-minimisations  :  2864
 total energy-change (2. order) :-0.1924488E-03  (-0.5863102E-04)
 number of electron      39.9999956 magnetization 
 augmentation part       -7.3414439 magnetization 

 Broyden mixing:
  rms(total) = 0.25015E-02    rms(broyden)= 0.25015E-02
  rms(prec ) = 0.30794E-02
  weight for this iteration     100.00

 eigenvalues of (default mixing * dielectric matrix)
  average eigenvalue GAMMA=   1.7227
  2.7277  2.6001  1.1513  1.1513  0.9829

 Free energy of the ion-electron system (eV)
  ---------------------------------------------------
  alpha Z        PSCENC =        76.13227428
  Ewald energy   TEWEN  =     -1340.60969864
  -Hartree energ DENC   =      -167.54676463
  -exchange      EXHF   =         0.00000000
  -V(xc)+E(xc)   XCENC  =       -33.66539171
  PAW double counting   =      1819.69254067    -1707.13275347
  entropy T*S    EENTRO =        -0.00000000
  eigenvalues    EBANDS =      -128.76117347
  atomic energy  EATOM  =      1448.48460880
  Solvation  Ediel_sol  =         0.00000000
  ---------------------------------------------------
  free energy    TOTEN  =       -33.40635817 eV

  energy without entropy =      -33.40635817  energy(sigma->0) =      -33.40635817


--------------------------------------------------------------------------------------------------------




--------------------------------------- Iteration      1(  11)  ---------------------------------------


    POTLOK:  cpu time      0.0039: real time      0.0040
    SETDIJ:  cpu time      0.1370: real time      0.1373
     EDDAV:  cpu time      0.1939: real time      0.1948
       DOS:  cpu time      0.0003: real time      0.0003
    CHARGE:  cpu time      0.0038: real time      0.0038
    MIXING:  cpu time      0.0004: real time      0.0004
    --------------------------------------------
      LOOP:  cpu time      0.3392: real time      0.3407

 eigenvalue-minimisations  :  2960
 total energy-change (2. order) :-0.3026180E-04  (-0.5144466E-05)
 number of electron      39.9999956 magnetization 
 augmentation part       -7.3417621 magnetization 

 Broyden mixing:
  rms(total) = 0.14420E-02    rms(broyden)= 0.14420E-02
  rms(prec ) = 0.17226E-02
  weight for this iteration     100.00

 eigenvalues of (default mixing * dielectric matrix)
  average eigenvalue GAMMA=   1.7471
  2.7087  2.7087  1.7861  1.1013  1.1013  1.0764

 Free energy of the ion-electron system (eV)
  ---------------------------------------------------
  alpha Z        PSCENC =        76.13227428
  Ewald energy   TEWEN  =     -1340.60969864
  -Hartree energ DENC   =      -167.56810288
  -exchange      EXHF   =         0.00000000
  -V(xc)+E(xc)   XCENC  =       -33.66067838
  PAW double counting   =      1819.91629283    -1707.35605363
  entropy T*S    EENTRO =        -0.00000000
  eigenvalues    EBANDS =      -128.74503081
  atomic energy  EATOM  =      1448.48460880
  Solvation  Ediel_sol  =         0.00000000
  ---------------------------------------------------
  free energy    TOTEN  =       -33.40638844 eV

  energy without entropy =      -33.40638844  energy(sigma->0) =      -33.40638844


--------------------------------------------------------------------------------------------------------




--------------------------------------- Iteration      1(  12)  ---------------------------------------


    POTLOK:  cpu time      0.0040: real time      0.0041
    SETDIJ:  cpu time      0.1171: real time      0.1174
     EDDAV:  cpu time      0.1956: real time      0.1968
       DOS:  cpu time      0.0003: real time      0.0003
    CHARGE:  cpu time      0.0032: real time      0.0033
    MIXING:  cpu time      0.0003: real time      0.0003
    --------------------------------------------
      LOOP:  cpu time      0.3206: real time      0.3222

 eigenvalue-minimisations  :  3104
 total energy-change (2. order) :-0.8946770E-06  (-0.1262461E-05)
 number of electron      39.9999956 magnetization 
 augmentation part       -7.3417337 magnetization 

 Broyden mixing:
  rms(total) = 0.33760E-03    rms(broyden)= 0.33760E-03
  rms(prec ) = 0.37038E-03
  weight for this iteration     100.00

 eigenvalues of (default mixing * dielectric matrix)
  average eigenvalue GAMMA=   1.6647
  2.9036  2.3953  1.9341  0.9935  1.2203  1.1031  1.1031

 Free energy of the ion-electron system (eV)
  ---------------------------------------------------
  alpha Z        PSCENC =        76.13227428
  Ewald energy   TEWEN  =     -1340.60969864
  -Hartree energ DENC   =      -167.58467548
  -exchange      EXHF   =         0.00000000
  -V(xc)+E(xc)   XCENC  =       -33.65868139
  PAW double counting   =      1819.19678370    -1706.63621041
  entropy T*S    EENTRO =        -0.00000000
  eigenvalues    EBANDS =      -128.73079019
  atomic energy  EATOM  =      1448.48460880
  Solvation  Ediel_sol  =         0.00000000
  ---------------------------------------------------
  free energy    TOTEN  =       -33.40638933 eV

  energy without entropy =      -33.40638933  energy(sigma->0) =      -33.40638933


--------------------------------------------------------------------------------------------------------




--------------------------------------- Iteration      1(  13)  ---------------------------------------


    POTLOK:  cpu time      0.0036: real time      0.0037
    SETDIJ:  cpu time      0.1099: real time      0.1102
     EDDAV:  cpu time      0.1617: real time      0.1624
       DOS:  cpu time      0.0003: real time      0.0003
    --------------------------------------------
      LOOP:  cpu time      0.2755: real time      0.2766

 eigenvalue-minimisations  :  2032
 total energy-change (2. order) :-0.8196085E-06  (-0.1442774E-06)
 number of electron      39.9999956 magnetization 
 augmentation part       -7.3417337 magnetization 

 Free energy of the ion-electron system (eV)
  ---------------------------------------------------
  alpha Z        PSCENC =        76.13227428
  Ewald energy   TEWEN  =     -1340.60969864
  -Hartree energ DENC   =      -167.58737615
  -exchange      EXHF   =         0.00000000
  -V(xc)+E(xc)   XCENC  =       -33.65820731
  PAW double counting   =      1819.54039207    -1706.97991793
  entropy T*S    EENTRO =        -0.00000000
  eigenvalues    EBANDS =      -128.72846527
  atomic energy  EATOM  =      1448.48460880
  Solvation  Ediel_sol  =         0.00000000
  ---------------------------------------------------
  free energy    TOTEN  =       -33.40639015 eV

  energy without entropy =      -33.40639015  energy(sigma->0) =      -33.40639015


--------------------------------------------------------------------------------------------------------




 average (electrostatic) potential at core
  the test charge radii are     1.1631  1.0808
  (the norm of the test charge is              1.0000)
       1 -34.6624       2 -34.6624       3 -34.6624       4 -34.6624       5 -55.9145
       6 -55.9145       7 -55.9145       8 -55.9145
 
 
 
 E-fermi :   2.0362     XC(G=0):  -8.6663     alpha+bet : -7.5845

 Fermi energy:         2.0361886113

 k-point     1 :       0.0000    0.0000    0.0000
  band No.  band energies     occupation 
      1     -11.4618      2.00000
      2     -11.2306      2.00000
      3     -10.2969      2.00000
      4      -9.9949      2.00000
      5      -5.8346      2.00000
      6      -5.3686      2.00000
      7      -3.7809      2.00000
      8      -3.6126      2.00000
      9      -2.2512      2.00000
     10      -1.2210      2.00000
     11      -0.8946      2.00000
     12      -0.8825      2.00000
     13      -0.8124      2.00000
     14      -0.4540      2.00000
     15       0.0626      2.00000
     16       0.5559      2.00000
     17       1.0411      2.00000
     18       1.5548      2.00000
     19       1.6848      2.00000
     20       1.7423      2.00000
     21       3.6085      0.00000
     22       3.9009      0.00000
     23       3.9676      0.00000
     24       4.3191      0.00000
     25       4.4853      0.00000
     26       5.0100      0.00000
     27       5.3420      0.00000
     28       5.5265      0.00000
     29       6.5939      0.00000
     30       6.7347      0.00000
     31       7.3877      0.00000
     32       7.5903      0.00000

 k-point     2 :       0.1667    0.0000    0.0000
  band No.  band energies     occupation 
      1     -11.3242      2.00000
      2     -11.1063      2.00000
      3     -10.2529      2.00000
      4      -9.9996      2.00000
      5      -5.9711      2.00000
      6      -5.5411      2.00000
      7      -4.1523      2.00000
      8      -4.0997      2.00000
      9      -2.0896      2.00000
     10      -1.2877      2.00000
     11      -1.0291      2.00000
     12      -0.7622      2.00000
     13      -0.6100      2.00000
     14      -0.3181      2.00000
     15       0.2656      2.00000
     16       0.3040      2.00000
     17       1.0772      2.00000
     18       1.5019      2.00000
     19       1.6214      2.00000
     20       1.7003      2.00000
     21       3.7627      0.00000
     22       4.1326      0.00000
     23       4.3240      0.00000
     24       4.5250      0.00000
     25       4.6259      0.00000
     26       4.8143      0.00000
     27       4.9876      0.00000
     28       5.4230      0.00000
     29       5.8683      0.00000
     30       6.5893      0.00000
     31       6.7835      0.00000
     32       7.4175      0.00000

 k-point     3 :       0.3333    0.0000    0.0000
  band No.  band energies     occupation 
      1     -10.9493      2.00000
      2     -10.7795      2.00000
      3     -10.2225      2.00000
      4     -10.1132      2.00000
      5      -6.1674      2.00000
      6      -5.7608      2.00000
      7      -5.1700      2.00000
      8      -4.8516      2.00000
      9      -1.6477      2.00000
     10      -1.1793      2.00000
     11      -0.9470      2.00000
     12      -0.5062      2.00000
     13      -0.1336      2.00000
     14      -0.1315      2.00000
     15       0.1550      2.00000
     16       0.5381      2.00000
     17       0.9130      2.00000
     18       1.1280      2.00000
     19       1.2861      2.00000
     20       1.3690      2.00000
     21       3.3647      0.00000
     22       3.7665      0.00000
     23       4.0655      0.00000
     24       4.4521      0.00000
     25       4.5625      0.00000
     26       4.8203      0.00000
     27       4.9298      0.00000
     28       5.4606      0.00000
     29       5.9311      0.00000
     30       6.0706      0.00000
     31       6.4236      0.00000
     32       7.0884      0.00000

 k-point     4 :       0.5000    0.0000    0.0000
  band No.  band energies     occupation 
      1     -10.4695      2.00000
      2     -10.4695      2.00000
      3     -10.4076      2.00000
      4     -10.4076      2.00000
      5      -5.9515      2.00000
      6      -5.9515      2.00000
      7      -5.5391      2.00000
      8      -5.5391      2.00000
      9      -1.1636      2.00000
     10      -1.1636      2.00000
     11      -0.5650      2.00000
     12      -0.5650      2.00000
     13      -0.0220      2.00000
     14      -0.0220      2.00000
     15       0.4230      2.00000
     16       0.4230      2.00000
     17       0.8097      2.00000
     18       0.8097      2.00000
     19       1.0400      2.00000
     20       1.0400      2.00000
     21       3.3772      0.00000
     22       3.3772      0.00000
     23       4.0415      0.00000
     24       4.0415      0.00000
     25       4.6228      0.00000
     26       4.6228      0.00000
     27       4.9091      0.00000
     28       4.9091      0.00000
     29       5.9984      0.00000
     30       5.9984      0.00000
     31       6.5197      0.00000
     32       6.5197      0.00000

 k-point     5 :       0.0000    0.1667    0.0000
  band No.  band energies     occupation 
      1     -11.3699      2.00000
      2     -11.1457      2.00000
      3     -10.3396      2.00000
      4     -10.0668      2.00000
      5      -5.9219      2.00000
      6      -5.3361      2.00000
      7      -4.2280      2.00000
      8      -3.8527      2.00000
      9      -2.0585      2.00000
     10      -1.0977      2.00000
     11      -0.7849      2.00000
     12      -0.6833      2.00000
     13      -0.4869      2.00000
     14      -0.2433      2.00000
     15       0.0674      2.00000
     16       0.4948      2.00000
     17       1.1460      2.00000
     18       1.1917      2.00000
     19       1.6665      2.00000
     20       1.7880      2.00000
     21       3.4664      0.00000
     22       3.6922      0.00000
     23       3.9727      0.00000
     24       4.0685      0.00000
     25       4.4940      0.00000
     26       4.6942      0.00000
     27       5.3114      0.00000
     28       5.7022      0.00000
     29       6.0527      0.00000
     30       6.7553      0.00000
     31       6.9253      0.00000
     32       7.3154      0.00000

 k-point     6 :       0.1667    0.1667    0.0000
  band No.  band energies     occupation 
      1     -11.2377      2.00000
      2     -11.0272      2.00000
      3     -10.2919      2.00000
      4     -10.0605      2.00000
      5      -6.0009      2.00000
      6      -5.4713      2.00000
      7      -4.4385      2.00000
      8      -4.2456      2.00000
      9      -1.9351      2.00000
     10      -1.5878      2.00000
     11      -1.2668      2.00000
     12      -0.6898      2.00000
     13      -0.0635      2.00000
     14      -0.0287      2.00000
     15       0.1042      2.00000
     16       0.2485      2.00000
     17       1.1540      2.00000
     18       1.2229      2.00000
     19       1.5778      2.00000
     20       1.6861      2.00000
     21       3.7727      0.00000
     22       3.8443      0.00000
     23       4.1577      0.00000
     24       4.2181      0.00000
     25       4.7184      0.00000
     26       4.7530      0.00000
     27       5.3659      0.00000
     28       5.5912      0.00000
     29       6.0078      0.00000
     30       6.5152      0.00000
     31       6.5256      0.00000
     32       7.3242      0.00000

 k-point     7 :       0.1667   -0.1667    0.0000
  band No.  band energies     occupation 
      1     -11.2377      2.00000
      2     -11.0272      2.00000
      3     -10.2919      2.00000
      4     -10.0605      2.00000
      5      -6.0009      2.00000
      6      -5.4713      2.00000
      7      -4.4385      2.00000
      8      -4.2456      2.00000
      9      -1.9351      2.00000
     10      -1.5878      2.00000
     11      -1.2668      2.00000
     12      -0.6898      2.00000
     13      -0.0635      2.00000
     14      -0.0287      2.00000
     15       0.1042      2.00000
     16       0.2485      2.00000
     17       1.1540      2.00000
     18       1.2229      2.00000
     19       1.5778      2.00000
     20       1.6861      2.00000
     21       3.7727      0.00000
     22       3.8443      0.00000
     23       4.1577      0.00000
     24       4.2181      0.00000
     25       4.7184      0.00000
     26       4.7530      0.00000
     27       5.3659      0.00000
     28       5.5912      0.00000
     29       6.0078      0.00000
     30       6.5152      0.00000
     31       6.5256      0.00000
     32       7.3242      0.00000

 k-point     8 :       0.3333    0.1667    0.0000
  band No.  band energies     occupation 
      1     -10.8815      2.00000
      2     -10.7204      2.00000
      3     -10.2428      2.00000
      4     -10.1366      2.00000
      5      -6.1097      2.00000
      6      -5.6841      2.00000
      7      -5.1751      2.00000
      8      -4.9483      2.00000
      9      -1.6864      2.00000
     10      -1.5685      2.00000
     11      -1.3679      2.00000
     12      -0.7700      2.00000
     13      -0.1920      2.00000
     14       0.0059      2.00000
     15       0.0752      2.00000
     16       0.3168      2.00000
     17       0.6356      2.00000
     18       1.1886      2.00000
     19       1.3390      2.00000
     20       1.3630      2.00000
     21       3.3998      0.00000
     22       4.0098      0.00000
     23       4.1045      0.00000
     24       4.5179      0.00000
     25       5.1421      0.00000
     26       5.2339      0.00000
     27       5.2792      0.00000
     28       5.9393      0.00000
     29       6.0406      0.00000
     30       6.2996      0.00000
     31       6.7782      0.00000
     32       6.9224      0.00000

 k-point     9 :       0.3333   -0.1667    0.0000
  band No.  band energies     occupation 
      1     -10.8815      2.00000
      2     -10.7204      2.00000
      3     -10.2428      2.00000
      4     -10.1366      2.00000
      5      -6.1097      2.00000
      6      -5.6841      2.00000
      7      -5.1751      2.00000
      8      -4.9483      2.00000
      9      -1.6864      2.00000
     10      -1.5685      2.00000
     11      -1.3679      2.00000
     12      -0.7700      2.00000
     13      -0.1920      2.00000
     14       0.0059      2.00000
     15       0.0752      2.00000
     16       0.3168      2.00000
     17       0.6356      2.00000
     18       1.1886      2.00000
     19       1.3390      2.00000
     20       1.3630      2.00000
     21       3.3998      0.00000
     22       4.0098      0.00000
     23       4.1045      0.00000
     24       4.5179      0.00000
     25       5.1421      0.00000
     26       5.2339      0.00000
     27       5.2792      0.00000
     28       5.9393      0.00000
     29       6.0406      0.00000
     30       6.2996      0.00000
     31       6.7782      0.00000
     32       6.9224      0.00000

 k-point    10 :       0.5000    0.1667    0.0000
  band No.  band energies     occupation 
      1     -10.4406      2.00000
      2     -10.4406      2.00000
      3     -10.3864      2.00000
      4     -10.3864      2.00000
      5      -5.8837      2.00000
      6      -5.8837      2.00000
      7      -5.5303      2.00000
      8      -5.5303      2.00000
      9      -1.3665      2.00000
     10      -1.3665      2.00000
     11      -0.9122      2.00000
     12      -0.9122      2.00000
     13      -0.4647      2.00000
     14      -0.4647      2.00000
     15       0.0238      2.00000
     16       0.0238      2.00000
     17       0.8400      2.00000
     18       0.8400      2.00000
     19       1.3633      2.00000
     20       1.3633      2.00000
     21       3.3851      0.00000
     22       3.3851      0.00000
     23       4.4688      0.00000
     24       4.4688      0.00000
     25       5.3189      0.00000
     26       5.3189      0.00000
     27       5.6556      0.00000
     28       5.6556      0.00000
     29       6.3040      0.00000
     30       6.3040      0.00000
     31       6.3254      0.00000
     32       6.3254      0.00000

 k-point    11 :       0.0000    0.3333    0.0000
  band No.  band energies     occupation 
      1     -11.1184      2.00000
      2     -10.9124      2.00000
      3     -10.4968      2.00000
      4     -10.2810      2.00000
      5      -5.9481      2.00000
      6      -5.2170      2.00000
      7      -5.0147      2.00000
      8      -4.3892      2.00000
      9      -1.5783      2.00000
     10      -0.7570      2.00000
     11      -0.4882      2.00000
     12      -0.4508      2.00000
     13      -0.0038      2.00000
     14       0.1884      2.00000
     15       0.2081      2.00000
     16       0.2665      2.00000
     17       0.6956      2.00000
     18       1.2571      2.00000
     19       1.3966      2.00000
     20       1.7752      2.00000
     21       2.8605      0.00000
     22       3.5442      0.00000
     23       3.5770      0.00000
     24       4.2297      0.00000
     25       4.3087      0.00000
     26       4.4406      0.00000
     27       5.0732      0.00000
     28       5.1059      0.00000
     29       6.0055      0.00000
     30       6.0310      0.00000
     31       6.5385      0.00000
     32       7.4959      0.00000

 k-point    12 :       0.1667    0.3333    0.0000
  band No.  band energies     occupation 
      1     -11.0026      2.00000
      2     -10.8115      2.00000
      3     -10.4342      2.00000
      4     -10.2450      2.00000
      5      -5.9484      2.00000
      6      -5.2902      2.00000
      7      -5.0657      2.00000
      8      -4.5889      2.00000
      9      -1.6789      2.00000
     10      -1.5152      2.00000
     11      -1.2984      2.00000
     12      -0.8122      2.00000
     13      -0.4847      2.00000
     14      -0.0073      2.00000
     15       0.3093      2.00000
     16       0.6313      2.00000
     17       1.0748      2.00000
     18       1.1517      2.00000
     19       1.4384      2.00000
     20       1.6452      2.00000
     21       3.4345      0.00000
     22       3.8724      0.00000
     23       3.8725      0.00000
     24       3.9338      0.00000
     25       4.6930      0.00000
     26       5.1511      0.00000
     27       5.2814      0.00000
     28       5.7929      0.00000
     29       6.0793      0.00000
     30       6.4285      0.00000
     31       6.4877      0.00000
     32       7.2594      0.00000

 k-point    13 :       0.1667   -0.3333    0.0000
  band No.  band energies     occupation 
      1     -11.0026      2.00000
      2     -10.8115      2.00000
      3     -10.4342      2.00000
      4     -10.2450      2.00000
      5      -5.9484      2.00000
      6      -5.2902      2.00000
      7      -5.0657      2.00000
      8      -4.5889      2.00000
      9      -1.6789      2.00000
     10      -1.5152      2.00000
     11      -1.2984      2.00000
     12      -0.8122      2.00000
     13      -0.4847      2.00000
     14      -0.0073      2.00000
     15       0.3093      2.00000
     16       0.6313      2.00000
     17       1.0748      2.00000
     18       1.1517      2.00000
     19       1.4384      2.00000
     20       1.6452      2.00000
     21       3.4345      0.00000
     22       3.8724      0.00000
     23       3.8725      0.00000
     24       3.9338      0.00000
     25       4.6930      0.00000
     26       5.1511      0.00000
     27       5.2814      0.00000
     28       5.7929      0.00000
     29       6.0793      0.00000
     30       6.4285      0.00000
     31       6.4877      0.00000
     32       7.2594      0.00000

 k-point    14 :       0.3333    0.3333    0.0000
  band No.  band energies     occupation 
      1     -10.7039      2.00000
      2     -10.5659      2.00000
      3     -10.3235      2.00000
      4     -10.2212      2.00000
      5      -5.9359      2.00000
      6      -5.4917      2.00000
      7      -5.3123      2.00000
      8      -5.1302      2.00000
      9      -2.1315      2.00000
     10      -1.6817      2.00000
     11      -1.5559      2.00000
     12      -1.2646      2.00000
     13      -0.7837      2.00000
     14      -0.3421      2.00000
     15      -0.3405      2.00000
     16       0.3107      2.00000
     17       0.3860      2.00000
     18       1.0748      2.00000
     19       1.3647      2.00000
     20       1.4101      2.00000
     21       3.4476      0.00000
     22       4.5397      0.00000
     23       5.0140      0.00000
     24       5.4065      0.00000
     25       5.5347      0.00000
     26       5.6730      0.00000
     27       5.8527      0.00000
     28       6.1628      0.00000
     29       6.3923      0.00000
     30       6.8238      0.00000
     31       6.8595      0.00000
     32       7.3646      0.00000

 k-point    15 :       0.3333   -0.3333    0.0000
  band No.  band energies     occupation 
      1     -10.7039      2.00000
      2     -10.5659      2.00000
      3     -10.3235      2.00000
      4     -10.2212      2.00000
      5      -5.9359      2.00000
      6      -5.4917      2.00000
      7      -5.3123      2.00000
      8      -5.1302      2.00000
      9      -2.1315      2.00000
     10      -1.6817      2.00000
     11      -1.5559      2.00000
     12      -1.2646      2.00000
     13      -0.7837      2.00000
     14      -0.3421      2.00000
     15      -0.3405      2.00000
     16       0.3107      2.00000
     17       0.3860      2.00000
     18       1.0748      2.00000
     19       1.3647      2.00000
     20       1.4101      2.00000
     21       3.4476      0.00000
     22       4.5397      0.00000
     23       5.0140      0.00000
     24       5.4065      0.00000
     25       5.5347      0.00000
     26       5.6730      0.00000
     27       5.8527      0.00000
     28       6.1628      0.00000
     29       6.3923      0.00000
     30       6.8238      0.00000
     31       6.8595      0.00000
     32       7.3646      0.00000

 k-point    16 :       0.5000    0.3333    0.0000
  band No.  band energies     occupation 
      1     -10.3782      2.00000
      2     -10.3782      2.00000
      3     -10.3458      2.00000
      4     -10.3458      2.00000
      5      -5.7284      2.00000
      6      -5.7284      2.00000
      7      -5.5286      2.00000
      8      -5.5286      2.00000
      9      -1.7948      2.00000
     10      -1.7948      2.00000
     11      -1.4803      2.00000
     12      -1.4803      2.00000
     13      -0.8703      2.00000
     14      -0.8703      2.00000
     15      -0.4018      2.00000
     16      -0.4018      2.00000
     17       0.6473      2.00000
     18       0.6473      2.00000
     19       1.2410      2.00000
     20       1.2410      2.00000
     21       4.2485      0.00000
     22       4.2485      0.00000
     23       5.4592      0.00000
     24       5.4592      0.00000
     25       5.8741      0.00000
     26       5.8741      0.00000
     27       6.3176      0.00000
     28       6.3176      0.00000
     29       6.7025      0.00000
     30       6.7025      0.00000
     31       7.4028      0.00000
     32       7.4028      0.00000

 k-point    17 :       0.0000    0.5000    0.0000
  band No.  band energies     occupation 
      1     -10.7854      2.00000
      2     -10.7854      2.00000
      3     -10.5936      2.00000
      4     -10.5936      2.00000
      5      -5.6511      2.00000
      6      -5.6511      2.00000
      7      -4.9018      2.00000
      8      -4.9018      2.00000
      9      -0.9174      2.00000
     10      -0.9174      2.00000
     11      -0.3110      2.00000
     12      -0.3110      2.00000
     13      -0.1021      2.00000
     14      -0.1021      2.00000
     15       0.6868      2.00000
     16       0.6868      2.00000
     17       0.8372      2.00000
     18       0.8372      2.00000
     19       1.3035      2.00000
     20       1.3035      2.00000
     21       3.0150      0.00000
     22       3.0150      0.00000
     23       3.8709      0.00000
     24       3.8709      0.00000
     25       4.4286      0.00000
     26       4.4286      0.00000
     27       5.0265      0.00000
     28       5.0265      0.00000
     29       5.3121      0.00000
     30       5.3121      0.00000
     31       7.3341      0.00000
     32       7.3341      0.00000

 k-point    18 :       0.1667    0.5000    0.0000
  band No.  band energies     occupation 
      1     -10.6960      2.00000
      2     -10.6960      2.00000
      3     -10.5219      2.00000
      4     -10.5219      2.00000
      5      -5.6365      2.00000
      6      -5.6365      2.00000
      7      -4.9855      2.00000
      8      -4.9855      2.00000
      9      -1.4054      2.00000
     10      -1.4054      2.00000
     11      -0.9755      2.00000
     12      -0.9755      2.00000
     13      -0.7027      2.00000
     14      -0.7027      2.00000
     15       0.5956      2.00000
     16       0.5956      2.00000
     17       1.1789      2.00000
     18       1.1789      2.00000
     19       1.5656      2.00000
     20       1.5656      2.00000
     21       3.4369      0.00000
     22       3.4369      0.00000
     23       3.8323      0.00000
     24       3.8323      0.00000
     25       5.1533      0.00000
     26       5.1533      0.00000
     27       5.5275      0.00000
     28       5.5275      0.00000
     29       5.9794      0.00000
     30       5.9794      0.00000
     31       7.0645      0.00000
     32       7.0645      0.00000

[...]
     32       6.7806      0.00000

 k-point    32 :       0.1667    0.3333    0.5000
  band No.  band energies     occupation 
      1     -10.9226      2.00000
      2     -10.9226      2.00000
      3     -10.3245      2.00000
      4     -10.3245      2.00000
      5      -5.6918      2.00000
      6      -5.6918      2.00000
      7      -4.7794      2.00000
      8      -4.7794      2.00000
      9      -1.5539      2.00000
     10      -1.5539      2.00000
     11      -0.9490      2.00000
     12      -0.9490      2.00000
     13      -0.3526      2.00000
     14      -0.3526      2.00000
     15       0.4372      2.00000
     16       0.4372      2.00000
     17       1.0746      2.00000
     18       1.0746      2.00000
     19       1.4528      2.00000
     20       1.4528      2.00000
     21       3.7665      0.00000
     22       3.7665      0.00000
     23       4.0225      0.00000
     24       4.0225      0.00000
     25       5.0802      0.00000
     26       5.0802      0.00000
     27       5.4152      0.00000
     28       5.4152      0.00000
     29       6.1614      0.00000
     30       6.1614      0.00000
     31       6.6328      0.00000
     32       6.6328      0.00000

 k-point    33 :       0.1667   -0.3333    0.5000
  band No.  band energies     occupation 
      1     -10.9226      2.00000
      2     -10.9226      2.00000
      3     -10.3245      2.00000
      4     -10.3245      2.00000
      5      -5.6918      2.00000
      6      -5.6918      2.00000
      7      -4.7794      2.00000
      8      -4.7794      2.00000
      9      -1.5539      2.00000
     10      -1.5539      2.00000
     11      -0.9490      2.00000
     12      -0.9490      2.00000
     13      -0.3526      2.00000
     14      -0.3526      2.00000
     15       0.4372      2.00000
     16       0.4372      2.00000
     17       1.0746      2.00000
     18       1.0746      2.00000
     19       1.4528      2.00000
     20       1.4528      2.00000
     21       3.7665      0.00000
     22       3.7665      0.00000
     23       4.0225      0.00000
     24       4.0225      0.00000
     25       5.0802      0.00000
     26       5.0802      0.00000
     27       5.4152      0.00000
     28       5.4152      0.00000
     29       6.1614      0.00000
     30       6.1614      0.00000
     31       6.6328      0.00000
     32       6.6328      0.00000

 k-point    34 :       0.3333    0.3333    0.5000
  band No.  band energies     occupation 
      1     -10.6449      2.00000
      2     -10.6449      2.00000
      3     -10.2625      2.00000
      4     -10.2625      2.00000
      5      -5.7496      2.00000
      6      -5.7496      2.00000
      7      -5.1954      2.00000
      8      -5.1954      2.00000
      9      -1.9402      2.00000
     10      -1.9402      2.00000
     11      -1.2529      2.00000
     12      -1.2529      2.00000
     13      -0.7488      2.00000
     14      -0.7488      2.00000
     15      -0.1134      2.00000
     16      -0.1134      2.00000
     17       0.8194      2.00000
     18       0.8194      2.00000
     19       1.4311      2.00000
     20       1.4311      2.00000
     21       4.3521      0.00000
     22       4.3521      0.00000
     23       5.0416      0.00000
     24       5.0416      0.00000
     25       5.3298      0.00000
     26       5.3298      0.00000
     27       5.9236      0.00000
     28       5.9236      0.00000
     29       6.3513      0.00000
     30       6.3513      0.00000
     31       7.2314      0.00000
     32       7.2314      0.00000

 k-point    35 :       0.3333   -0.3333    0.5000
  band No.  band energies     occupation 
      1     -10.6449      2.00000
      2     -10.6449      2.00000
      3     -10.2625      2.00000
      4     -10.2625      2.00000
      5      -5.7496      2.00000
      6      -5.7496      2.00000
      7      -5.1954      2.00000
      8      -5.1954      2.00000
      9      -1.9402      2.00000
     10      -1.9402      2.00000
     11      -1.2529      2.00000
     12      -1.2529      2.00000
     13      -0.7488      2.00000
     14      -0.7488      2.00000
     15      -0.1134      2.00000
     16      -0.1134      2.00000
     17       0.8194      2.00000
     18       0.8194      2.00000
     19       1.4311      2.00000
     20       1.4311      2.00000
     21       4.3521      0.00000
     22       4.3521      0.00000
     23       5.0416      0.00000
     24       5.0416      0.00000
     25       5.3298      0.00000
     26       5.3298      0.00000
     27       5.9236      0.00000
     28       5.9236      0.00000
     29       6.3513      0.00000
     30       6.3513      0.00000
     31       7.2314      0.00000
     32       7.2314      0.00000

 k-point    36 :       0.5000    0.3333    0.5000
  band No.  band energies     occupation 
      1     -10.3621      2.00000
      2     -10.3621      2.00000
      3     -10.3621      2.00000
      4     -10.3621      2.00000
      5      -5.6320      2.00000
      6      -5.6320      2.00000
      7      -5.6320      2.00000
      8      -5.6320      2.00000
      9      -1.5597      2.00000
     10      -1.5597      2.00000
     11      -1.5597      2.00000
     12      -1.5597      2.00000
     13      -0.8305      2.00000
     14      -0.8305      2.00000
     15      -0.8305      2.00000
     16      -0.8305      2.00000
     17       1.0955      2.00000
     18       1.0955      2.00000
     19       1.0955      2.00000
     20       1.0955      2.00000
     21       4.8561      0.00000
     22       4.8561      0.00000
     23       4.8561      0.00000
     24       4.8561      0.00000
     25       5.7449      0.00000
     26       5.7449      0.00000
     27       5.7449      0.00000
     28       5.7449      0.00000
     29       7.1443      0.00000
     30       7.1443      0.00000
     31       7.1443      0.00000
     32       7.1443      0.00000

 k-point    37 :       0.0000    0.5000    0.5000
  band No.  band energies     occupation 
      1     -10.7812      2.00000
      2     -10.7812      2.00000
      3     -10.5988      2.00000
      4     -10.5988      2.00000
      5      -5.5635      2.00000
      6      -5.5635      2.00000
      7      -5.0312      2.00000
      8      -5.0312      2.00000
      9      -0.3699      2.00000
     10      -0.3699      2.00000
     11      -0.3029      2.00000
     12      -0.3029      2.00000
     13      -0.1120      2.00000
     14      -0.1120      2.00000
     15      -0.0725      2.00000
     16      -0.0725      2.00000
     17       1.1086      2.00000
     18       1.1086      2.00000
     19       1.1278      2.00000
     20       1.1278      2.00000
     21       3.1697      0.00000
     22       3.1697      0.00000
     23       3.6823      0.00000
     24       3.6823      0.00000
     25       4.5013      0.00000
     26       4.5013      0.00000
     27       5.2084      0.00000
     28       5.2084      0.00000
     29       5.7708      0.00000
     30       5.7708      0.00000
     31       6.6169      0.00000
     32       6.6169      0.00000

 k-point    38 :       0.1667    0.5000    0.5000
  band No.  band energies     occupation 
      1     -10.6921      2.00000
      2     -10.6921      2.00000
      3     -10.5265      2.00000
      4     -10.5265      2.00000
      5      -5.5663      2.00000
      6      -5.5663      2.00000
      7      -5.0828      2.00000
      8      -5.0828      2.00000
      9      -1.2795      2.00000
     10      -1.2795      2.00000
     11      -1.1976      2.00000
     12      -1.1976      2.00000
     13      -0.0739      2.00000
     14      -0.0739      2.00000
     15       0.0339      2.00000
     16       0.0339      2.00000
     17       1.2053      2.00000
     18       1.2053      2.00000
     19       1.3962      2.00000
     20       1.3962      2.00000
     21       3.7420      0.00000
     22       3.7420      0.00000
     23       3.8531      0.00000
     24       3.8531      0.00000
     25       5.3268      0.00000
     26       5.3268      0.00000
     27       5.4492      0.00000
     28       5.4492      0.00000
     29       6.0421      0.00000
     30       6.0421      0.00000
     31       6.4572      0.00000
     32       6.4572      0.00000

 k-point    39 :       0.3333    0.5000    0.5000
  band No.  band energies     occupation 
      1     -10.4862      2.00000
      2     -10.4862      2.00000
      3     -10.3795      2.00000
      4     -10.3795      2.00000
      5      -5.6156      2.00000
      6      -5.6156      2.00000
      7      -5.3197      2.00000
      8      -5.3197      2.00000
      9      -1.8095      2.00000
     10      -1.8095      2.00000
     11      -1.7954      2.00000
     12      -1.7954      2.00000
     13      -0.5821      2.00000
     14      -0.5821      2.00000
     15      -0.5335      2.00000
     16      -0.5335      2.00000
     17       1.0163      2.00000
     18       1.0163      2.00000
     19       1.2191      2.00000
     20       1.2191      2.00000
     21       4.8406      0.00000
     22       4.8406      0.00000
     23       5.1010      0.00000
     24       5.1010      0.00000
     25       5.6287      0.00000
     26       5.6287      0.00000
     27       5.6669      0.00000
     28       5.6669      0.00000
     29       6.9399      0.00000
     30       6.9399      0.00000
     31       7.1790      0.00000
     32       7.1790      0.00000

 k-point    40 :       0.5000    0.5000    0.5000
  band No.  band energies     occupation 
      1     -10.3355      2.00000
      2     -10.3355      2.00000
      3     -10.3355      2.00000
      4     -10.3355      2.00000
      5      -5.5903      2.00000
      6      -5.5903      2.00000
      7      -5.5903      2.00000
      8      -5.5903      2.00000
      9      -1.6801      2.00000
     10      -1.6801      2.00000
     11      -1.6801      2.00000
     12      -1.6801      2.00000
     13      -1.1683      2.00000
     14      -1.1683      2.00000
     15      -1.1683      2.00000
     16      -1.1683      2.00000
     17       1.1503      2.00000
     18       1.1503      2.00000
     19       1.1503      2.00000
     20       1.1503      2.00000
     21       4.8975      0.00000
     22       4.8975      0.00000
     23       4.8975      0.00000
     24       4.8975      0.00000
     25       6.2098      0.00000
     26       6.2098      0.00000
     27       6.2098      0.00000
     28       6.2098      0.00000
     29       7.8091      0.00000
     30       7.8091      0.00000
     31       7.8091      0.00000
     32       7.8091      0.00000


--------------------------------------------------------------------------------------------------------


 soft charge-density along one line, spin component            1
         0         1         2         3         4         5         6         7         8         9
 total charge-density along one line
 
 pseudopotential strength for first ion, spin component:            1
 14.858  18.548   0.035   0.051  -0.000   0.063   0.091  -0.000
 18.548  23.169   0.044   0.064  -0.000   0.080   0.116  -0.000
  0.035   0.044   3.281  -0.001  -0.000   5.590  -0.002  -0.000
  0.051   0.064  -0.001   3.275   0.000  -0.002   5.579   0.000
 -0.000  -0.000  -0.000   0.000   3.280  -0.000   0.000   5.589
  0.063   0.080   5.590  -0.002  -0.000   9.582  -0.004  -0.000
  0.091   0.116  -0.002   5.579   0.000  -0.004   9.564   0.000
 -0.000  -0.000  -0.000   0.000   5.589  -0.000   0.000   9.580
 -0.000  -0.000  -0.000  -0.000   0.005  -0.000  -0.000   0.009
 -0.003  -0.003   0.013   0.011  -0.000   0.023   0.020  -0.000
 -0.007  -0.009  -0.002   0.013   0.000  -0.005   0.025   0.000
  0.000   0.000  -0.000  -0.000   0.013  -0.000  -0.000   0.024
 -0.001  -0.001  -0.011   0.000  -0.000  -0.019   0.000  -0.000
 total augmentation occupancy for first ion, spin component:            1
  2.525  -0.556   0.218   0.406  -0.000  -0.029  -0.071  -0.000   0.000  -0.022   0.009   0.000   0.015
 -0.556   0.572  -0.326  -0.530  -0.000   0.046   0.080   0.000  -0.000   0.019  -0.008  -0.000  -0.015
  0.218  -0.326   1.017  -0.020   0.000  -0.153   0.017  -0.000   0.000   0.047  -0.088   0.000   0.021
  0.406  -0.530  -0.020   1.334   0.000   0.017  -0.204  -0.000   0.000  -0.043   0.112   0.000  -0.003
 -0.000  -0.000   0.000   0.000   1.106  -0.000  -0.000  -0.181   0.117   0.000   0.000   0.036  -0.000
 -0.029   0.046  -0.153   0.017  -0.000   0.026  -0.005   0.000  -0.000  -0.007   0.014  -0.000  -0.003
 -0.071   0.080   0.017  -0.204  -0.000  -0.005   0.036   0.000  -0.000   0.007  -0.019  -0.000   0.001
 -0.000   0.000  -0.000  -0.000  -0.181   0.000   0.000   0.033  -0.020   0.000  -0.000  -0.006   0.000
  0.000  -0.000   0.000   0.000   0.117  -0.000  -0.000  -0.020   0.022   0.000   0.000   0.002  -0.000
 -0.022   0.019   0.047  -0.043   0.000  -0.007   0.007   0.000   0.000   0.012  -0.008  -0.000   0.002
  0.009  -0.008  -0.088   0.112   0.000   0.014  -0.019  -0.000   0.000  -0.008   0.027  -0.000  -0.004
  0.000  -0.000   0.000   0.000   0.036  -0.000  -0.000  -0.006   0.002  -0.000  -0.000   0.009  -0.000
  0.015  -0.015   0.021  -0.003  -0.000  -0.003   0.001   0.000  -0.000   0.002  -0.004  -0.000   0.007


------------------------ aborting loop because EDIFF is reached ----------------------------------------


    CHARGE:  cpu time      0.0041: real time      0.0041
    FORLOC:  cpu time      0.0002: real time      0.0002
    FORNL :  cpu time      0.0207: real time      0.0208
    STRESS:  cpu time      0.2035: real time      0.2043
    FORCOR:  cpu time      0.0035: real time      0.0035
    FORHAR:  cpu time      0.0009: real time      0.0009
    MIXING:  cpu time      0.0008: real time      0.0008
    OFIELD:  cpu time      0.0000: real time      0.0000

  FORCE on cell =-STRESS in cart. coord.  units (eV):
  Direction    XX          YY          ZZ          XY          YZ          ZX
  --------------------------------------------------------------------------------------
  Alpha Z    76.13227    76.13227    76.13227
  Ewald    -395.65004  -482.43954  -462.52168    -0.00000     0.00000     0.00000
  Hartree    80.04468    48.79617    38.74955    -0.00000    -0.00000     0.00000
  E(xc)    -139.42701  -139.78189  -140.22412    -0.00000     0.00000    -0.00000
  Local    -234.78435  -124.75527  -137.79662     0.00000     0.00000    -0.00000
  n-local   237.06123   236.19178   241.37456     0.00000     0.00000     0.00000
  augment   -11.25661   -11.91487   -12.32989    -0.00000     0.00000     0.00000
  Kinetic   380.50380   394.96893   395.91994     0.00000    -0.00000    -0.00000
  Fock        0.00000     0.00000     0.00000     0.00000     0.00000     0.00000
  -------------------------------------------------------------------------------------
  Total      -7.37602    -2.80241    -0.69598     0.00000     0.00000    -0.00000
  in kB     -53.09752   -20.17364    -5.01011     0.00003     0.00000    -0.00000
  external pressure =      -26.09 kB  Pullay stress =        0.00 kB


 VOLUME and BASIS-vectors are now :
 -----------------------------------------------------------------------------
  energy-cutoff  :      360.00
  volume of cell :      222.57
      direct lattice vectors                 reciprocal lattice vectors
     4.250000000  0.000000000  0.000000000     0.235294118  0.000000000  0.000000000
     0.000000000  4.700000000  0.000000000     0.000000000  0.212765957  0.000000000
     0.000000000  0.000000000 11.142221000     0.000000000  0.000000000  0.089748713

  length of vectors
     4.250000000  4.700000000 11.142221000     0.235294118  0.212765957  0.089748713


 FORCES acting on ions
    electron-ion (+dipol)            ewald-force                    non-local-force                 convergence-correction
 -----------------------------------------------------------------------------------------------
   -.120E-05 0.118E+02 0.289E+02   0.693E-14 -.144E+02 -.322E+02   0.542E-06 0.259E+01 0.326E+01   0.665E-06 -.784E-04 -.221E-03
   -.106E-05 0.118E+02 -.289E+02   -.129E-15 -.144E+02 0.322E+02   0.457E-06 0.259E+01 -.326E+01   0.596E-06 -.783E-04 0.222E-03
   0.113E-05 -.118E+02 -.289E+02   -.104E-13 0.144E+02 0.322E+02   -.495E-06 -.259E+01 -.326E+01   -.627E-06 0.783E-04 0.221E-03
   0.933E-06 -.118E+02 0.289E+02   0.260E-14 0.144E+02 -.322E+02   -.410E-06 -.259E+01 0.326E+01   -.527E-06 0.785E-04 -.222E-03
   0.346E-05 -.105E+02 -.292E+02   -.461E-14 0.120E+02 0.311E+02   -.172E-05 -.144E+01 -.194E+01   -.172E-05 0.385E-04 0.441E-03
   0.326E-05 -.105E+02 0.292E+02   -.762E-14 0.120E+02 -.311E+02   -.157E-05 -.144E+01 0.194E+01   -.172E-05 0.388E-04 -.440E-03
   -.300E-05 0.105E+02 0.292E+02   -.249E-14 -.120E+02 -.311E+02   0.151E-05 0.144E+01 0.194E+01   0.154E-05 -.390E-04 -.441E-03
   -.334E-05 0.105E+02 -.292E+02   0.146E-13 -.120E+02 0.311E+02   0.167E-05 0.144E+01 -.194E+01   0.173E-05 -.385E-04 0.440E-03
 -----------------------------------------------------------------------------------------------
   0.176E-06 0.125E-06 0.287E-06   -.109E-14 0.355E-14 -.711E-14   -.238E-07 -.965E-07 -.305E-06   -.678E-07 -.133E-06 -.127E-07
 
 
 POSITION                                       TOTAL-FORCE (eV/Angst)
 -----------------------------------------------------------------------------------
      1.06250      0.53212      1.44941        -0.000000      0.004896      0.021123
      3.18750      2.88212      4.12170        -0.000000      0.004896     -0.021123
      3.18750      4.16788      9.69281        -0.000000     -0.004895     -0.021123
      1.06250      1.81788      7.02052        -0.000000     -0.004896      0.021124
      1.06250      4.52127      3.90988         0.000000      0.016940     -0.013292
      3.18750      2.17127      1.66123        -0.000000      0.016940      0.013293
      3.18750      0.17873      7.23234         0.000000     -0.016940      0.013292
      1.06250      2.52873      9.48099         0.000000     -0.016940     -0.013293
 -----------------------------------------------------------------------------------
    total drift:                                0.000000     -0.000000     -0.000000


--------------------------------------------------------------------------------------------------------



  FREE ENERGIE OF THE ION-ELECTRON SYSTEM (eV)
  ---------------------------------------------------
  free  energy   TOTEN  =       -33.40639015 eV

  energy  without entropy=      -33.40639015  energy(sigma->0) =      -33.40639015
 


--------------------------------------------------------------------------------------------------------


    POTLOK:  cpu time      0.1128: real time      0.1131


--------------------------------------------------------------------------------------------------------


     LOOP+:  cpu time      5.1944: real time      5.2350
    4ORBIT:  cpu time      0.0000: real time      0.0000

 total amount of memory used by VASP MPI-rank0    39546. kBytes
=======================================================================

   base      :      30000. kBytes
   nonl-proj :       7434. kBytes
   fftplans  :        374. kBytes
   grid      :        555. kBytes
   one-center:         16. kBytes
   wavefun   :       1167. kBytes
 
  
  
 General timing and accounting informations for this job:
 ========================================================
  
                  Total CPU time used (sec):        6.025
                            User time (sec):        5.738
                          System time (sec):        0.287
                         Elapsed time (sec):        7.536
  
                   Maximum memory used (kb):      191440.
                   Average memory used (kb):          N/A
  
                          Minor page faults:        24482
                          Major page faults:           37
                 Voluntary context switches:         6792
