 vasp.6.4.2 20Jul23 (build Oct 12 2023 10:31:02) complex                         
 executed on              LinuxNV date 2025.05.27  14:50:21
 running   32 mpi-ranks, with    1 threads/rank, on    2 nodes
 distrk:  each k-point on   16 cores,    2 groups
 distr:  one band on NCORE=   1 cores,   16 groups


--------------------------------------------------------------------------------------------------------


 INCAR:
   ENCUT = 520.000000
   SIGMA = 0.050000
   EDIFF = 1.00e-06
   ALGO = N
   GGA = PE
   PREC = Accurate
   SYSTEM = 02_SCF
   ICHARG = 0
   ISMEAR = 0
   ISPIN = 2
   ISTART = 1
   KPAR = 2
   LORBIT = 11
   NBANDS = 220
   NELM = 100
   NELMIN = 5
   LASPH = .TRUE.
   LCHARG = .TRUE.
   LWAVE = .TRUE.
   LREAL = .FALSE.

 POTCAR:    PAW_PBE Ge 05Jan2001                  
 POTCAR:    PAW_PBE Se 06Sep2000                  
 -----------------------------------------------------------------------------
|                                                                             |
|           W    W    AA    RRRRR   N    N  II  N    N   GGGG   !!!           |
|           W    W   A  A   R    R  NN   N  II  NN   N  G    G  !!!           |
|           W    W  A    A  R    R  N N  N  II  N N  N  G       !!!           |
|           W WW W  AAAAAA  RRRRR   N  N N  II  N  N N  G  GGG   !            |
|           WW  WW  A    A  R   R   N   NN  II  N   NN  G    G                |
|           W    W  A    A  R    R  N    N  II  N    N   GGGG   !!!           |
|                                                                             |
|     You use a magnetic or noncollinear calculation, but did not specify     |
|     the initial magnetic moment with the MAGMOM tag. Note that a            |
|     default of 1 will be used for all atoms. This ferromagnetic setup       |
|     may break the symmetry of the crystal, in particular it may rule        |
|     out finding an antiferromagnetic solution. Thence, we recommend         |
|     setting the initial magnetic moment manually or verifying carefully     |
|     that this magnetic setup is desired.                                    |
|                                                                             |
 -----------------------------------------------------------------------------

 POTCAR:    PAW_PBE Ge 05Jan2001                  
   VRHFIN =Ge: s2p2                                                                                 
   LEXCH  = PE                                                                                      
   EATOM  =   104.9960 eV,    7.7170 Ry                                                             
                                                                                                    
   TITEL  = PAW_PBE Ge 05Jan2001                                                                    
   LULTRA =        F    use ultrasoft PP ?                                                          
   IUNSCR =        1    unscreen: 0-lin 1-nonlin 2-no                                               
   RPACOR =    2.170    partial core radius                                                         
   POMASS =   72.610; ZVAL   =    4.000    mass and valenz                                          
   RCORE  =    2.300    outmost cutoff radius                                                       
   RWIGS  =    2.300; RWIGS  =    1.217    wigner-seitz radius (au A)                               
   ENMAX  =  173.807; ENMIN  =  130.355 eV                                                          
   ICORE  =        3    local potential                                                             
   LCOR   =        T    correct aug charges                                                         
   LPAW   =        T    paw PP                                                                      
   EAUG   =  385.843                                                                                
   DEXC   =    0.000                                                                                
   RMAX   =    2.342    core radius for proj-oper                                                   
   RAUG   =    1.300    factor for augmentation sphere                                              
   RDEP   =    2.318    radius for radial grids                                                     
   RDEPT  =    2.103    core radius for aug-charge                                                  
                                                                                                    
   Atomic configuration                                                                             
   10 entries                                                                                       
     n  l   j            E        occ.                                                              
     1  0  0.50    -10959.8463   2.0000                                                             
     2  0  0.50     -1371.6056   2.0000                                                             
     2  1  1.50     -1198.4791   6.0000                                                             
     3  0  0.50      -168.4733   2.0000                                                             
     3  1  1.50      -115.6019   6.0000                                                             
     3  2  2.50       -29.3106  10.0000                                                             
     4  0  0.50       -11.7309   2.0000                                                             
     4  1  0.50        -3.8952   2.0000                                                             
     4  2  1.50        -4.0817   0.0000                                                             
     4  3  2.50        -4.0817   0.0000                                                             
   Description                                                                                      
     l       E           TYP  RCUT    TYP  RCUT                                                     
     0    -11.7309493     23  2.300                                                                 
     0     -7.4578696     23  2.300                                                                 
     1     -3.8952261     23  2.300                                                                 
     1      6.1178114     23  2.300                                                                 
     2     -4.0817478     23  2.300                                                                 
     3     -1.3605826      7  2.300                                                                 
  local pseudopotential read in
  partial core-charges read in
  partial kinetic energy density read in
  atomic valenz-charges read in
  non local Contribution for L=            0  read in
    real space projection operators read in
  non local Contribution for L=            0  read in
    real space projection operators read in
  non local Contribution for L=            1  read in
    real space projection operators read in
  non local Contribution for L=            1  read in
    real space projection operators read in
  non local Contribution for L=            2  read in
    real space projection operators read in
    PAW grid and wavefunctions read in
 
   number of l-projection  operators is LMAX  =            5
   number of lm-projection operators is LMMAX =           13
 
 POTCAR:    PAW_PBE Se 06Sep2000                  
   VRHFIN =Se: s2p4                                                                                 
   LEXCH  = PE                                                                                      
   EATOM  =   257.1286 eV,   18.8984 Ry                                                             
                                                                                                    
   TITEL  = PAW_PBE Se 06Sep2000                                                                    
   LULTRA =        F    use ultrasoft PP ?                                                          
   IUNSCR =        1    unscreen: 0-lin 1-nonlin 2-no                                               
   RPACOR =    1.900    partial core radius                                                         
   POMASS =   78.960; ZVAL   =    6.000    mass and valenz                                          
   RCORE  =    2.100    outmost cutoff radius                                                       
   RWIGS  =    2.200; RWIGS  =    1.164    wigner-seitz radius (au A)                               
   ENMAX  =  211.555; ENMIN  =  158.666 eV                                                          
   ICORE  =        3    local potential                                                             
   LCOR   =        T    correct aug charges                                                         
   LPAW   =        T    paw PP                                                                      
   EAUG   =  446.842                                                                                
   DEXC   =    0.000                                                                                
   RMAX   =    2.147    core radius for proj-oper                                                   
   RAUG   =    1.300    factor for augmentation sphere                                              
   RDEP   =    2.177    radius for radial grids                                                     
   RDEPT  =    1.928    core radius for aug-charge                                                  
                                                                                                    
   Atomic configuration                                                                             
   10 entries                                                                                       
     n  l   j            E        occ.                                                              
     1  0  0.50    -12503.4787   2.0000                                                             
     2  0  0.50     -1606.9547   2.0000                                                             
     2  1  1.50     -1413.3140   6.0000                                                             
     3  0  0.50      -213.4885   2.0000                                                             
     3  1  1.50      -152.9538   6.0000                                                             
     3  2  2.50       -53.1221  10.0000                                                             
     4  0  0.50       -17.2865   2.0000                                                             
     4  1  0.50        -6.5110   4.0000                                                             
     4  2  2.50        -6.8029   0.0000                                                             
     4  3  2.50        -6.8029   0.0000                                                             
   Description                                                                                      
     l       E           TYP  RCUT    TYP  RCUT                                                     
     0    -17.2865377     23  2.100                                                                 
     0    -15.3094411     23  2.100                                                                 
     1     -6.5110275     23  2.100                                                                 
     1     -0.0695192     23  2.100                                                                 
     2     -6.8029130     23  2.100                                                                 
     3     -1.3605826      7  2.100                                                                 
  local pseudopotential read in
  partial core-charges read in
  partial kinetic energy density read in
  atomic valenz-charges read in
  non local Contribution for L=            0  read in
    real space projection operators read in
  non local Contribution for L=            0  read in
    real space projection operators read in
  non local Contribution for L=            1  read in
    real space projection operators read in
  non local Contribution for L=            1  read in
    real space projection operators read in
  non local Contribution for L=            2  read in
    real space projection operators read in
    PAW grid and wavefunctions read in
 
   number of l-projection  operators is LMAX  =            5
   number of lm-projection operators is LMMAX =           13
 
  PAW_PBE Ge 05Jan2001                  :
 energy of atom  1       EATOM= -104.9960
 kinetic energy error for atom=    0.0002 (will be added to EATOM!!)
  PAW_PBE Se 06Sep2000                  :
 energy of atom  2       EATOM= -257.1286
 kinetic energy error for atom=    0.0007 (will be added to EATOM!!)
 
 
 POSCAR: Ge Se
  positions in cartesian coordinates
  No initial velocities read in
 exchange correlation table for  LEXCH =        8
   RHO(1)=    0.500       N(1)  =     2000
   RHO(2)=  100.500       N(2)  =     4000
 


--------------------------------------------------------------------------------------------------------


 ion  position               nearest neighbor table
   1  0.250  0.116  0.193-   3 2.60   3 2.60   4 2.60
   2  0.750  0.616  0.589-   4 2.60   4 2.60   3 2.60
   3  0.750  0.495  0.231-   1 2.60   1 2.60   2 2.60
   4  0.250  0.995  0.552-   2 2.60   2 2.60   1 2.60
 
  LATTYP: Found a simple orthorhombic cell.
 ALAT       =     3.8581001759
 B/A-ratio  =     1.1732653073
 C/A-ratio  =     1.8364418094
  
  Lattice vectors:
  
 A1 = (   3.8581001759,   0.0000000000,   0.0000000000)
 A2 = (   0.0000000000,   4.5265750885,   0.0000000000)
 A3 = (   0.0000000000,   0.0000000000,   7.0851764679)


Analysis of symmetry for initial positions (statically):
=====================================================================
 Subroutine PRICEL returns:
 Original cell was already a primitive cell.
 

 Routine SETGRP: Setting up the symmetry group for a 
 simple orthorhombic supercell.


 Subroutine GETGRP returns: Found  4 space group operations
 (whereof  1 operations were pure point group operations)
 out of a pool of  8 trial point group operations.


The static configuration has the point symmetry C_1 .
 The point group associated with its full space group is C_2v.


Analysis of symmetry for dynamics (positions and initial velocities):
=====================================================================
 Subroutine PRICEL returns:
 Original cell was already a primitive cell.
 

 Routine SETGRP: Setting up the symmetry group for a 
 simple orthorhombic supercell.


 Subroutine GETGRP returns: Found  4 space group operations
 (whereof  1 operations were pure point group operations)
 out of a pool of  8 trial point group operations.


The dynamic configuration has the point symmetry C_1 .
 The point group associated with its full space group is C_2v.


Analysis of structural, dynamic, and magnetic symmetry:
=====================================================================
 Subroutine PRICEL returns:
 Original cell was already a primitive cell.
 

 Routine SETGRP: Setting up the symmetry group for a 
 simple orthorhombic supercell.


 Subroutine GETGRP returns: Found  4 space group operations
 (whereof  1 operations were pure point group operations)
 out of a pool of  8 trial point group operations.


The overall configuration has the point symmetry C_1 .
 The point group associated with its full space group is C_2v.


 Subroutine INISYM returns: Found  4 space group operations
 (whereof  1 operations are pure point group operations),
 and found     1 'primitive' translations


----------------------------------------------------------------------------------------

                                     Primitive cell                                     

  volume of cell :     123.7354

  direct lattice vectors                    reciprocal lattice vectors
     3.858100176  0.000000000  0.000000000     0.259194929  0.000000000  0.000000000
     0.000000000  4.526575088  0.000000000     0.000000000  0.220917577  0.000000000
     0.000000000  0.000000000  7.085176468     0.000000000  0.000000000  0.141139745

  length of vectors
     3.858100176  4.526575088  7.085176468     0.259194929  0.220917577  0.141139745

  position of ions in fractional coordinates (direct lattice)
     0.250000000  0.115641899  0.193286046
     0.750000000  0.615641892  0.588993432
     0.750000000  0.495050967  0.230568887
     0.250000000  0.995051026  0.551710603

  ion indices of the primitive-cell ions
   primitive index   ion index
                 1           1
                 2           2
                 3           3
                 4           4

----------------------------------------------------------------------------------------

 
 
 KPOINTS: KPOINTS created by Atomic Simulation Env

Automatic generation of k-mesh.
 Grid dimensions read from file:
 generate k-points for:    6    6    2

 Generating k-lattice:

  Cartesian coordinates                     Fractional coordinates (reciprocal lattice)
     0.043199155  0.000000000  0.000000000     0.166666667  0.000000000  0.000000000
     0.000000000  0.036819596  0.000000000     0.000000000  0.166666667  0.000000000
     0.000000000  0.000000000  0.070569873     0.000000000  0.000000000  0.500000000

  Length of vectors
     0.043199155  0.036819596  0.070569873

  Shift w.r.t. Gamma in fractional coordinates (k-lattice)
     0.000000000  0.000000000  0.000000000

 
 Subroutine IBZKPT returns following result:
 ===========================================
 
 Found     32 irreducible k-points:
 
 Following reciprocal coordinates:
            Coordinates               Weight
  0.000000  0.000000  0.000000      1.000000
  0.166667  0.000000  0.000000      2.000000
  0.333333  0.000000  0.000000      2.000000
  0.500000  0.000000  0.000000      1.000000
  0.000000  0.166667  0.000000      2.000000
  0.166667  0.166667  0.000000      4.000000
  0.333333  0.166667  0.000000      4.000000
  0.500000  0.166667  0.000000      2.000000
  0.000000  0.333333  0.000000      2.000000
  0.166667  0.333333  0.000000      4.000000
  0.333333  0.333333  0.000000      4.000000
  0.500000  0.333333  0.000000      2.000000
  0.000000  0.500000  0.000000      1.000000
  0.166667  0.500000  0.000000      2.000000
  0.333333  0.500000  0.000000      2.000000
  0.500000  0.500000  0.000000      1.000000
  0.000000  0.000000  0.500000      1.000000
  0.166667  0.000000  0.500000      2.000000
  0.333333  0.000000  0.500000      2.000000
  0.500000  0.000000  0.500000      1.000000
  0.000000  0.166667  0.500000      2.000000
  0.166667  0.166667  0.500000      4.000000
  0.333333  0.166667  0.500000      4.000000
  0.500000  0.166667  0.500000      2.000000
  0.000000  0.333333  0.500000      2.000000
  0.166667  0.333333  0.500000      4.000000
  0.333333  0.333333  0.500000      4.000000
  0.500000  0.333333  0.500000      2.000000
  0.000000  0.500000  0.500000      1.000000
  0.166667  0.500000  0.500000      2.000000
  0.333333  0.500000  0.500000      2.000000
  0.500000  0.500000  0.500000      1.000000
 
 Following cartesian coordinates:
            Coordinates               Weight
  0.000000  0.000000  0.000000      1.000000
  0.043199  0.000000  0.000000      2.000000
  0.086398  0.000000  0.000000      2.000000
  0.129597  0.000000  0.000000      1.000000
  0.000000  0.036820  0.000000      2.000000
  0.043199  0.036820  0.000000      4.000000
  0.086398  0.036820  0.000000      4.000000
  0.129597  0.036820  0.000000      2.000000
  0.000000  0.073639  0.000000      2.000000
  0.043199  0.073639  0.000000      4.000000
  0.086398  0.073639  0.000000      4.000000
  0.129597  0.073639  0.000000      2.000000
  0.000000  0.110459  0.000000      1.000000
  0.043199  0.110459  0.000000      2.000000
  0.086398  0.110459  0.000000      2.000000
  0.129597  0.110459  0.000000      1.000000
  0.000000  0.000000  0.070570      1.000000
  0.043199  0.000000  0.070570      2.000000
  0.086398  0.000000  0.070570      2.000000
  0.129597  0.000000  0.070570      1.000000
  0.000000  0.036820  0.070570      2.000000
  0.043199  0.036820  0.070570      4.000000
  0.086398  0.036820  0.070570      4.000000
  0.129597  0.036820  0.070570      2.000000
  0.000000  0.073639  0.070570      2.000000
  0.043199  0.073639  0.070570      4.000000
  0.086398  0.073639  0.070570      4.000000
  0.129597  0.073639  0.070570      2.000000
  0.000000  0.110459  0.070570      1.000000
  0.043199  0.110459  0.070570      2.000000
  0.086398  0.110459  0.070570      2.000000
  0.129597  0.110459  0.070570      1.000000
 
 -----------------------------------------------------------------------------
|                                                                             |
|           W    W    AA    RRRRR   N    N  II  N    N   GGGG   !!!           |
|           W    W   A  A   R    R  NN   N  II  NN   N  G    G  !!!           |
|           W    W  A    A  R    R  N N  N  II  N N  N  G       !!!           |
|           W WW W  AAAAAA  RRRRR   N  N N  II  N  N N  G  GGG   !            |
|           WW  WW  A    A  R   R   N   NN  II  N   NN  G    G                |
|           W    W  A    A  R    R  N    N  II  N    N   GGGG   !!!           |
|                                                                             |
|     The number of bands has been changed from the values supplied in        |
|     the INCAR file. This is a result of running the parallel version.       |
|     The orbitals not found in the WAVECAR file will be initialized with     |
|     random numbers, which is usually adequate. For correlated               |
|     calculations, however, you should redo the groundstate calculation.     |
|     I found NBANDS = 220. Now, NBANDS = 224.                                |
|                                                                             |
 -----------------------------------------------------------------------------



--------------------------------------------------------------------------------------------------------




 Dimension of arrays:
   k-points           NKPTS =     32   k-points in BZ     NKDIM =     32   number of bands    NBANDS=    224
   number of dos      NEDOS =    301   number of ions     NIONS =      4
   non local maximal  LDIM  =      5   non local SUM 2l+1 LMDIM =     13
   total plane-waves  NPLWV =  58320
   max r-space proj   IRMAX =      1   max aug-charges    IRDMAX=  25813
   dimension x,y,z NGX =    30 NGY =   36 NGZ =   54
   dimension x,y,z NGXF=    60 NGYF=   72 NGZF=  108
   support grid    NGXF=    60 NGYF=   72 NGZF=  108
   ions per type =               2   2
   NGX,Y,Z   is equivalent  to a cutoff of  12.93, 13.22, 12.67 a.u.
   NGXF,Y,Z  is equivalent  to a cutoff of  25.85, 26.44, 25.34 a.u.

 SYSTEM =  02_SCF                                  
 POSCAR =  Ge Se                                   

 Startparameter for this run:
   NWRITE =      2    write-flag & timer
   PREC   = accura    normal or accurate (medium, high low for compatibility)
   ISTART =      0    job   : 0-new  1-cont  2-samecut
   ICHARG =      2    charge: 1-file 2-atom 10-const
   ISPIN  =      2    spin polarized calculation?
   LNONCOLLINEAR =      F non collinear calculations
   LSORBIT =      F    spin-orbit coupling
   INIWAV =      1    electr: 0-lowe 1-rand  2-diag
   LASPH  =      T    aspherical Exc in radial PAW
 Electronic Relaxation 1
   ENCUT  =  520.0 eV  38.22 Ry    6.18 a.u.   7.17  8.42 13.17*2*pi/ulx,y,z
   ENINI  =  520.0     initial cutoff
   ENAUG  =  446.8 eV  augmentation charge cutoff
   NELM   =    100;   NELMIN=  5; NELMDL=  0     # of ELM steps 
   EDIFF  = 0.1E-05   stopping-criterion for ELM
   LREAL  =      F    real-space projection
   NLSPLINE    = F    spline interpolate recip. space projectors
   LCOMPAT=      F    compatible to vasp.4.4
   GGA_COMPAT  = T    GGA compatible to vasp.4.4-vasp.4.6
   LMAXPAW     = -100 max onsite density
   LMAXMIX     =    2 max onsite mixed and CHGCAR
   VOSKOWN=      0    Vosko Wilk Nusair interpolation
   ROPT   =    0.00000   0.00000
 Ionic relaxation
   EDIFFG = 0.1E-04   stopping-criterion for IOM
   NSW    =      0    number of steps for IOM
   NBLOCK =      1;   KBLOCK =      1    inner block; outer block 
   IBRION =     -1    ionic relax: 0-MD 1-quasi-New 2-CG
   NFREE  =      0    steps in history (QN), initial steepest desc. (CG)
   ISIF   =      2    stress and relaxation
   IWAVPR =     10    prediction:  0-non 1-charg 2-wave 3-comb
   ISYM   =      2    0-nonsym 1-usesym 2-fastsym
   LCORR  =      T    Harris-Foulkes like correction to forces

   POTIM  = 0.5000    time-step for ionic-motion
   TEIN   =    0.0    initial temperature
   TEBEG  =    0.0;   TEEND  =   0.0 temperature during run
   SMASS  =  -3.00    Nose mass-parameter (am)
   estimated Nose-frequenzy (Omega)   =  0.10E-29 period in steps = 0.13E+47 mass=  -0.340E-27a.u.
   SCALEE = 1.0000    scale energy and forces
   NPACO  =    256;   APACO  = 10.0  distance and # of slots for P.C.
   PSTRESS=    0.0 pullay stress

  Mass of Ions in am
   POMASS =  72.61 78.96
  Ionic Valenz
   ZVAL   =   4.00  6.00
  Atomic Wigner-Seitz radii
   RWIGS  =  -1.00 -1.00
  virtual crystal weights 
   VCA    =   1.00  1.00
   NELECT =      20.0000    total number of electrons
   NUPDOWN=      -1.0000    fix difference up-down

 DOS related values:
   EMIN   =  10.00;   EMAX   =-10.00  energy-range for DOS
   EFERMI =   0.00;   METHOD = LEGACY      
   ISMEAR =     0;   SIGMA  =   0.05  broadening in eV -4-tet -1-fermi 0-gaus

 Electronic relaxation 2 (details)
   IALGO  =     38    algorithm
   LDIAG  =      T    sub-space diagonalisation (order eigenvalues)
   LSUBROT=      F    optimize rotation matrix (better conditioning)
   TURBO    =      0    0=normal 1=particle mesh
   IRESTART =      0    0=no restart 2=restart with 2 vectors
   NREBOOT  =      0    no. of reboots
   NMIN     =      0    reboot dimension
   EREF     =   0.00    reference energy to select bands
   IMIX   =      4    mixing-type and parameters
     AMIX     =   0.40;   BMIX     =  1.00
     AMIX_MAG =   1.60;   BMIX_MAG =  1.00
     AMIN     =   0.10
     WC   =   100.;   INIMIX=   1;  MIXPRE=   1;  MAXMIX= -45

 Intra band minimization:
   WEIMIN = 0.0000     energy-eigenvalue tresh-hold
   EBREAK =  0.11E-08  absolut break condition
   DEPER  =   0.30     relativ break condition  

   TIME   =   0.40     timestep for ELM

  volume/ion in A,a.u.               =      30.93       208.75
  Fermi-wavevector in a.u.,A,eV,Ry     =   0.891771  1.685204 10.820117  0.795256
  Thomas-Fermi vector in A             =   2.013635
 
 Write flags
   LWAVE        =      T    write WAVECAR
   LDOWNSAMPLE  =      F    k-point downsampling of WAVECAR
   LCHARG       =      T    write CHGCAR
   LVTOT        =      F    write LOCPOT, total local potential
   LVHAR        =      F    write LOCPOT, Hartree potential only
   LELF         =      F    write electronic localiz. function (ELF)
   LORBIT       =     11    0 simple, 1 ext, 2 COOP (PROOUT), +10 PAW based schemes


 Dipole corrections
   LMONO  =      F    monopole corrections only (constant potential shift)
   LDIPOL =      F    correct potential (dipole corrections)
   IDIPOL =      0    1-x, 2-y, 3-z, 4-all directions 
   EPSILON=  1.0000000 bulk dielectric constant

 Exchange correlation treatment:
   GGA     =    PE    GGA type
   LEXCH   =     8    internal setting for exchange type
   LIBXC   =     F    Libxc                    
   VOSKOWN =     0    Vosko Wilk Nusair interpolation
   LHFCALC =     F    Hartree Fock is set to
   LHFONE  =     F    Hartree Fock one center treatment
   AEXX    =    0.0000 exact exchange contribution

 Linear response parameters
   LEPSILON=     F    determine dielectric tensor
   LRPA    =     F    only Hartree local field effects (RPA)
   LNABLA  =     F    use nabla operator in PAW spheres
   LVEL    =     F    velocity operator in full k-point grid
   CSHIFT  =0.1000    complex shift for real part using Kramers Kronig
   OMEGAMAX=  -1.0    maximum frequency
   DEG_THRESHOLD= 0.2000000E-02 threshold for treating states as degnerate
   RTIME   =   -0.100 relaxation time in fs
  (WPLASMAI=    0.000 imaginary part of plasma frequency in eV, 0.658/RTIME)
   DFIELD  = 0.0000000 0.0000000 0.0000000 field for delta impulse in time
 
  Optional k-point grid parameters
   LKPOINTS_OPT  =     F    use optional k-point grid
   KPOINTS_OPT_MODE=     1    mode for optional k-point grid
 
 Orbital magnetization related:
   ORBITALMAG=     F  switch on orbital magnetization
   LCHIMAG   =     F  perturbation theory with respect to B field
   DQ        =  0.001000  dq finite difference perturbation B field
   LLRAUG    =     F  two centre corrections for induced B field
   LBONE     =     F  B-component reconstruction in AE one-centre
   LVGVCALC  =     T  calculate vGv susceptibility
   LVGVAPPL  =     F  apply vGv susceptibility instead of pGv for G=0

 Random number generation:
   RANDOM_GENERATOR = DEFAULT
   PCG_SEED         = not used


--------------------------------------------------------------------------------------------------------


 Static calculation
 charge density and potential will be updated during run
 spin polarized calculation
 Variant of blocked Davidson
 Davidson routine will perform the subspace rotation
 perform sub-space diagonalisation
    after iterative eigenvector-optimisation
 modified Broyden-mixing scheme, WC =      100.0
 initial mixing is a Kerker type mixing with AMIX =  0.4000 and BMIX =      1.0000
 Hartree-type preconditioning will be used
 using additional bands           214
 reciprocal scheme for non local part
 use partial core corrections
 calculate Harris-corrections to forces 
   (improved forces if not selfconsistent)
 use gradient corrections 
 use of overlap-Matrix (Vanderbilt PP)
 Gauss-broadening in eV      SIGMA  =   0.05


--------------------------------------------------------------------------------------------------------


  energy-cutoff  :      520.00
  volume of cell :      123.74
      direct lattice vectors                 reciprocal lattice vectors
     3.858100176  0.000000000  0.000000000     0.259194929  0.000000000  0.000000000
     0.000000000  4.526575088  0.000000000     0.000000000  0.220917577  0.000000000
     0.000000000  0.000000000  7.085176468     0.000000000  0.000000000  0.141139745

  length of vectors
     3.858100176  4.526575088  7.085176468     0.259194929  0.220917577  0.141139745


 
 k-points in units of 2pi/SCALE and weight: KPOINTS created by Atomic Simulation Env
   0.00000000  0.00000000  0.00000000       0.014
   0.04319915  0.00000000  0.00000000       0.028
   0.08639831  0.00000000  0.00000000       0.028
   0.12959746  0.00000000  0.00000000       0.014
   0.00000000  0.03681960  0.00000000       0.028
   0.04319915  0.03681960  0.00000000       0.056
   0.08639831  0.03681960  0.00000000       0.056
   0.12959746  0.03681960  0.00000000       0.028
   0.00000000  0.07363919  0.00000000       0.028
   0.04319915  0.07363919  0.00000000       0.056
   0.08639831  0.07363919  0.00000000       0.056
   0.12959746  0.07363919  0.00000000       0.028
   0.00000000  0.11045879  0.00000000       0.014
   0.04319915  0.11045879  0.00000000       0.028
   0.08639831  0.11045879  0.00000000       0.028
   0.12959746  0.11045879  0.00000000       0.014
   0.00000000  0.00000000  0.07056987       0.014
   0.04319915  0.00000000  0.07056987       0.028
   0.08639831  0.00000000  0.07056987       0.028
   0.12959746  0.00000000  0.07056987       0.014
   0.00000000  0.03681960  0.07056987       0.028
   0.04319915  0.03681960  0.07056987       0.056
   0.08639831  0.03681960  0.07056987       0.056
   0.12959746  0.03681960  0.07056987       0.028
   0.00000000  0.07363919  0.07056987       0.028
   0.04319915  0.07363919  0.07056987       0.056
   0.08639831  0.07363919  0.07056987       0.056
   0.12959746  0.07363919  0.07056987       0.028
   0.00000000  0.11045879  0.07056987       0.014
   0.04319915  0.11045879  0.07056987       0.028
   0.08639831  0.11045879  0.07056987       0.028
   0.12959746  0.11045879  0.07056987       0.014
 
 k-points in reciprocal lattice and weights: KPOINTS created by Atomic Simulation Env
   0.00000000  0.00000000  0.00000000       0.014
   0.16666667  0.00000000  0.00000000       0.028
   0.33333333  0.00000000  0.00000000       0.028
   0.50000000  0.00000000  0.00000000       0.014
   0.00000000  0.16666667  0.00000000       0.028
   0.16666667  0.16666667  0.00000000       0.056
   0.33333333  0.16666667  0.00000000       0.056
   0.50000000  0.16666667  0.00000000       0.028
   0.00000000  0.33333333  0.00000000       0.028
   0.16666667  0.33333333  0.00000000       0.056
   0.33333333  0.33333333  0.00000000       0.056
   0.50000000  0.33333333  0.00000000       0.028
   0.00000000  0.50000000  0.00000000       0.014
   0.16666667  0.50000000  0.00000000       0.028
   0.33333333  0.50000000  0.00000000       0.028
   0.50000000  0.50000000  0.00000000       0.014
   0.00000000  0.00000000  0.50000000       0.014
   0.16666667  0.00000000  0.50000000       0.028
   0.33333333  0.00000000  0.50000000       0.028
   0.50000000  0.00000000  0.50000000       0.014
   0.00000000  0.16666667  0.50000000       0.028
   0.16666667  0.16666667  0.50000000       0.056
   0.33333333  0.16666667  0.50000000       0.056
   0.50000000  0.16666667  0.50000000       0.028
   0.00000000  0.33333333  0.50000000       0.028
   0.16666667  0.33333333  0.50000000       0.056
   0.33333333  0.33333333  0.50000000       0.056
   0.50000000  0.33333333  0.50000000       0.028
   0.00000000  0.50000000  0.50000000       0.014
   0.16666667  0.50000000  0.50000000       0.028
   0.33333333  0.50000000  0.50000000       0.028
   0.50000000  0.50000000  0.50000000       0.014
 
 position of ions in fractional coordinates (direct lattice) 
   0.25000000  0.11564190  0.19328605
   0.75000000  0.61564189  0.58899343
   0.75000000  0.49505097  0.23056889
   0.25000000  0.99505103  0.55171060
 
 position of ions in cartesian coordinates  (Angst):
   0.96452504  0.52346174  1.36946575
   2.89357513  2.78674925  4.17312240
   2.89357513  2.24088537  1.63362125
   0.96452504  4.50417319  3.90896698
 


--------------------------------------------------------------------------------------------------------


 k-point   1 :   0.0000 0.0000 0.0000  plane waves:    3329
 k-point   2 :   0.1667 0.0000 0.0000  plane waves:    3333
 k-point   3 :   0.3333 0.0000 0.0000  plane waves:    3350
 k-point   4 :   0.5000 0.0000 0.0000  plane waves:    3370
 k-point   5 :   0.0000 0.1667 0.0000  plane waves:    3327
 k-point   6 :   0.1667 0.1667 0.0000  plane waves:    3331
 k-point   7 :   0.3333 0.1667 0.0000  plane waves:    3332
 k-point   8 :   0.5000 0.1667 0.0000  plane waves:    3352
 k-point   9 :   0.0000 0.3333 0.0000  plane waves:    3327
 k-point  10 :   0.1667 0.3333 0.0000  plane waves:    3327
 k-point  11 :   0.3333 0.3333 0.0000  plane waves:    3339
 k-point  12 :   0.5000 0.3333 0.0000  plane waves:    3322
 k-point  13 :   0.0000 0.5000 0.0000  plane waves:    3324
 k-point  14 :   0.1667 0.5000 0.0000  plane waves:    3316
 k-point  15 :   0.3333 0.5000 0.0000  plane waves:    3306
 k-point  16 :   0.5000 0.5000 0.0000  plane waves:    3316
 k-point  17 :   0.0000 0.0000 0.5000  plane waves:    3318
 k-point  18 :   0.1667 0.0000 0.5000  plane waves:    3336
 k-point  19 :   0.3333 0.0000 0.5000  plane waves:    3338
 k-point  20 :   0.5000 0.0000 0.5000  plane waves:    3340
 k-point  21 :   0.0000 0.1667 0.5000  plane waves:    3328
 k-point  22 :   0.1667 0.1667 0.5000  plane waves:    3346
 k-point  23 :   0.3333 0.1667 0.5000  plane waves:    3334
 k-point  24 :   0.5000 0.1667 0.5000  plane waves:    3324
 k-point  25 :   0.0000 0.3333 0.5000  plane waves:    3326
 k-point  26 :   0.1667 0.3333 0.5000  plane waves:    3334
 k-point  27 :   0.3333 0.3333 0.5000  plane waves:    3324
 k-point  28 :   0.5000 0.3333 0.5000  plane waves:    3332
 k-point  29 :   0.0000 0.5000 0.5000  plane waves:    3344
 k-point  30 :   0.1667 0.5000 0.5000  plane waves:    3320
 k-point  31 :   0.3333 0.5000 0.5000  plane waves:    3328
 k-point  32 :   0.5000 0.5000 0.5000  plane waves:    3312

 maximum and minimum number of plane-waves per node :      3370     3306

 maximum number of plane-waves:      3370
 maximum index in each direction: 
   IXMAX=    7   IYMAX=    8   IZMAX=   13
   IXMIN=   -7   IYMIN=   -8   IZMIN=  -13


 serial   3D FFT for wavefunctions
 parallel 3D FFT for charge:
    minimum data exchange during FFTs selected (reduces bandwidth)


 total amount of memory used by VASP MPI-rank0   110581. kBytes
=======================================================================

   base      :      30000. kBytes
   nonl-proj :      22686. kBytes
   fftplans  :       1291. kBytes
   grid      :       7225. kBytes
   one-center:         64. kBytes
   wavefun   :      49315. kBytes
 
     INWAV:  cpu time      0.0000: real time      0.0001
 Broyden mixing: mesh for mixing (old mesh)
   NGX = 15   NGY = 17   NGZ = 27
  (NGX  = 60   NGY  = 72   NGZ  =108)
  gives a total of   6885 points

 initial charge density was supplied:
 charge density of overlapping atoms calculated
 number of electron      20.0000000 magnetization       4.0000000
 keeping initial charge density in first step


--------------------------------------------------------------------------------------------------------


 Maximum index for augmentation-charges          1819 (set IRDMAX)


--------------------------------------------------------------------------------------------------------


 First call to EWALD:  gamma=   0.356
 Maximum number of real-space cells 3x 3x 2
 Maximum number of reciprocal cells 2x 3x 4

    FEWALD:  cpu time      0.0013: real time      0.0013


--------------------------------------- Ionic step        1  -------------------------------------------




--------------------------------------- Iteration      1(   1)  ---------------------------------------


    POTLOK:  cpu time      0.0582: real time      0.0587
    SETDIJ:  cpu time      1.1238: real time      1.1261
     EDDAV:  cpu time      8.2091: real time      8.2827
       DOS:  cpu time      0.0024: real time      0.0024
    --------------------------------------------
      LOOP:  cpu time      9.3935: real time      9.4699

 eigenvalue-minimisations  : 28672
 total energy-change (2. order) : 0.9113060E+02  (-0.4527945E+03)
 number of electron      20.0000000 magnetization       4.0000000
 augmentation part       20.0000000 magnetization       4.0000000

 Free energy of the ion-electron system (eV)
  ---------------------------------------------------
  alpha Z        PSCENC =        34.23524719
  Ewald energy   TEWEN  =      -569.14388117
  -Hartree energ DENC   =      -158.31879443
  -exchange      EXHF   =         0.00000000
  -V(xc)+E(xc)   XCENC  =       -16.94268223
  PAW double counting   =       596.57894437     -539.99618860
  entropy T*S    EENTRO =        -0.00144749
  eigenvalues    EBANDS =        20.47209901
  atomic energy  EATOM  =       724.24730435
  Solvation  Ediel_sol  =         0.00000000
  ---------------------------------------------------
  free energy    TOTEN  =        91.13060100 eV

  energy without entropy =       91.13204850  energy(sigma->0) =       91.13132475


--------------------------------------------------------------------------------------------------------




--------------------------------------- Iteration      1(   2)  ---------------------------------------


     EDDAV:  cpu time      9.5916: real time      9.6674
       DOS:  cpu time      0.0022: real time      0.0022
    --------------------------------------------
      LOOP:  cpu time      9.5938: real time      9.6696

 eigenvalue-minimisations  : 34768
 total energy-change (2. order) :-0.1035844E+03  (-0.9260917E+02)
 number of electron      20.0000000 magnetization       4.0000000
 augmentation part       20.0000000 magnetization       4.0000000

 Free energy of the ion-electron system (eV)
  ---------------------------------------------------
  alpha Z        PSCENC =        34.23524719
  Ewald energy   TEWEN  =      -569.14388117
  -Hartree energ DENC   =      -158.31879443
  -exchange      EXHF   =         0.00000000
  -V(xc)+E(xc)   XCENC  =       -16.94268223
  PAW double counting   =       596.57894437     -539.99618860
  entropy T*S    EENTRO =        -0.00000064
  eigenvalues    EBANDS =       -83.11378807
  atomic energy  EATOM  =       724.24730435
  Solvation  Ediel_sol  =         0.00000000
  ---------------------------------------------------
  free energy    TOTEN  =       -12.45383922 eV

  energy without entropy =      -12.45383858  energy(sigma->0) =      -12.45383890


--------------------------------------------------------------------------------------------------------




--------------------------------------- Iteration      1(   3)  ---------------------------------------


     EDDAV:  cpu time      9.3879: real time      9.4599
       DOS:  cpu time      0.0021: real time      0.0021
    --------------------------------------------
      LOOP:  cpu time      9.3900: real time      9.4619

 eigenvalue-minimisations  : 33872
 total energy-change (2. order) :-0.3758600E+01  (-0.3717919E+01)
 number of electron      20.0000000 magnetization       4.0000000
 augmentation part       20.0000000 magnetization       4.0000000

 Free energy of the ion-electron system (eV)
  ---------------------------------------------------
  alpha Z        PSCENC =        34.23524719
  Ewald energy   TEWEN  =      -569.14388117
  -Hartree energ DENC   =      -158.31879443
  -exchange      EXHF   =         0.00000000
  -V(xc)+E(xc)   XCENC  =       -16.94268223
  PAW double counting   =       596.57894437     -539.99618860
  entropy T*S    EENTRO =        -0.00000000
  eigenvalues    EBANDS =       -86.87238823
  atomic energy  EATOM  =       724.24730435
  Solvation  Ediel_sol  =         0.00000000
  ---------------------------------------------------
  free energy    TOTEN  =       -16.21243874 eV

  energy without entropy =      -16.21243874  energy(sigma->0) =      -16.21243874


--------------------------------------------------------------------------------------------------------




--------------------------------------- Iteration      1(   4)  ---------------------------------------


     EDDAV:  cpu time      9.2871: real time      9.3553
       DOS:  cpu time      0.0022: real time      0.0022
    --------------------------------------------
      LOOP:  cpu time      9.2893: real time      9.3575

 eigenvalue-minimisations  : 33456
 total energy-change (2. order) :-0.4171477E-02  (-0.4170977E-02)
 number of electron      20.0000000 magnetization       4.0000000
 augmentation part       20.0000000 magnetization       4.0000000

 Free energy of the ion-electron system (eV)
  ---------------------------------------------------
  alpha Z        PSCENC =        34.23524719
  Ewald energy   TEWEN  =      -569.14388117
  -Hartree energ DENC   =      -158.31879443
  -exchange      EXHF   =         0.00000000
  -V(xc)+E(xc)   XCENC  =       -16.94268223
  PAW double counting   =       596.57894437     -539.99618860
  entropy T*S    EENTRO =        -0.00000000
  eigenvalues    EBANDS =       -86.87655970
  atomic energy  EATOM  =       724.24730435
  Solvation  Ediel_sol  =         0.00000000
  ---------------------------------------------------
  free energy    TOTEN  =       -16.21661022 eV

  energy without entropy =      -16.21661022  energy(sigma->0) =      -16.21661022


--------------------------------------------------------------------------------------------------------




--------------------------------------- Iteration      1(   5)  ---------------------------------------


     EDDAV:  cpu time      9.1011: real time      9.1786
       DOS:  cpu time      0.0020: real time      0.0021
    CHARGE:  cpu time      0.0496: real time      0.0498
    MIXING:  cpu time      0.0026: real time      0.0026
    --------------------------------------------
      LOOP:  cpu time      9.1554: real time      9.2331

 eigenvalue-minimisations  : 32832
 total energy-change (2. order) :-0.1020316E-05  (-0.1020280E-05)
 number of electron      20.0000001 magnetization       1.1825702
 augmentation part       -3.7301985 magnetization       1.1911415

 Broyden mixing:
  rms(total) = 0.68343E+00    rms(broyden)= 0.68343E+00
  rms(prec ) = 0.80980E+00
  weight for this iteration     100.00

 Free energy of the ion-electron system (eV)
  ---------------------------------------------------
  alpha Z        PSCENC =        34.23524719
  Ewald energy   TEWEN  =      -569.14388117
  -Hartree energ DENC   =      -158.31879443
  -exchange      EXHF   =         0.00000000
  -V(xc)+E(xc)   XCENC  =       -16.94268223
  PAW double counting   =       596.57894437     -539.99618860
  entropy T*S    EENTRO =        -0.00000000
  eigenvalues    EBANDS =       -86.87656072
  atomic energy  EATOM  =       724.24730435
  Solvation  Ediel_sol  =         0.00000000
  ---------------------------------------------------
  free energy    TOTEN  =       -16.21661124 eV

  energy without entropy =      -16.21661124  energy(sigma->0) =      -16.21661124


--------------------------------------------------------------------------------------------------------




--------------------------------------- Iteration      1(   6)  ---------------------------------------


    POTLOK:  cpu time      0.0558: real time      0.0562
    SETDIJ:  cpu time      1.1106: real time      1.1127
     EDDAV:  cpu time      8.9197: real time      8.9822
       DOS:  cpu time      0.0019: real time      0.0019
    CHARGE:  cpu time      0.0500: real time      0.0502
    MIXING:  cpu time      0.0024: real time      0.0024
    --------------------------------------------
      LOOP:  cpu time     10.1405: real time     10.2057

 eigenvalue-minimisations  : 32064
 total energy-change (2. order) :-0.3581795E+00  (-0.8650610E-01)
 number of electron      20.0000001 magnetization       0.1836057
 augmentation part       -3.6866869 magnetization       0.2217502

 Broyden mixing:
  rms(total) = 0.31962E+00    rms(broyden)= 0.31962E+00
  rms(prec ) = 0.36214E+00
  weight for this iteration     100.00

 eigenvalues of (default mixing * dielectric matrix)
  average eigenvalue GAMMA=   1.0029
  1.0029

 Free energy of the ion-electron system (eV)
  ---------------------------------------------------
  alpha Z        PSCENC =        34.23524719
  Ewald energy   TEWEN  =      -569.14388117
  -Hartree energ DENC   =      -162.84289437
  -exchange      EXHF   =         0.00000000
  -V(xc)+E(xc)   XCENC  =       -16.81089042
  PAW double counting   =       724.82329336     -668.44812906
  entropy T*S    EENTRO =        -0.00000000
  eigenvalues    EBANDS =       -82.63484060
  atomic energy  EATOM  =       724.24730435
  Solvation  Ediel_sol  =         0.00000000
  ---------------------------------------------------
  free energy    TOTEN  =       -16.57479071 eV

  energy without entropy =      -16.57479071  energy(sigma->0) =      -16.57479071


--------------------------------------------------------------------------------------------------------




--------------------------------------- Iteration      1(   7)  ---------------------------------------


    POTLOK:  cpu time      0.0539: real time      0.0542
    SETDIJ:  cpu time      1.1186: real time      1.1210
     EDDAV:  cpu time      8.8471: real time      8.9119
       DOS:  cpu time      0.0019: real time      0.0019
    CHARGE:  cpu time      0.0493: real time      0.0496
    MIXING:  cpu time      0.0025: real time      0.0025
    --------------------------------------------
      LOOP:  cpu time     10.0733: real time     10.1411

 eigenvalue-minimisations  : 31744
 total energy-change (2. order) :-0.1895567E+00  (-0.7315815E-02)
 number of electron      20.0000001 magnetization      -0.1318881
 augmentation part       -3.6783954 magnetization      -0.1295092

 Broyden mixing:
  rms(total) = 0.15995E+00    rms(broyden)= 0.15995E+00
  rms(prec ) = 0.18484E+00
  weight for this iteration     100.00

 eigenvalues of (default mixing * dielectric matrix)
  average eigenvalue GAMMA=   1.2115
  0.8513  1.5717

 Free energy of the ion-electron system (eV)
  ---------------------------------------------------
  alpha Z        PSCENC =        34.23524719
  Ewald energy   TEWEN  =      -569.14388117
  -Hartree energ DENC   =      -164.45572075
  -exchange      EXHF   =         0.00000000
  -V(xc)+E(xc)   XCENC  =       -16.73170534
  PAW double counting   =       833.35300042     -777.06637141
  entropy T*S    EENTRO =        -0.00000000
  eigenvalues    EBANDS =       -81.20222075
  atomic energy  EATOM  =       724.24730435
  Solvation  Ediel_sol  =         0.00000000
  ---------------------------------------------------
  free energy    TOTEN  =       -16.76434745 eV

  energy without entropy =      -16.76434745  energy(sigma->0) =      -16.76434745


--------------------------------------------------------------------------------------------------------




--------------------------------------- Iteration      1(   8)  ---------------------------------------


    POTLOK:  cpu time      0.0539: real time      0.0544
    SETDIJ:  cpu time      1.1106: real time      1.1129
     EDDAV:  cpu time      8.7911: real time      8.8628
       DOS:  cpu time      0.0019: real time      0.0019
    CHARGE:  cpu time      0.0491: real time      0.0493
    MIXING:  cpu time      0.0025: real time      0.0025
    --------------------------------------------
      LOOP:  cpu time     10.0090: real time     10.0837

 eigenvalue-minimisations  : 31424
 total energy-change (2. order) :-0.3566300E-02  (-0.1782795E-02)
 number of electron      20.0000001 magnetization      -0.0876455
 augmentation part       -3.6759020 magnetization      -0.0894002

 Broyden mixing:
  rms(total) = 0.61782E-01    rms(broyden)= 0.61782E-01
  rms(prec ) = 0.71591E-01
  weight for this iteration     100.00

 eigenvalues of (default mixing * dielectric matrix)
  average eigenvalue GAMMA=   1.2524
  2.0656  0.9870  0.7046

 Free energy of the ion-electron system (eV)
  ---------------------------------------------------
  alpha Z        PSCENC =        34.23524719
  Ewald energy   TEWEN  =      -569.14388117
  -Hartree energ DENC   =      -165.57993221
  -exchange      EXHF   =         0.00000000
  -V(xc)+E(xc)   XCENC  =       -16.58170772
  PAW double counting   =       921.73675351     -865.50104739
  entropy T*S    EENTRO =        -0.00000000
  eigenvalues    EBANDS =       -80.18065032
  atomic energy  EATOM  =       724.24730435
  Solvation  Ediel_sol  =         0.00000000
  ---------------------------------------------------
  free energy    TOTEN  =       -16.76791375 eV

  energy without entropy =      -16.76791375  energy(sigma->0) =      -16.76791375


--------------------------------------------------------------------------------------------------------




--------------------------------------- Iteration      1(   9)  ---------------------------------------


    POTLOK:  cpu time      0.0535: real time      0.0540
    SETDIJ:  cpu time      1.1037: real time      1.1061
     EDDAV:  cpu time      8.7624: real time      8.8329
       DOS:  cpu time      0.0019: real time      0.0019
    CHARGE:  cpu time      0.0484: real time      0.0486
    MIXING:  cpu time      0.0026: real time      0.0026
    --------------------------------------------
      LOOP:  cpu time      9.9726: real time     10.0462

 eigenvalue-minimisations  : 31472
 total energy-change (2. order) : 0.2023446E-02  (-0.1828742E-03)
 number of electron      20.0000001 magnetization      -0.0178313
 augmentation part       -3.6751316 magnetization      -0.0195345

 Broyden mixing:
  rms(total) = 0.20361E-01    rms(broyden)= 0.20361E-01
  rms(prec ) = 0.26018E-01
  weight for this iteration     100.00

 eigenvalues of (default mixing * dielectric matrix)
  average eigenvalue GAMMA=   1.2693
  2.2830  1.2477  0.9151  0.6313

 Free energy of the ion-electron system (eV)
  ---------------------------------------------------
  alpha Z        PSCENC =        34.23524719
  Ewald energy   TEWEN  =      -569.14388117
  -Hartree energ DENC   =      -166.05118724
  -exchange      EXHF   =         0.00000000
  -V(xc)+E(xc)   XCENC  =       -16.52368417
  PAW double counting   =       952.27390801     -896.06138964
  entropy T*S    EENTRO =        -0.00000000
  eigenvalues    EBANDS =       -79.74220764
  atomic energy  EATOM  =       724.24730435
  Solvation  Ediel_sol  =         0.00000000
  ---------------------------------------------------
  free energy    TOTEN  =       -16.76589031 eV

  energy without entropy =      -16.76589031  energy(sigma->0) =      -16.76589031


--------------------------------------------------------------------------------------------------------




--------------------------------------- Iteration      1(  10)  ---------------------------------------


    POTLOK:  cpu time      0.0546: real time      0.0549
    SETDIJ:  cpu time      1.1026: real time      1.1054
     EDDAV:  cpu time      8.7734: real time      8.8455
       DOS:  cpu time      0.0019: real time      0.0019
    CHARGE:  cpu time      0.0491: real time      0.0493
    MIXING:  cpu time      0.0025: real time      0.0025
    --------------------------------------------
      LOOP:  cpu time      9.9841: real time     10.0596

 eigenvalue-minimisations  : 31392
 total energy-change (2. order) :-0.8959068E-03  (-0.6163731E-04)
 number of electron      20.0000001 magnetization       0.0051877
 augmentation part       -3.6746125 magnetization       0.0041809

 Broyden mixing:
  rms(total) = 0.72701E-02    rms(broyden)= 0.72701E-02
  rms(prec ) = 0.11660E-01
  weight for this iteration     100.00

 eigenvalues of (default mixing * dielectric matrix)
  average eigenvalue GAMMA=   1.2407
  2.3888  1.4169  0.9960  0.7878  0.6139

 Free energy of the ion-electron system (eV)
  ---------------------------------------------------
  alpha Z        PSCENC =        34.23524719
  Ewald energy   TEWEN  =      -569.14388117
  -Hartree energ DENC   =      -166.25471264
  -exchange      EXHF   =         0.00000000
  -V(xc)+E(xc)   XCENC  =       -16.50292336
  PAW double counting   =       957.60052403     -901.39023890
  entropy T*S    EENTRO =        -0.00000000
  eigenvalues    EBANDS =       -79.55810572
  atomic energy  EATOM  =       724.24730435
  Solvation  Ediel_sol  =         0.00000000
  ---------------------------------------------------
  free energy    TOTEN  =       -16.76678621 eV

  energy without entropy =      -16.76678621  energy(sigma->0) =      -16.76678621


--------------------------------------------------------------------------------------------------------




--------------------------------------- Iteration      1(  11)  ---------------------------------------


    POTLOK:  cpu time      0.0545: real time      0.0550
    SETDIJ:  cpu time      1.1040: real time      1.1062
     EDDAV:  cpu time      9.0407: real time      9.1122
       DOS:  cpu time      0.0018: real time      0.0019
    CHARGE:  cpu time      0.0484: real time      0.0489
    MIXING:  cpu time      0.0025: real time      0.0025
    --------------------------------------------
      LOOP:  cpu time     10.2518: real time     10.3267

 eigenvalue-minimisations  : 32592
 total energy-change (2. order) :-0.4099571E-03  (-0.1644275E-04)
 number of electron      20.0000001 magnetization       0.0054738
 augmentation part       -3.6743053 magnetization       0.0055952

 Broyden mixing:
  rms(total) = 0.41005E-02    rms(broyden)= 0.41005E-02
  rms(prec ) = 0.65118E-02
  weight for this iteration     100.00

 eigenvalues of (default mixing * dielectric matrix)
  average eigenvalue GAMMA=   1.2209
  2.4067  1.5526  1.1173  0.9109  0.7152  0.6229

 Free energy of the ion-electron system (eV)
  ---------------------------------------------------
  alpha Z        PSCENC =        34.23524719
  Ewald energy   TEWEN  =      -569.14388117
  -Hartree energ DENC   =      -166.37530333
  -exchange      EXHF   =         0.00000000
  -V(xc)+E(xc)   XCENC  =       -16.49177884
  PAW double counting   =       957.77695702     -901.56554715
  entropy T*S    EENTRO =        -0.00000000
  eigenvalues    EBANDS =       -79.45019425
  atomic energy  EATOM  =       724.24730435
  Solvation  Ediel_sol  =         0.00000000
  ---------------------------------------------------
  free energy    TOTEN  =       -16.76719617 eV

  energy without entropy =      -16.76719617  energy(sigma->0) =      -16.76719617


--------------------------------------------------------------------------------------------------------




--------------------------------------- Iteration      1(  12)  ---------------------------------------


    POTLOK:  cpu time      0.0534: real time      0.0540
    SETDIJ:  cpu time      1.1047: real time      1.1070
     EDDAV:  cpu time      8.8871: real time      8.9574
       DOS:  cpu time      0.0019: real time      0.0019
    CHARGE:  cpu time      0.0485: real time      0.0487
    MIXING:  cpu time      0.0027: real time      0.0027
    --------------------------------------------
      LOOP:  cpu time     10.0983: real time     10.1716

 eigenvalue-minimisations  : 31888
 total energy-change (2. order) :-0.1670687E-03  (-0.3750702E-05)
 number of electron      20.0000001 magnetization       0.0001253
 augmentation part       -3.6741164 magnetization       0.0003648

 Broyden mixing:
  rms(total) = 0.21747E-02    rms(broyden)= 0.21747E-02
  rms(prec ) = 0.31294E-02
  weight for this iteration     100.00

 eigenvalues of (default mixing * dielectric matrix)
  average eigenvalue GAMMA=   1.3579
  2.4807  2.4807  1.4049  1.0275  0.8244  0.6435  0.6435

 Free energy of the ion-electron system (eV)
  ---------------------------------------------------
  alpha Z        PSCENC =        34.23524719
  Ewald energy   TEWEN  =      -569.14388117
  -Hartree energ DENC   =      -166.45651295
  -exchange      EXHF   =         0.00000000
  -V(xc)+E(xc)   XCENC  =       -16.48465522
  PAW double counting   =       956.58559964     -900.37265202
  entropy T*S    EENTRO =        -0.00000000
  eigenvalues    EBANDS =       -79.37781306
  atomic energy  EATOM  =       724.24730435
  Solvation  Ediel_sol  =         0.00000000
  ---------------------------------------------------
  free energy    TOTEN  =       -16.76736324 eV

  energy without entropy =      -16.76736324  energy(sigma->0) =      -16.76736324


--------------------------------------------------------------------------------------------------------




--------------------------------------- Iteration      1(  13)  ---------------------------------------


    POTLOK:  cpu time      0.0529: real time      0.0534
    SETDIJ:  cpu time      1.1052: real time      1.1074
     EDDAV:  cpu time      8.9666: real time      9.0382
       DOS:  cpu time      0.0019: real time      0.0019
    CHARGE:  cpu time      0.0489: real time      0.0492
    MIXING:  cpu time      0.0027: real time      0.0027
    --------------------------------------------
      LOOP:  cpu time     10.1781: real time     10.2527

 eigenvalue-minimisations  : 32272
 total energy-change (2. order) :-0.5745446E-04  (-0.1596939E-05)
 number of electron      20.0000001 magnetization      -0.0005020
 augmentation part       -3.6739829 magnetization      -0.0004840

 Broyden mixing:
  rms(total) = 0.59437E-03    rms(broyden)= 0.59437E-03
  rms(prec ) = 0.82882E-03
  weight for this iteration     100.00

 eigenvalues of (default mixing * dielectric matrix)
  average eigenvalue GAMMA=   1.3778
  2.9832  2.5322  1.4406  1.1078  0.9115  0.7783  0.6345  0.6345

 Free energy of the ion-electron system (eV)
  ---------------------------------------------------
  alpha Z        PSCENC =        34.23524719
  Ewald energy   TEWEN  =      -569.14388117
  -Hartree energ DENC   =      -166.50644045
  -exchange      EXHF   =         0.00000000
  -V(xc)+E(xc)   XCENC  =       -16.48042969
  PAW double counting   =       955.50561974     -899.29165389
  entropy T*S    EENTRO =        -0.00000000
  eigenvalues    EBANDS =       -79.33318678
  atomic energy  EATOM  =       724.24730435
  Solvation  Ediel_sol  =         0.00000000
  ---------------------------------------------------
  free energy    TOTEN  =       -16.76742069 eV

  energy without entropy =      -16.76742069  energy(sigma->0) =      -16.76742069


--------------------------------------------------------------------------------------------------------




--------------------------------------- Iteration      1(  14)  ---------------------------------------


    POTLOK:  cpu time      0.0534: real time      0.0540
    SETDIJ:  cpu time      1.1070: real time      1.1092
     EDDAV:  cpu time      9.4229: real time      9.5092
       DOS:  cpu time      0.0020: real time      0.0020
    CHARGE:  cpu time      0.0564: real time      0.0567
    MIXING:  cpu time      0.0027: real time      0.0027
    --------------------------------------------
      LOOP:  cpu time     10.6444: real time     10.7338

 eigenvalue-minimisations  : 34112
 total energy-change (2. order) :-0.4140997E-05  (-0.1435957E-06)
 number of electron      20.0000001 magnetization      -0.0001225
 augmentation part       -3.6739493 magnetization      -0.0001362

 Broyden mixing:
  rms(total) = 0.29081E-03    rms(broyden)= 0.29081E-03
  rms(prec ) = 0.41213E-03
  weight for this iteration     100.00

 eigenvalues of (default mixing * dielectric matrix)
  average eigenvalue GAMMA=   1.3626
  3.1970  2.4993  1.4734  1.2682  1.0030  0.8460  0.7260  0.6252  0.6252

 Free energy of the ion-electron system (eV)
  ---------------------------------------------------
  alpha Z        PSCENC =        34.23524719
  Ewald energy   TEWEN  =      -569.14388117
  -Hartree energ DENC   =      -166.51419056
  -exchange      EXHF   =         0.00000000
  -V(xc)+E(xc)   XCENC  =       -16.47983011
  PAW double counting   =       955.41925536     -899.20528475
  entropy T*S    EENTRO =        -0.00000000
  eigenvalues    EBANDS =       -79.32604514
  atomic energy  EATOM  =       724.24730435
  Solvation  Ediel_sol  =         0.00000000
  ---------------------------------------------------
  free energy    TOTEN  =       -16.76742483 eV

  energy without entropy =      -16.76742483  energy(sigma->0) =      -16.76742483


--------------------------------------------------------------------------------------------------------




--------------------------------------- Iteration      1(  15)  ---------------------------------------


    POTLOK:  cpu time      0.0533: real time      0.0535
    SETDIJ:  cpu time      1.1122: real time      1.1144
     EDDAV:  cpu time      8.7843: real time      8.8548
       DOS:  cpu time      0.0018: real time      0.0019
    CHARGE:  cpu time      0.0483: real time      0.0485
    MIXING:  cpu time      0.0028: real time      0.0028
    --------------------------------------------
      LOOP:  cpu time     10.0027: real time     10.0759

 eigenvalue-minimisations  : 31552
 total energy-change (2. order) :-0.1320377E-05  (-0.3417269E-07)
 number of electron      20.0000001 magnetization       0.0000928
 augmentation part       -3.6739286 magnetization       0.0000889

 Broyden mixing:
  rms(total) = 0.14448E-03    rms(broyden)= 0.14448E-03
  rms(prec ) = 0.19604E-03
  weight for this iteration     100.00

 eigenvalues of (default mixing * dielectric matrix)
  average eigenvalue GAMMA=   1.4067
  3.3269  2.4143  1.9730  1.4330  1.1691  0.9596  0.8348  0.7094  0.6237  0.6237

 Free energy of the ion-electron system (eV)
  ---------------------------------------------------
  alpha Z        PSCENC =        34.23524719
  Ewald energy   TEWEN  =      -569.14388117
  -Hartree energ DENC   =      -166.51710655
  -exchange      EXHF   =         0.00000000
  -V(xc)+E(xc)   XCENC  =       -16.47964963
  PAW double counting   =       955.44746011     -899.23357677
  entropy T*S    EENTRO =        -0.00000000
  eigenvalues    EBANDS =       -79.32322369
  atomic energy  EATOM  =       724.24730435
  Solvation  Ediel_sol  =         0.00000000
  ---------------------------------------------------
  free energy    TOTEN  =       -16.76742615 eV

  energy without entropy =      -16.76742615  energy(sigma->0) =      -16.76742615


--------------------------------------------------------------------------------------------------------




--------------------------------------- Iteration      1(  16)  ---------------------------------------


    POTLOK:  cpu time      0.0531: real time      0.0537
    SETDIJ:  cpu time      1.1052: real time      1.1079
     EDDAV:  cpu time      9.0000: real time      9.0746
       DOS:  cpu time      0.0019: real time      0.0019
    --------------------------------------------
      LOOP:  cpu time     10.1602: real time     10.2380

 eigenvalue-minimisations  : 32544
 total energy-change (2. order) :-0.4715939E-06  (-0.1106557E-07)
 number of electron      20.0000001 magnetization       0.0000928
 augmentation part       -3.6739286 magnetization       0.0000889

 Free energy of the ion-electron system (eV)
  ---------------------------------------------------
  alpha Z        PSCENC =        34.23524719
  Ewald energy   TEWEN  =      -569.14388117
  -Hartree energ DENC   =      -166.51819360
  -exchange      EXHF   =         0.00000000
  -V(xc)+E(xc)   XCENC  =       -16.47960192
  PAW double counting   =       955.48683204     -899.27300624
  entropy T*S    EENTRO =        -0.00000000
  eigenvalues    EBANDS =       -79.32212729
  atomic energy  EATOM  =       724.24730435
  Solvation  Ediel_sol  =         0.00000000
  ---------------------------------------------------
  free energy    TOTEN  =       -16.76742663 eV

  energy without entropy =      -16.76742663  energy(sigma->0) =      -16.76742663


--------------------------------------------------------------------------------------------------------




 average (electrostatic) potential at core
  the test charge radii are     1.1631  1.0808
  (the norm of the test charge is              1.0000)
       1 -35.1535       2 -35.1535       3 -56.6124       4 -56.6124
 
 
 
 E-fermi :   1.9049     XC(G=0):  -7.9252     alpha+bet : -6.8212

 Fermi energy:         1.9049427140

 spin component 1

 k-point     1 :       0.0000    0.0000    0.0000
  band No.  band energies     occupation 
      1     -12.4527      1.00000
      2     -11.0642      1.00000
      3      -6.0582      1.00000
      4      -3.9647      1.00000
      5      -2.7839      1.00000
      6      -1.7681      1.00000
      7      -1.3138      1.00000
      8      -0.1748      1.00000
      9       0.0276      1.00000
     10       1.2380      1.00000
     11       3.5071      0.00000
     12       4.1531      0.00000
     13       4.6024      0.00000
     14       5.4685      0.00000
     15       6.1202      0.00000
     16       6.9969      0.00000
     17       8.2765      0.00000
     18       8.3242      0.00000
     19       9.0962      0.00000
     20       9.4031      0.00000
     21      10.0045      0.00000
     22      10.2464      0.00000
     23      10.9660      0.00000
     24      11.4003      0.00000
     25      12.2669      0.00000
     26      12.7005      0.00000
     27      13.5644      0.00000
     28      13.9591      0.00000
     29      15.2965      0.00000
     30      15.3617      0.00000
     31      15.9085      0.00000
     32      16.1692      0.00000
     33      16.1782      0.00000
     34      17.4054      0.00000
     35      18.9422      0.00000
     36      18.9839      0.00000
     37      19.0233      0.00000
     38      19.4736      0.00000
     39      20.6870      0.00000
     40      21.1333      0.00000
     41      21.5831      0.00000
     42      21.6301      0.00000
     43      21.8194      0.00000
     44      23.0096      0.00000
     45      23.2768      0.00000
     46      23.5862      0.00000
     47      23.7448      0.00000
     48      23.7559      0.00000
     49      24.0165      0.00000
     50      24.6200      0.00000
     51      24.8641      0.00000
     52      25.5123      0.00000
     53      25.9588      0.00000
     54      27.5460      0.00000
     55      27.9927      0.00000
     56      28.3920      0.00000
     57      28.8167      0.00000
     58      29.0174      0.00000
     59      29.2992      0.00000
     60      29.5317      0.00000
     61      29.9954      0.00000
     62      30.2899      0.00000
     63      30.7981      0.00000
     64      30.9781      0.00000
     65      31.1851      0.00000
     66      31.6427      0.00000
     67      31.8650      0.00000
     68      32.2817      0.00000
     69      32.5439      0.00000
     70      33.0055      0.00000
     71      33.1168      0.00000
     72      33.3387      0.00000
     73      33.4828      0.00000
     74      34.9852      0.00000
     75      35.0992      0.00000
     76      35.1154      0.00000
     77      35.7373      0.00000
     78      36.1432      0.00000
     79      36.4087      0.00000
     80      36.9600      0.00000
     81      36.9614      0.00000
     82      37.2861      0.00000
     83      37.4779      0.00000
     84      38.0301      0.00000
     85      38.1836      0.00000
     86      38.6065      0.00000
     87      38.6205      0.00000
     88      38.7028      0.00000
     89      38.7794      0.00000
     90      39.2287      0.00000
     91      39.5193      0.00000
     92      39.5638      0.00000
     93      39.9414      0.00000
     94      40.0440      0.00000
     95      40.8716      0.00000
     96      40.8776      0.00000
     97      41.0441      0.00000
     98      41.3430      0.00000
     99      41.7734      0.00000
    100      41.8787      0.00000
    101      42.3690      0.00000
    102      43.9668      0.00000
    103      44.0661      0.00000
    104      44.1755      0.00000
    105      44.3322      0.00000
    106      44.3756      0.00000
    107      44.5932      0.00000
    108      44.8299      0.00000
    109      44.8660      0.00000
    110      46.0156      0.00000
    111      46.2676      0.00000
    112      46.8460      0.00000
    113      47.1557      0.00000
    114      47.5717      0.00000
    115      47.6769      0.00000
    116      47.8176      0.00000
    117      47.8525      0.00000
    118      48.2693      0.00000
    119      48.3310      0.00000
    120      49.3721      0.00000
    121      49.5862      0.00000
    122      50.1821      0.00000
    123      50.3575      0.00000
    124      50.6877      0.00000
    125      51.0708      0.00000
    126      51.3608      0.00000
    127      51.6165      0.00000
    128      51.7797      0.00000
    129      52.2763      0.00000
    130      53.4609      0.00000
    131      53.5968      0.00000
    132      53.6600      0.00000
    133      53.9284      0.00000
    134      53.9814      0.00000
    135      54.5118      0.00000
    136      54.5859      0.00000
    137      54.6258      0.00000
    138      54.6714      0.00000
    139      55.1980      0.00000
    140      55.2040      0.00000
    141      55.2417      0.00000
    142      55.4826      0.00000
    143      56.2666      0.00000
    144      56.6164      0.00000
    145      56.6401      0.00000
    146      57.5263      0.00000
    147      57.6753      0.00000
    148      57.7748      0.00000
    149      57.8952      0.00000
    150      57.9389      0.00000
    151      58.2323      0.00000
    152      58.2492      0.00000
    153      58.6805      0.00000
    154      58.9795      0.00000
    155      59.1724      0.00000
    156      59.4538      0.00000
    157      60.2100      0.00000
    158      60.2226      0.00000
    159      60.3117      0.00000
    160      60.4729      0.00000
    161      60.7938      0.00000
    162      60.8270      0.00000
    163      61.4152      0.00000
    164      61.9477      0.00000
    165      62.0392      0.00000
    166      62.2069      0.00000
    167      63.4336      0.00000
    168      63.5467      0.00000
    169      64.1361      0.00000
    170      64.3110      0.00000
    171      65.3671      0.00000
    172      65.4687      0.00000
    173      65.9706      0.00000
    174      66.0358      0.00000
    175      66.6011      0.00000
    176      66.6165      0.00000
    177      66.6963      0.00000
    178      67.1194      0.00000
    179      67.2996      0.00000
    180      67.5223      0.00000
    181      67.6875      0.00000
    182      67.7041      0.00000
    183      67.9430      0.00000
    184      68.1877      0.00000
    185      68.2947      0.00000
    186      68.3213      0.00000
    187      68.5148      0.00000
    188      68.8243      0.00000
    189      69.4829      0.00000
    190      69.6626      0.00000
    191      69.8347      0.00000
    192      69.9403      0.00000
    193      70.1848      0.00000
    194      70.2566      0.00000
    195      70.2606      0.00000
    196      71.3946      0.00000
    197      71.4581      0.00000
    198      71.7581      0.00000
    199      71.8889      0.00000
    200      72.3645      0.00000
    201      72.3819      0.00000
    202      72.9050      0.00000
    203      73.4132      0.00000
    204      73.8150      0.00000
    205      74.2772      0.00000
    206      74.3075      0.00000
    207      74.6416      0.00000
    208      74.7848      0.00000
    209      75.0727      0.00000
    210      75.1555      0.00000
    211      75.1945      0.00000
    212      75.9117      0.00000
    213      76.0175      0.00000
    214      76.0276      0.00000
    215      76.0350      0.00000
    216      77.1123      0.00000
    217      77.1370      0.00000
    218      77.2490      0.00000
    219      77.4415      0.00000
    220      77.4779      0.00000
    221      77.7210      0.00000
    222      78.3525      0.00000
    223      78.4665      0.00000
    224      79.1167      0.00000

 k-point     2 :       0.1667    0.0000    0.0000
  band No.  band energies     occupation 
      1     -12.2691      1.00000
      2     -10.9806      1.00000
      3      -6.2816      1.00000
      4      -4.4529      1.00000
      5      -2.5818      1.00000
      6      -1.7876      1.00000
      7      -1.3659      1.00000
      8      -0.3339      1.00000
      9       0.1591      1.00000
     10       1.0463      1.00000
     11       3.6986      0.00000
     12       4.1317      0.00000
     13       4.9657      0.00000
     14       5.0344      0.00000
     15       6.1231      0.00000
     16       6.2155      0.00000
     17       7.8246      0.00000
     18       8.2820      0.00000
     19       8.7049      0.00000
     20       8.8684      0.00000
     21       9.0028      0.00000
     22      11.4132      0.00000
     23      12.3516      0.00000
     24      12.9215      0.00000
     25      13.2935      0.00000
     26      13.3515      0.00000
     27      13.9947      0.00000
     28      14.0715      0.00000
     29      14.4833      0.00000
     30      14.8435      0.00000
     31      15.7015      0.00000
     32      15.8389      0.00000
     33      16.4995      0.00000
     34      18.7778      0.00000
     35      18.9894      0.00000
     36      19.3003      0.00000
     37      19.7946      0.00000
     38      20.5449      0.00000
     39      20.9734      0.00000
     40      21.0178      0.00000
     41      21.3507      0.00000
     42      21.4130      0.00000
     43      21.4616      0.00000
     44      21.8459      0.00000
     45      22.7753      0.00000
     46      22.7902      0.00000
     47      23.9700      0.00000
     48      24.6912      0.00000
     49      24.8087      0.00000
     50      25.2334      0.00000
     51      25.3156      0.00000
     52      26.1149      0.00000
     53      26.5855      0.00000
     54      26.9129      0.00000
     55      26.9252      0.00000
     56      27.4633      0.00000
     57      27.7507      0.00000
     58      28.0241      0.00000
     59      28.5072      0.00000
     60      29.1631      0.00000
     61      29.3121      0.00000
     62      29.8611      0.00000
     63      29.9744      0.00000
     64      30.3734      0.00000
     65      30.5393      0.00000
     66      31.9533      0.00000
     67      32.0713      0.00000
     68      32.5612      0.00000
     69      32.8295      0.00000
     70      32.8907      0.00000
     71      33.6955      0.00000
     72      34.1117      0.00000
     73      34.3942      0.00000
     74      34.4700      0.00000
     75      34.5591      0.00000
     76      35.0738      0.00000
     77      35.3852      0.00000
     78      35.5302      0.00000
     79      35.7578      0.00000
     80      36.0222      0.00000
     81      36.1824      0.00000
     82      36.3364      0.00000
     83      36.5550      0.00000
     84      36.6896      0.00000
     85      37.1952      0.00000
     86      37.6814      0.00000
     87      38.2243      0.00000
     88      38.5031      0.00000
     89      39.1556      0.00000
     90      39.2949      0.00000
     91      39.8356      0.00000
     92      39.9821      0.00000
     93      40.3082      0.00000
     94      40.5368      0.00000
     95      41.2797      0.00000
     96      41.4090      0.00000
     97      41.7183      0.00000
     98      41.8898      0.00000
     99      42.0692      0.00000
    100      42.7233      0.00000
    101      42.9162      0.00000
    102      42.9969      0.00000
    103      43.4218      0.00000
    104      43.8316      0.00000
    105      43.8929      0.00000
    106      45.0081      0.00000
    107      45.4474      0.00000
    108      45.7410      0.00000
    109      45.9264      0.00000
    110      46.7988      0.00000
    111      46.8868      0.00000
    112      47.3825      0.00000
    113      47.3855      0.00000
    114      47.5053      0.00000
    115      47.8693      0.00000
    116      47.8905      0.00000
    117      48.3413      0.00000
    118      48.6783      0.00000
    119      48.9904      0.00000
    120      49.6869      0.00000
    121      49.9760      0.00000
    122      50.3596      0.00000
    123      50.4370      0.00000
    124      50.5794      0.00000
    125      50.8731      0.00000
    126      51.1311      0.00000
    127      51.5666      0.00000
    128      51.7033      0.00000
    129      52.4586      0.00000
    130      52.4783      0.00000
    131      53.1545      0.00000
    132      53.3580      0.00000
    133      53.4809      0.00000
    134      53.7091      0.00000
    135      53.7860      0.00000
    136      54.0386      0.00000
    137      54.7098      0.00000
    138      54.7543      0.00000
    139      55.3574      0.00000
    140      55.6465      0.00000
    141      56.0811      0.00000
    142      56.2441      0.00000
    143      56.4191      0.00000
    144      56.4584      0.00000
    145      56.6384      0.00000
    146      56.6931      0.00000
    147      57.0007      0.00000
    148      57.4610      0.00000
    149      58.2948      0.00000
    150      58.7335      0.00000
    151      59.0712      0.00000
    152      59.4902      0.00000
[...]
      5      -2.8371      1.00000
      6      -2.8371      1.00000
      7      -2.0367      1.00000
      8      -2.0367      1.00000
      9       0.2448      1.00000
     10       0.2448      1.00000
     11       4.2272      0.00000
     12       4.2272      0.00000
     13       5.9951      0.00000
     14       5.9951      0.00000
     15       7.1657      0.00000
     16       7.1657      0.00000
     17       8.4872      0.00000
     18       8.4872      0.00000
     19       8.7709      0.00000
     20       8.7709      0.00000
     21      12.0384      0.00000
     22      12.0384      0.00000
     23      12.8723      0.00000
     24      12.8723      0.00000
     25      13.7298      0.00000
     26      13.7298      0.00000
     27      15.4421      0.00000
     28      15.4421      0.00000
     29      15.8799      0.00000
     30      15.8799      0.00000
     31      16.4915      0.00000
     32      16.4915      0.00000
     33      17.6219      0.00000
     34      17.6219      0.00000
     35      18.7164      0.00000
     36      18.7164      0.00000
     37      19.0982      0.00000
     38      19.0982      0.00000
     39      19.8753      0.00000
     40      19.8753      0.00000
     41      20.0068      0.00000
     42      20.0068      0.00000
     43      20.4099      0.00000
     44      20.4099      0.00000
     45      21.5529      0.00000
     46      21.5529      0.00000
     47      22.5766      0.00000
     48      22.5766      0.00000
     49      25.3471      0.00000
     50      25.3471      0.00000
     51      25.5069      0.00000
     52      25.5069      0.00000
     53      27.1068      0.00000
     54      27.1068      0.00000
     55      27.3983      0.00000
     56      27.3983      0.00000
     57      28.6028      0.00000
     58      28.6028      0.00000
     59      29.0411      0.00000
     60      29.0411      0.00000
     61      29.3005      0.00000
     62      29.3005      0.00000
     63      30.1343      0.00000
     64      30.1343      0.00000
     65      30.8162      0.00000
     66      30.8162      0.00000
     67      31.3292      0.00000
     68      31.3292      0.00000
     69      32.2849      0.00000
     70      32.2849      0.00000
     71      32.6233      0.00000
     72      32.6233      0.00000
     73      33.9032      0.00000
     74      33.9032      0.00000
     75      34.7245      0.00000
     76      34.7245      0.00000
     77      35.5342      0.00000
     78      35.5342      0.00000
     79      36.2083      0.00000
     80      36.2083      0.00000
     81      36.9508      0.00000
     82      36.9508      0.00000
     83      37.4129      0.00000
     84      37.4129      0.00000
     85      37.4774      0.00000
     86      37.4774      0.00000
     87      38.1900      0.00000
     88      38.1900      0.00000
     89      39.1454      0.00000
     90      39.1454      0.00000
     91      39.6385      0.00000
     92      39.6385      0.00000
     93      40.2326      0.00000
     94      40.2326      0.00000
     95      40.3591      0.00000
     96      40.3591      0.00000
     97      41.1852      0.00000
     98      41.1852      0.00000
     99      41.7742      0.00000
    100      41.7742      0.00000
    101      42.2450      0.00000
    102      42.2450      0.00000
    103      42.4965      0.00000
    104      42.4965      0.00000
    105      45.6171      0.00000
    106      45.6171      0.00000
    107      46.7098      0.00000
    108      46.7098      0.00000
    109      47.9367      0.00000
    110      47.9367      0.00000
    111      48.1407      0.00000
    112      48.1407      0.00000
    113      48.9623      0.00000
    114      48.9623      0.00000
    115      49.4926      0.00000
    116      49.4926      0.00000
    117      49.8644      0.00000
    118      49.8644      0.00000
    119      50.3451      0.00000
    120      50.3451      0.00000
    121      50.9852      0.00000
    122      50.9852      0.00000
    123      51.4369      0.00000
    124      51.4369      0.00000
    125      51.6960      0.00000
    126      51.6960      0.00000
    127      51.8627      0.00000
    128      51.8627      0.00000
    129      52.8002      0.00000
    130      52.8002      0.00000
    131      53.2666      0.00000
    132      53.2666      0.00000
    133      54.0347      0.00000
    134      54.0347      0.00000
    135      54.5737      0.00000
    136      54.5737      0.00000
    137      54.8016      0.00000
    138      54.8016      0.00000
    139      55.4850      0.00000
    140      55.4850      0.00000
    141      55.7282      0.00000
    142      55.7282      0.00000
    143      55.8194      0.00000
    144      55.8194      0.00000
    145      56.7075      0.00000
    146      56.7075      0.00000
    147      57.3724      0.00000
    148      57.3724      0.00000
    149      57.4902      0.00000
    150      57.4902      0.00000
    151      58.0928      0.00000
    152      58.0928      0.00000
    153      59.5614      0.00000
    154      59.5614      0.00000
    155      59.8441      0.00000
    156      59.8441      0.00000
    157      60.8064      0.00000
    158      60.8064      0.00000
    159      60.9388      0.00000
    160      60.9388      0.00000
    161      61.1217      0.00000
    162      61.1217      0.00000
    163      62.0999      0.00000
    164      62.0999      0.00000
    165      62.6824      0.00000
    166      62.6824      0.00000
    167      63.3855      0.00000
    168      63.3855      0.00000
    169      63.9656      0.00000
    170      63.9656      0.00000
    171      64.8440      0.00000
    172      64.8440      0.00000
    173      65.7019      0.00000
    174      65.7019      0.00000
    175      65.9871      0.00000
    176      65.9871      0.00000
    177      66.5623      0.00000
    178      66.5623      0.00000
    179      67.5348      0.00000
    180      67.5349      0.00000
    181      67.8130      0.00000
    182      67.8130      0.00000
    183      68.1174      0.00000
    184      68.1174      0.00000
    185      68.6155      0.00000
    186      68.6155      0.00000
    187      69.1226      0.00000
    188      69.1226      0.00000
    189      69.8825      0.00000
    190      69.8825      0.00000
    191      70.1782      0.00000
    192      70.1782      0.00000
    193      70.9192      0.00000
    194      70.9192      0.00000
    195      71.0840      0.00000
    196      71.0840      0.00000
    197      71.3300      0.00000
    198      71.3300      0.00000
    199      71.5519      0.00000
    200      71.5519      0.00000
    201      72.5861      0.00000
    202      72.5861      0.00000
    203      72.7804      0.00000
    204      72.7804      0.00000
    205      73.4996      0.00000
    206      73.4996      0.00000
    207      74.6025      0.00000
    208      74.6025      0.00000
    209      75.3519      0.00000
    210      75.3519      0.00000
    211      75.6470      0.00000
    212      75.6470      0.00000
    213      76.6196      0.00000
    214      76.6196      0.00000
    215      77.1695      0.00000
    216      77.1695      0.00000
    217      77.5142      0.00000
    218      77.5142      0.00000
    219      77.9557      0.00000
    220      77.9557      0.00000
    221      78.2685      0.00000
    222      78.2685      0.00000
    223      78.4661      0.00000
    224      78.4694      0.00000


--------------------------------------------------------------------------------------------------------


 soft charge-density along one line, spin component            1
         0         1         2         3         4         5         6         7         8         9
 total charge-density along one line
 
 soft charge-density along one line, spin component            2
         0         1         2         3         4         5         6         7         8         9
 total charge-density along one line
 
 pseudopotential strength for first ion, spin component:            1
 15.024  18.760   0.042   0.052  -0.000   0.076   0.094  -0.000
 18.760  23.440   0.053   0.066  -0.000   0.096   0.119  -0.000
  0.042   0.053   3.309  -0.003  -0.000   5.640  -0.005  -0.000
  0.052   0.066  -0.003   3.306  -0.000  -0.005   5.636  -0.000
 -0.000  -0.000  -0.000  -0.000   3.310  -0.000  -0.000   5.642
  0.076   0.096   5.640  -0.005  -0.000   9.672  -0.009  -0.000
  0.094   0.119  -0.005   5.636  -0.000  -0.009   9.665  -0.000
 -0.000  -0.000  -0.000  -0.000   5.642  -0.000  -0.000   9.676
 -0.000  -0.000  -0.000  -0.000   0.007  -0.000  -0.000   0.013
 -0.007  -0.008   0.013   0.013  -0.000   0.024   0.024  -0.000
 -0.003  -0.004  -0.004   0.013   0.000  -0.007   0.025   0.000
 -0.000  -0.000  -0.000  -0.000   0.013  -0.000  -0.000   0.024
  0.001   0.002  -0.013   0.000  -0.000  -0.023  -0.000  -0.000
 pseudopotential strength for first ion, spin component:            2
 15.024  18.760   0.042   0.052  -0.000   0.076   0.094  -0.000
 18.760  23.440   0.053   0.066  -0.000   0.096   0.119  -0.000
  0.042   0.053   3.309  -0.003  -0.000   5.640  -0.005  -0.000
  0.052   0.066  -0.003   3.306  -0.000  -0.005   5.636  -0.000
 -0.000  -0.000  -0.000  -0.000   3.310  -0.000  -0.000   5.642
  0.076   0.096   5.640  -0.005  -0.000   9.672  -0.009  -0.000
  0.094   0.119  -0.005   5.636  -0.000  -0.009   9.665  -0.000
 -0.000  -0.000  -0.000  -0.000   5.642  -0.000  -0.000   9.676
 -0.000  -0.000  -0.000  -0.000   0.007  -0.000  -0.000   0.013
 -0.007  -0.008   0.013   0.013  -0.000   0.024   0.024  -0.000
 -0.003  -0.004  -0.004   0.013   0.000  -0.007   0.025   0.000
 -0.000  -0.000  -0.000  -0.000   0.013  -0.000  -0.000   0.024
  0.001   0.002  -0.013   0.000  -0.000  -0.023  -0.000  -0.000
 total augmentation occupancy for first ion, spin component:            1
  2.688  -0.654   0.351   0.402   0.000  -0.066  -0.073   0.000   0.000  -0.009  -0.013  -0.000   0.009
 -0.654   0.619  -0.445  -0.549  -0.000   0.070   0.087  -0.000   0.000   0.002   0.016   0.000  -0.005
  0.351  -0.445   1.225   0.076   0.000  -0.198   0.000   0.000   0.000   0.051  -0.099   0.000   0.001
  0.402  -0.549   0.076   1.272   0.000  -0.000  -0.198   0.000   0.000  -0.015   0.112  -0.000  -0.003
  0.000   0.000   0.000   0.000   1.240   0.000   0.000  -0.211   0.148  -0.000   0.000   0.045   0.000
 -0.066   0.070  -0.198  -0.000   0.000   0.036  -0.002  -0.000   0.000  -0.009   0.017   0.000   0.000
 -0.073   0.087   0.000  -0.198   0.000  -0.002   0.035   0.000   0.000   0.003  -0.020   0.000   0.001
 -0.000   0.000   0.000   0.000  -0.211  -0.000   0.000   0.040  -0.026   0.000  -0.000  -0.008   0.000
  0.000   0.000   0.000   0.000   0.148  -0.000  -0.000  -0.026   0.030   0.000   0.000   0.003   0.000
 -0.009   0.002   0.051  -0.015   0.000  -0.009   0.003  -0.000   0.000   0.010  -0.007   0.000   0.001
 -0.013   0.016  -0.099   0.112  -0.000   0.017  -0.020   0.000   0.000  -0.007   0.028   0.000  -0.002
 -0.000   0.000   0.000   0.000   0.045   0.000   0.000  -0.008   0.003   0.000   0.000   0.009   0.000
  0.009  -0.005   0.001  -0.003   0.000   0.000   0.001  -0.000   0.000   0.001  -0.002   0.000   0.008
 total augmentation occupancy for first ion, spin component:            2
  0.000  -0.000   0.000  -0.000   0.000  -0.000   0.000   0.000   0.000  -0.000  -0.000   0.000  -0.000
 -0.000   0.000  -0.000   0.000   0.000   0.000   0.000   0.000   0.000   0.000   0.000   0.000  -0.000
  0.000  -0.000  -0.000  -0.000   0.000  -0.000   0.000   0.000   0.000  -0.000  -0.000   0.000   0.000
 -0.000   0.000  -0.000  -0.000   0.000   0.000   0.000  -0.000   0.000  -0.000  -0.000   0.000   0.000
  0.000   0.000   0.000   0.000  -0.000   0.000   0.000   0.000   0.000   0.000   0.000  -0.000   0.000
 -0.000   0.000  -0.000   0.000   0.000   0.000  -0.000   0.000   0.000   0.000   0.000   0.000  -0.000
  0.000   0.000   0.000   0.000   0.000  -0.000   0.000   0.000   0.000   0.000  -0.000   0.000  -0.000
  0.000   0.000   0.000  -0.000   0.000   0.000   0.000   0.000  -0.000   0.000   0.000   0.000   0.000
  0.000   0.000   0.000   0.000   0.000   0.000   0.000  -0.000   0.000   0.000   0.000   0.000   0.000
 -0.000   0.000  -0.000  -0.000   0.000   0.000   0.000   0.000   0.000  -0.000  -0.000   0.000   0.000
 -0.000   0.000  -0.000  -0.000   0.000   0.000  -0.000   0.000   0.000  -0.000   0.000   0.000   0.000
  0.000   0.000   0.000   0.000  -0.000   0.000   0.000   0.000   0.000   0.000   0.000  -0.000   0.000
 -0.000  -0.000   0.000   0.000   0.000  -0.000  -0.000   0.000   0.000   0.000   0.000   0.000  -0.000


------------------------ aborting loop because EDIFF is reached ----------------------------------------





 total charge

# of ion       s       p       d       tot
------------------------------------------
    1        1.318   0.789   0.051   2.158
    2        1.318   0.789   0.051   2.158
    3        1.472   2.313   0.029   3.814
    4        1.472   2.313   0.029   3.814
--------------------------------------------------
tot          5.580   6.204   0.160  11.943



 magnetization (x)

# of ion       s       p       d       tot
------------------------------------------
    1       -0.000  -0.000  -0.000  -0.000
    2       -0.000  -0.000  -0.000  -0.000
    3       -0.000   0.000  -0.000   0.000
    4       -0.000   0.000  -0.000   0.000
--------------------------------------------------
tot         -0.000  -0.000  -0.000  -0.000
 
    CHARGE:  cpu time      0.0470: real time      0.0473
    FORLOC:  cpu time      0.0018: real time      0.0018
    FORNL :  cpu time      0.5325: real time      0.5343
    STRESS:  cpu time      1.6190: real time      1.6304
    FORCOR:  cpu time      0.0513: real time      0.0516
    FORHAR:  cpu time      0.0053: real time      0.0053
    MIXING:  cpu time      0.0035: real time      0.0036
    OFIELD:  cpu time      0.0000: real time      0.0000

  FORCE on cell =-STRESS in cart. coord.  units (eV):
  Direction    XX          YY          ZZ          XY          YZ          ZX
  --------------------------------------------------------------------------------------
  Alpha Z    34.23525    34.23525    34.23525
  Ewald     -80.64267  -107.55808  -380.94379    -0.00000     0.00000    -0.00000
  Hartree   128.38560   117.50633   -79.37317    -0.00000    -0.00000    -0.00000
  E(xc)     -70.27878   -70.29422   -70.86861    -0.00000    -0.00000     0.00000
  Local    -320.21355  -285.68576   182.29680    -0.00000     0.00000    -0.00000
  n-local   120.13376   119.82282   120.85955     0.42625     0.00000     0.00000
  augment    -5.65037    -5.86919    -6.08280     0.00000    -0.00003    -0.00000
  Kinetic   194.40645   198.16300   199.24324     3.34593    -0.00000     0.00000
  Fock        0.00000     0.00000     0.00000     0.00000     0.00000     0.00000
  -------------------------------------------------------------------------------------
  Total       0.37569     0.32016    -0.63352     0.00000     0.00000     0.00000
  in kB       4.86462     4.14560    -8.20311     0.00000     0.00000     0.00000
  external pressure =        0.27 kB  Pullay stress =        0.00 kB


 VOLUME and BASIS-vectors are now :
 -----------------------------------------------------------------------------
  energy-cutoff  :      520.00
  volume of cell :      123.74
      direct lattice vectors                 reciprocal lattice vectors
     3.858100176  0.000000000  0.000000000     0.259194929  0.000000000  0.000000000
     0.000000000  4.526575088  0.000000000     0.000000000  0.220917577  0.000000000
     0.000000000  0.000000000  7.085176468     0.000000000  0.000000000  0.141139745

  length of vectors
     3.858100176  4.526575088  7.085176468     0.259194929  0.220917577  0.141139745


 FORCES acting on ions
    electron-ion (+dipol)            ewald-force                    non-local-force                 convergence-correction
 -----------------------------------------------------------------------------------------------
   0.386E-09 0.156E+02 0.683E+02   0.207E-08 -.183E+02 -.716E+02   0.000E+00 0.254E+01 0.361E+01   0.352E-12 -.604E-04 -.241E-03
   -.409E-08 0.156E+02 -.683E+02   -.207E-08 -.183E+02 0.716E+02   0.000E+00 0.254E+01 -.361E+01   -.399E-12 -.604E-04 0.241E-03
   -.198E-07 -.167E+02 0.798E+02   -.239E-08 0.183E+02 -.816E+02   0.000E+00 -.147E+01 0.182E+01   -.182E-11 -.731E-04 -.236E-03
   0.419E-09 -.167E+02 -.798E+02   0.239E-08 0.183E+02 0.816E+02   0.000E+00 -.147E+01 -.182E+01   0.259E-12 -.731E-04 0.236E-03
 -----------------------------------------------------------------------------------------------
   -.230E-07 -.215E+01 -.456E-04   -.140E-14 0.355E-14 0.000E+00   0.000E+00 0.215E+01 0.444E-15   -.161E-11 -.267E-03 0.185E-06
 
 
 POSITION                                       TOTAL-FORCE (eV/Angst)
 -----------------------------------------------------------------------------------
      0.96453      0.52346      1.36947         0.000000     -0.070003      0.255464
      2.89358      2.78675      4.17312         0.000000     -0.070003     -0.255464
      2.89358      2.24089      1.63362         0.000000      0.070003      0.001388
      0.96453      4.50417      3.90897        -0.000000      0.070003     -0.001388
 -----------------------------------------------------------------------------------
    total drift:                               -0.000000     -0.000206     -0.000045


--------------------------------------------------------------------------------------------------------



  FREE ENERGIE OF THE ION-ELECTRON SYSTEM (eV)
  ---------------------------------------------------
  free  energy   TOTEN  =       -16.76742663 eV

  energy  without entropy=      -16.76742663  energy(sigma->0) =      -16.76742663
 


--------------------------------------------------------------------------------------------------------


    POTLOK:  cpu time      1.1579: real time      1.1602


--------------------------------------------------------------------------------------------------------


 writing wavefunctions
     LOOP+:  cpu time    164.6590: real time    169.0527
    4ORBIT:  cpu time      0.0000: real time      0.0000



 total charge

# of ion       s       p       d       tot
------------------------------------------
    1        1.318   0.789   0.051   2.158
    2        1.318   0.789   0.051   2.158
    3        1.472   2.313   0.029   3.814
    4        1.472   2.313   0.029   3.814
--------------------------------------------------
tot          5.580   6.204   0.160  11.943



 magnetization (x)

# of ion       s       p       d       tot
------------------------------------------
    1       -0.000  -0.000  -0.000  -0.000
    2       -0.000  -0.000  -0.000  -0.000
    3       -0.000   0.000  -0.000   0.000
    4       -0.000   0.000  -0.000   0.000
--------------------------------------------------
tot         -0.000  -0.000  -0.000  -0.000
 

 total amount of memory used by VASP MPI-rank0   110581. kBytes
=======================================================================

   base      :      30000. kBytes
   nonl-proj :      22686. kBytes
   fftplans  :       1291. kBytes
   grid      :       7225. kBytes
   one-center:         64. kBytes
   wavefun   :      49315. kBytes
 
  
  
 General timing and accounting informations for this job:
 ========================================================
  
                  Total CPU time used (sec):      169.804
                            User time (sec):      168.782
                          System time (sec):        1.022
                         Elapsed time (sec):      174.652
  
                   Maximum memory used (kb):      266036.
                   Average memory used (kb):          N/A
  
                          Minor page faults:       136257
                          Major page faults:           71
                 Voluntary context switches:        38465
