 running  128 mpi-ranks, with    1 threads/rank, on    2 nodes
 distrk:  each k-point on   64 cores,    2 groups
 distr:  one band on    8 cores,    8 groups
 vasp.6.4.2 20Jul23 (build Oct 12 2023 10:31:02) complex                         
 POSCAR found type information on POSCAR GeSe
 POSCAR found :  2 types and      72 ions
 Reading from existing POTCAR
 -----------------------------------------------------------------------------
|                                                                             |
|           W    W    AA    RRRRR   N    N  II  N    N   GGGG   !!!           |
|           W    W   A  A   R    R  NN   N  II  NN   N  G    G  !!!           |
|           W    W  A    A  R    R  N N  N  II  N N  N  G       !!!           |
|           W WW W  AAAAAA  RRRRR   N  N N  II  N  N N  G  GGG   !            |
|           WW  WW  A    A  R   R   N   NN  II  N   NN  G    G                |
|           W    W  A    A  R    R  N    N  II  N    N   GGGG   !!!           |
|                                                                             |
|     You use a magnetic or noncollinear calculation, but did not specify     |
|     the initial magnetic moment with the MAGMOM tag. Note that a            |
|     default of 1 will be used for all atoms. This ferromagnetic setup       |
|     may break the symmetry of the crystal, in particular it may rule        |
|     out finding an antiferromagnetic solution. Thence, we recommend         |
|     setting the initial magnetic moment manually or verifying carefully     |
|     that this magnetic setup is desired.                                    |
|                                                                             |
 -----------------------------------------------------------------------------

 scaLAPACK will be used
 Reading from existing POTCAR
 -----------------------------------------------------------------------------
|                                                                             |
|               ----> ADVICE to this user running VASP <----                  |
|                                                                             |
|     You have a (more or less) 'large supercell' and for larger cells it     |
|     might be more efficient to use real-space projection operators.         |
|     Therefore, try LREAL= Auto in the INCAR file.                           |
|     Mind: For very accurate calculation, you might also keep the            |
|     reciprocal projection scheme (i.e. LREAL=.FALSE.).                      |
|                                                                             |
 -----------------------------------------------------------------------------

 LDA part: xc-table for Pade appr. of Perdew
 -----------------------------------------------------------------------------
|                                                                             |
|           W    W    AA    RRRRR   N    N  II  N    N   GGGG   !!!           |
|           W    W   A  A   R    R  NN   N  II  NN   N  G    G  !!!           |
|           W    W  A    A  R    R  N N  N  II  N N  N  G       !!!           |
|           W WW W  AAAAAA  RRRRR   N  N N  II  N  N N  G  GGG   !            |
|           WW  WW  A    A  R   R   N   NN  II  N   NN  G    G                |
|           W    W  A    A  R    R  N    N  II  N    N   GGGG   !!!           |
|                                                                             |
|     The number of bands has been changed from the values supplied in        |
|     the INCAR file. This is a result of running the parallel version.       |
|     The orbitals not found in the WAVECAR file will be initialized with     |
|     random numbers, which is usually adequate. For correlated               |
|     calculations, however, you should redo the groundstate calculation.     |
|     I found NBANDS = 220. Now, NBANDS = 224.                                |
|                                                                             |
 -----------------------------------------------------------------------------

 POSCAR, INCAR and KPOINTS ok, starting setup
 FFT: planning ... GRIDC
 FFT: planning ... GRID_SOFT
 FFT: planning ... GRID
 WAVECAR not read
 WARNING: random wavefunctions but no delay for mixing, default for NELMDL
 entering main loop
       N       E                     dE             d eps       ncg     rms          rms(c)
DAV:   1     0.181629517079E+04    0.18163E+04   -0.14188E+05  7168   0.135E+03
DAV:   2    -0.637723653979E+02   -0.18801E+04   -0.18057E+04  8448   0.205E+02
DAV:   3    -0.281441647035E+03   -0.21767E+03   -0.21180E+03  8584   0.691E+01
DAV:   4    -0.289506240696E+03   -0.80646E+01   -0.79712E+01  8680   0.131E+01
DAV:   5    -0.289818299538E+03   -0.31206E+00   -0.31124E+00  9072   0.218E+00    0.292E+01
DAV:   6    -0.289469591654E+03    0.34871E+00   -0.26527E+01  7904   0.762E+00    0.173E+01
DAV:   7    -0.296837338174E+03   -0.73677E+01   -0.85618E+00  8032   0.447E+00    0.910E+00
DAV:   8    -0.300064092133E+03   -0.32268E+01   -0.17581E+00  8168   0.227E+00    0.326E+00
DAV:   9    -0.300427369460E+03   -0.36328E+00   -0.41074E-01  9072   0.100E+00    0.146E+00
DAV:  10    -0.300528638601E+03   -0.10127E+00   -0.90583E-02  8160   0.455E-01    0.728E-01
DAV:  11    -0.300560122233E+03   -0.31484E-01   -0.35931E-02  8848   0.281E-01    0.283E-01
DAV:  12    -0.300563353354E+03   -0.32311E-02   -0.45089E-03  8648   0.117E-01    0.102E-01
DAV:  13    -0.300563443834E+03   -0.90479E-04   -0.54537E-04  9752   0.365E-02    0.429E-02
DAV:  14    -0.300563457221E+03   -0.13388E-04   -0.86688E-05  8280   0.184E-02    0.163E-02
DAV:  15    -0.300563460449E+03   -0.32278E-05   -0.16956E-05  8544   0.898E-03    0.713E-03
DAV:  16    -0.300563461101E+03   -0.65142E-06   -0.14715E-06  4840   0.282E-03
   1 F= -.30056346E+03 E0= -.30056346E+03  d E =-.337103E-13  mag=     0.0004
