 running  160 mpi-ranks, with    1 threads/rank, on   10 nodes
 distrk:  each k-point on   80 cores,    2 groups
 distr:  one band on    5 cores,   16 groups
 vasp.6.4.2 20Jul23 (build Oct 12 2023 10:31:02) complex                         
 POSCAR found type information on POSCAR GeSe
 POSCAR found :  2 types and       8 ions
 Reading from existing POTCAR
 scaLAPACK will be used
 Reading from existing POTCAR
 LDA part: xc-table for Pade appr. of Perdew
 POSCAR, INCAR and KPOINTS ok, starting setup
 FFT: planning ... GRIDC
 FFT: planning ... GRID_SOFT
 FFT: planning ... GRID
 WAVECAR not read
 entering main loop
       N       E                     dE             d eps       ncg     rms          rms(c)
DAV:   1     0.133292645089E+03    0.13329E+03   -0.13017E+04  2560   0.779E+02
DAV:   2    -0.245442935938E+02   -0.15784E+03   -0.15346E+03  3776   0.142E+02
DAV:   3    -0.330321360923E+02   -0.84878E+01   -0.84716E+01  3184   0.380E+01
DAV:   4    -0.330903822813E+02   -0.58246E-01   -0.58234E-01  3456   0.357E+00
DAV:   5    -0.330907608005E+02   -0.37852E-03   -0.37851E-03  3136   0.279E-01    0.710E+00
DAV:   6    -0.327335039973E+02    0.35726E+00   -0.69809E-01  3136   0.281E+00    0.447E+00
DAV:   7    -0.327252510466E+02    0.82530E-02   -0.23727E-01  3456   0.170E+00    0.125E+00
DAV:   8    -0.327225266359E+02    0.27244E-02   -0.28748E-02  2976   0.631E-01    0.157E-01
DAV:   9    -0.327228540545E+02   -0.32742E-03   -0.30638E-03  3088   0.250E-01    0.595E-02
DAV:  10    -0.327229793616E+02   -0.12531E-03   -0.23055E-04  3376   0.646E-02    0.245E-02
DAV:  11    -0.327230216564E+02   -0.42295E-04   -0.46923E-05  2960   0.298E-02    0.941E-03
DAV:  12    -0.327230250904E+02   -0.34340E-05   -0.67733E-06  3408   0.110E-02    0.281E-03
DAV:  13    -0.327230255634E+02   -0.47293E-06   -0.98122E-07  2016   0.431E-03
   1 F= -.32723026E+02 E0= -.32722419E+02  d E =-.121295E-02
