 vasp.6.4.2 20Jul23 (build Oct 12 2023 10:31:02) complex                         
 executed on              LinuxNV date 2025.05.28  04:45:42
 running  128 mpi-ranks, with    1 threads/rank, on    2 nodes
 distrk:  each k-point on   64 cores,    2 groups
 distr:  one band on NCORE=   4 cores,   16 groups


--------------------------------------------------------------------------------------------------------


 INCAR:
   ENCUT = 360.000000
   SIGMA = 0.050000
   EDIFF = 1.00e-06
   ALGO = Normal
   GGA = PE
   PREC = Normal
   SYSTEM = ./
   ICHARG = 2
   ISMEAR = 0
   ISPIN = 1
   ISTART = 0
   ISYM = 0
   KPAR = 2
   LMAXMIX = 4
   NELM = 100
   NPAR = 16
   LASPH = .TRUE.
   LCHARG = .FALSE.
   LWAVE = .FALSE.

 POTCAR:    PAW_PBE Ge 05Jan2001                  
 POTCAR:    PAW_PBE Se 06Sep2000                  
 POTCAR:    PAW_PBE Ge 05Jan2001                  
   VRHFIN =Ge: s2p2                                                                                 
   LEXCH  = PE                                                                                      
   EATOM  =   104.9960 eV,    7.7170 Ry                                                             
                                                                                                    
   TITEL  = PAW_PBE Ge 05Jan2001                                                                    
   LULTRA =        F    use ultrasoft PP ?                                                          
   IUNSCR =        1    unscreen: 0-lin 1-nonlin 2-no                                               
   RPACOR =    2.170    partial core radius                                                         
   POMASS =   72.610; ZVAL   =    4.000    mass and valenz                                          
   RCORE  =    2.300    outmost cutoff radius                                                       
   RWIGS  =    2.300; RWIGS  =    1.217    wigner-seitz radius (au A)                               
   ENMAX  =  173.807; ENMIN  =  130.355 eV                                                          
   ICORE  =        3    local potential                                                             
   LCOR   =        T    correct aug charges                                                         
   LPAW   =        T    paw PP                                                                      
   EAUG   =  385.843                                                                                
   DEXC   =    0.000                                                                                
   RMAX   =    2.342    core radius for proj-oper                                                   
   RAUG   =    1.300    factor for augmentation sphere                                              
   RDEP   =    2.318    radius for radial grids                                                     
   RDEPT  =    2.103    core radius for aug-charge                                                  
                                                                                                    
   Atomic configuration                                                                             
   10 entries                                                                                       
     n  l   j            E        occ.                                                              
     1  0  0.50    -10959.8463   2.0000                                                             
     2  0  0.50     -1371.6056   2.0000                                                             
     2  1  1.50     -1198.4791   6.0000                                                             
     3  0  0.50      -168.4733   2.0000                                                             
     3  1  1.50      -115.6019   6.0000                                                             
     3  2  2.50       -29.3106  10.0000                                                             
     4  0  0.50       -11.7309   2.0000                                                             
     4  1  0.50        -3.8952   2.0000                                                             
     4  2  1.50        -4.0817   0.0000                                                             
     4  3  2.50        -4.0817   0.0000                                                             
   Description                                                                                      
     l       E           TYP  RCUT    TYP  RCUT                                                     
     0    -11.7309493     23  2.300                                                                 
     0     -7.4578696     23  2.300                                                                 
     1     -3.8952261     23  2.300                                                                 
     1      6.1178114     23  2.300                                                                 
     2     -4.0817478     23  2.300                                                                 
     3     -1.3605826      7  2.300                                                                 
  local pseudopotential read in
  partial core-charges read in
  partial kinetic energy density read in
  atomic valenz-charges read in
  non local Contribution for L=            0  read in
    real space projection operators read in
  non local Contribution for L=            0  read in
    real space projection operators read in
  non local Contribution for L=            1  read in
    real space projection operators read in
  non local Contribution for L=            1  read in
    real space projection operators read in
  non local Contribution for L=            2  read in
    real space projection operators read in
    PAW grid and wavefunctions read in
 
   number of l-projection  operators is LMAX  =            5
   number of lm-projection operators is LMMAX =           13
 
 POTCAR:    PAW_PBE Se 06Sep2000                  
   VRHFIN =Se: s2p4                                                                                 
   LEXCH  = PE                                                                                      
   EATOM  =   257.1286 eV,   18.8984 Ry                                                             
                                                                                                    
   TITEL  = PAW_PBE Se 06Sep2000                                                                    
   LULTRA =        F    use ultrasoft PP ?                                                          
   IUNSCR =        1    unscreen: 0-lin 1-nonlin 2-no                                               
   RPACOR =    1.900    partial core radius                                                         
   POMASS =   78.960; ZVAL   =    6.000    mass and valenz                                          
   RCORE  =    2.100    outmost cutoff radius                                                       
   RWIGS  =    2.200; RWIGS  =    1.164    wigner-seitz radius (au A)                               
   ENMAX  =  211.555; ENMIN  =  158.666 eV                                                          
   ICORE  =        3    local potential                                                             
   LCOR   =        T    correct aug charges                                                         
   LPAW   =        T    paw PP                                                                      
   EAUG   =  446.842                                                                                
   DEXC   =    0.000                                                                                
   RMAX   =    2.147    core radius for proj-oper                                                   
   RAUG   =    1.300    factor for augmentation sphere                                              
   RDEP   =    2.177    radius for radial grids                                                     
   RDEPT  =    1.928    core radius for aug-charge                                                  
                                                                                                    
   Atomic configuration                                                                             
   10 entries                                                                                       
     n  l   j            E        occ.                                                              
     1  0  0.50    -12503.4787   2.0000                                                             
     2  0  0.50     -1606.9547   2.0000                                                             
     2  1  1.50     -1413.3140   6.0000                                                             
     3  0  0.50      -213.4885   2.0000                                                             
     3  1  1.50      -152.9538   6.0000                                                             
     3  2  2.50       -53.1221  10.0000                                                             
     4  0  0.50       -17.2865   2.0000                                                             
     4  1  0.50        -6.5110   4.0000                                                             
     4  2  2.50        -6.8029   0.0000                                                             
     4  3  2.50        -6.8029   0.0000                                                             
   Description                                                                                      
     l       E           TYP  RCUT    TYP  RCUT                                                     
     0    -17.2865377     23  2.100                                                                 
     0    -15.3094411     23  2.100                                                                 
     1     -6.5110275     23  2.100                                                                 
     1     -0.0695192     23  2.100                                                                 
     2     -6.8029130     23  2.100                                                                 
     3     -1.3605826      7  2.100                                                                 
  local pseudopotential read in
  partial core-charges read in
  partial kinetic energy density read in
  atomic valenz-charges read in
  non local Contribution for L=            0  read in
    real space projection operators read in
  non local Contribution for L=            0  read in
    real space projection operators read in
  non local Contribution for L=            1  read in
    real space projection operators read in
  non local Contribution for L=            1  read in
    real space projection operators read in
  non local Contribution for L=            2  read in
    real space projection operators read in
    PAW grid and wavefunctions read in
 
   number of l-projection  operators is LMAX  =            5
   number of lm-projection operators is LMMAX =           13
 
  PAW_PBE Ge 05Jan2001                  :
 energy of atom  1       EATOM= -104.9960
 kinetic energy error for atom=    0.0005 (will be added to EATOM!!)
  PAW_PBE Se 06Sep2000                  :
 energy of atom  2       EATOM= -257.1286
 kinetic energy error for atom=    0.0030 (will be added to EATOM!!)
 
 
 POSCAR: Ge Se
  positions in cartesian coordinates
  No initial velocities read in
 exchange correlation table for  LEXCH =        8
   RHO(1)=    0.500       N(1)  =     2000
   RHO(2)=  100.500       N(2)  =     4000
 


--------------------------------------------------------------------------------------------------------


 ion  position               nearest neighbor table
   1  0.101  0.250  0.124-   6 2.58   6 2.58   5 2.60
   2  0.601  0.750  0.376-   5 2.58   5 2.58   6 2.60
   3  0.899  0.750  0.876-   8 2.58   8 2.58   7 2.60
   4  0.399  0.250  0.624-   7 2.58   7 2.58   8 2.60
   5  0.019  0.250  0.356-   2 2.58   2 2.58   1 2.60
   6  0.519  0.750  0.144-   1 2.58   1 2.58   2 2.60
   7  0.981  0.750  0.644-   4 2.58   4 2.58   3 2.60
   8  0.481  0.250  0.856-   3 2.58   3 2.58   4 2.60
 

IMPORTANT INFORMATION: All symmetrisations will be switched off!
NOSYMM: (Re-)initialisation of all symmetry stuff for point group C_1.


----------------------------------------------------------------------------------------

                                     Primitive cell                                     

  volume of cell :     175.7128

  direct lattice vectors                    reciprocal lattice vectors
     4.150000000  0.000000000  0.000000000     0.240963855  0.000000000  0.000000000
     0.000000000  3.800000000  0.000000000     0.000000000  0.263157895  0.000000000
     0.000000000  0.000000000 11.142221000     0.000000000  0.000000000  0.089748713

  length of vectors
     4.150000000  3.800000000 11.142221000     0.240963855  0.263157895  0.089748713

  position of ions in fractional coordinates (direct lattice)
     0.101495396  0.250000000  0.124142417
     0.601495396  0.750000000  0.375857583
     0.898504604  0.750000000  0.875857583
     0.398504604  0.250000000  0.624142417
     0.018668998  0.250000000  0.355775154
     0.518668998  0.750000000  0.144224846
     0.981331002  0.750000000  0.644224846
     0.481331002  0.250000000  0.855775154

  ion indices of the primitive-cell ions
   primitive index   ion index
                 1           1
                 2           2
                 3           3
                 4           4
                 5           5
                 6           6
                 7           7
                 8           8

----------------------------------------------------------------------------------------

 
 
 KPOINTS: KPOINTS created by Atomic Simulation Env

Automatic generation of k-mesh.
 Grid dimensions read from file:
 generate k-points for:    6    6    2

 Generating k-lattice:

  Cartesian coordinates                     Fractional coordinates (reciprocal lattice)
     0.040160643  0.000000000  0.000000000     0.166666667  0.000000000  0.000000000
     0.000000000  0.043859649  0.000000000     0.000000000  0.166666667  0.000000000
     0.000000000  0.000000000  0.044874357     0.000000000  0.000000000  0.500000000

  Length of vectors
     0.040160643  0.043859649  0.044874357

  Shift w.r.t. Gamma in fractional coordinates (k-lattice)
     0.000000000  0.000000000  0.000000000

 
 Subroutine IBZKPT returns following result:
 ===========================================
 
 Found     40 irreducible k-points:
 
 Following reciprocal coordinates:
            Coordinates               Weight
  0.000000  0.000000  0.000000      1.000000
  0.166667  0.000000  0.000000      2.000000
  0.333333  0.000000  0.000000      2.000000
  0.500000  0.000000  0.000000      1.000000
  0.000000  0.166667  0.000000      2.000000
  0.166667  0.166667  0.000000      2.000000
 -0.166667  0.166667  0.000000      2.000000
  0.333333  0.166667  0.000000      2.000000
 -0.333333  0.166667  0.000000      2.000000
  0.500000  0.166667  0.000000      2.000000
  0.000000  0.333333  0.000000      2.000000
  0.166667  0.333333  0.000000      2.000000
 -0.166667  0.333333  0.000000      2.000000
  0.333333  0.333333  0.000000      2.000000
 -0.333333  0.333333  0.000000      2.000000
  0.500000  0.333333  0.000000      2.000000
  0.000000  0.500000  0.000000      1.000000
  0.166667  0.500000  0.000000      2.000000
  0.333333  0.500000  0.000000      2.000000
  0.500000  0.500000  0.000000      1.000000
  0.000000  0.000000  0.500000      1.000000
  0.166667  0.000000  0.500000      2.000000
  0.333333  0.000000  0.500000      2.000000
  0.500000  0.000000  0.500000      1.000000
  0.000000  0.166667  0.500000      2.000000
  0.166667  0.166667  0.500000      2.000000
 -0.166667  0.166667  0.500000      2.000000
  0.333333  0.166667  0.500000      2.000000
 -0.333333  0.166667  0.500000      2.000000
  0.500000  0.166667  0.500000      2.000000
  0.000000  0.333333  0.500000      2.000000
  0.166667  0.333333  0.500000      2.000000
 -0.166667  0.333333  0.500000      2.000000
  0.333333  0.333333  0.500000      2.000000
 -0.333333  0.333333  0.500000      2.000000
  0.500000  0.333333  0.500000      2.000000
  0.000000  0.500000  0.500000      1.000000
  0.166667  0.500000  0.500000      2.000000
  0.333333  0.500000  0.500000      2.000000
  0.500000  0.500000  0.500000      1.000000
 
 Following cartesian coordinates:
            Coordinates               Weight
  0.000000  0.000000  0.000000      1.000000
  0.040161  0.000000  0.000000      2.000000
  0.080321  0.000000  0.000000      2.000000
  0.120482  0.000000  0.000000      1.000000
  0.000000  0.043860  0.000000      2.000000
  0.040161  0.043860  0.000000      2.000000
 -0.040161  0.043860  0.000000      2.000000
  0.080321  0.043860  0.000000      2.000000
 -0.080321  0.043860  0.000000      2.000000
  0.120482  0.043860  0.000000      2.000000
  0.000000  0.087719  0.000000      2.000000
  0.040161  0.087719  0.000000      2.000000
 -0.040161  0.087719  0.000000      2.000000
  0.080321  0.087719  0.000000      2.000000
 -0.080321  0.087719  0.000000      2.000000
  0.120482  0.087719  0.000000      2.000000
  0.000000  0.131579  0.000000      1.000000
  0.040161  0.131579  0.000000      2.000000
  0.080321  0.131579  0.000000      2.000000
  0.120482  0.131579  0.000000      1.000000
  0.000000  0.000000  0.044874      1.000000
  0.040161  0.000000  0.044874      2.000000
  0.080321  0.000000  0.044874      2.000000
  0.120482  0.000000  0.044874      1.000000
  0.000000  0.043860  0.044874      2.000000
  0.040161  0.043860  0.044874      2.000000
 -0.040161  0.043860  0.044874      2.000000
  0.080321  0.043860  0.044874      2.000000
 -0.080321  0.043860  0.044874      2.000000
  0.120482  0.043860  0.044874      2.000000
  0.000000  0.087719  0.044874      2.000000
  0.040161  0.087719  0.044874      2.000000
 -0.040161  0.087719  0.044874      2.000000
  0.080321  0.087719  0.044874      2.000000
 -0.080321  0.087719  0.044874      2.000000
  0.120482  0.087719  0.044874      2.000000
  0.000000  0.131579  0.044874      1.000000
  0.040161  0.131579  0.044874      2.000000
  0.080321  0.131579  0.044874      2.000000
  0.120482  0.131579  0.044874      1.000000
 


--------------------------------------------------------------------------------------------------------




 Dimension of arrays:
   k-points           NKPTS =     40   k-points in BZ     NKDIM =     40   number of bands    NBANDS=     32
   number of dos      NEDOS =    301   number of ions     NIONS =      8
   non local maximal  LDIM  =      5   non local SUM 2l+1 LMDIM =     13
   total plane-waves  NPLWV =  19440
   max r-space proj   IRMAX =      1   max aug-charges    IRDMAX=   6212
   dimension x,y,z NGX =    20 NGY =   18 NGZ =   54
   dimension x,y,z NGXF=    40 NGYF=   36 NGZF=  108
   support grid    NGXF=    40 NGYF=   36 NGZF=  108
   ions per type =               4   4
   NGX,Y,Z   is equivalent  to a cutoff of   8.01,  7.87,  8.06 a.u.
   NGXF,Y,Z  is equivalent  to a cutoff of  16.02, 15.75, 16.11 a.u.

 SYSTEM =  ./                                      
 POSCAR =  Ge Se                                   

 Startparameter for this run:
   NWRITE =      2    write-flag & timer
   PREC   = normal    normal or accurate (medium, high low for compatibility)
   ISTART =      0    job   : 0-new  1-cont  2-samecut
   ICHARG =      2    charge: 1-file 2-atom 10-const
   ISPIN  =      1    spin polarized calculation?
   LNONCOLLINEAR =      F non collinear calculations
   LSORBIT =      F    spin-orbit coupling
   INIWAV =      1    electr: 0-lowe 1-rand  2-diag
   LASPH  =      T    aspherical Exc in radial PAW
 Electronic Relaxation 1
   ENCUT  =  360.0 eV  26.46 Ry    5.14 a.u.   6.42  5.88 17.24*2*pi/ulx,y,z
   ENINI  =  360.0     initial cutoff
   ENAUG  =  446.8 eV  augmentation charge cutoff
   NELM   =    100;   NELMIN=  2; NELMDL= -5     # of ELM steps 
   EDIFF  = 0.1E-05   stopping-criterion for ELM
   LREAL  =      F    real-space projection
   NLSPLINE    = F    spline interpolate recip. space projectors
   LCOMPAT=      F    compatible to vasp.4.4
   GGA_COMPAT  = T    GGA compatible to vasp.4.4-vasp.4.6
   LMAXPAW     = -100 max onsite density
   LMAXMIX     =    4 max onsite mixed and CHGCAR
   VOSKOWN=      0    Vosko Wilk Nusair interpolation
   ROPT   =    0.00000   0.00000
 Ionic relaxation
   EDIFFG = 0.1E-04   stopping-criterion for IOM
   NSW    =      0    number of steps for IOM
   NBLOCK =      1;   KBLOCK =      1    inner block; outer block 
   IBRION =     -1    ionic relax: 0-MD 1-quasi-New 2-CG
   NFREE  =      0    steps in history (QN), initial steepest desc. (CG)
   ISIF   =      2    stress and relaxation
   IWAVPR =     10    prediction:  0-non 1-charg 2-wave 3-comb
   ISYM   =      0    0-nonsym 1-usesym 2-fastsym
   LCORR  =      T    Harris-Foulkes like correction to forces

   POTIM  = 0.5000    time-step for ionic-motion
   TEIN   =    0.0    initial temperature
   TEBEG  =    0.0;   TEEND  =   0.0 temperature during run
   SMASS  =  -3.00    Nose mass-parameter (am)
   estimated Nose-frequenzy (Omega)   =  0.10E-29 period in steps = 0.13E+47 mass=  -0.394E-27a.u.
   SCALEE = 1.0000    scale energy and forces
   NPACO  =    256;   APACO  = 10.0  distance and # of slots for P.C.
   PSTRESS=    0.0 pullay stress

  Mass of Ions in am
   POMASS =  72.61 78.96
  Ionic Valenz
   ZVAL   =   4.00  6.00
  Atomic Wigner-Seitz radii
   RWIGS  =  -1.00 -1.00
  virtual crystal weights 
   VCA    =   1.00  1.00
   NELECT =      40.0000    total number of electrons
   NUPDOWN=      -1.0000    fix difference up-down

 DOS related values:
   EMIN   =  10.00;   EMAX   =-10.00  energy-range for DOS
   EFERMI =   0.00;   METHOD = LEGACY      
   ISMEAR =     0;   SIGMA  =   0.05  broadening in eV -4-tet -1-fermi 0-gaus

 Electronic relaxation 2 (details)
   IALGO  =     38    algorithm
   LDIAG  =      T    sub-space diagonalisation (order eigenvalues)
   LSUBROT=      F    optimize rotation matrix (better conditioning)
   TURBO    =      0    0=normal 1=particle mesh
   IRESTART =      0    0=no restart 2=restart with 2 vectors
   NREBOOT  =      0    no. of reboots
   NMIN     =      0    reboot dimension
   EREF     =   0.00    reference energy to select bands
   IMIX   =      4    mixing-type and parameters
     AMIX     =   0.40;   BMIX     =  1.00
     AMIX_MAG =   1.60;   BMIX_MAG =  1.00
     AMIN     =   0.10
     WC   =   100.;   INIMIX=   1;  MIXPRE=   1;  MAXMIX= -45

 Intra band minimization:
   WEIMIN = 0.0000     energy-eigenvalue tresh-hold
   EBREAK =  0.78E-08  absolut break condition
   DEPER  =   0.30     relativ break condition  

   TIME   =   0.40     timestep for ELM

  volume/ion in A,a.u.               =      21.96       148.22
  Fermi-wavevector in a.u.,A,eV,Ry     =   0.999602  1.888973 13.594991  0.999204
  Thomas-Fermi vector in A             =   2.131903
 
 Write flags
   LWAVE        =      F    write WAVECAR
   LDOWNSAMPLE  =      F    k-point downsampling of WAVECAR
   LCHARG       =      F    write CHGCAR
   LVTOT        =      F    write LOCPOT, total local potential
   LVHAR        =      F    write LOCPOT, Hartree potential only
   LELF         =      F    write electronic localiz. function (ELF)
   LORBIT       =      0    0 simple, 1 ext, 2 COOP (PROOUT), +10 PAW based schemes


 Dipole corrections
   LMONO  =      F    monopole corrections only (constant potential shift)
   LDIPOL =      F    correct potential (dipole corrections)
   IDIPOL =      0    1-x, 2-y, 3-z, 4-all directions 
   EPSILON=  1.0000000 bulk dielectric constant

 Exchange correlation treatment:
   GGA     =    PE    GGA type
   LEXCH   =     8    internal setting for exchange type
   LIBXC   =     F    Libxc                    
   VOSKOWN =     0    Vosko Wilk Nusair interpolation
   LHFCALC =     F    Hartree Fock is set to
   LHFONE  =     F    Hartree Fock one center treatment
   AEXX    =    0.0000 exact exchange contribution

 Linear response parameters
   LEPSILON=     F    determine dielectric tensor
   LRPA    =     F    only Hartree local field effects (RPA)
   LNABLA  =     F    use nabla operator in PAW spheres
   LVEL    =     F    velocity operator in full k-point grid
   CSHIFT  =0.1000    complex shift for real part using Kramers Kronig
   OMEGAMAX=  -1.0    maximum frequency
   DEG_THRESHOLD= 0.2000000E-02 threshold for treating states as degnerate
   RTIME   =   -0.100 relaxation time in fs
  (WPLASMAI=    0.000 imaginary part of plasma frequency in eV, 0.658/RTIME)
   DFIELD  = 0.0000000 0.0000000 0.0000000 field for delta impulse in time
 
  Optional k-point grid parameters
   LKPOINTS_OPT  =     F    use optional k-point grid
   KPOINTS_OPT_MODE=     1    mode for optional k-point grid
 
 Orbital magnetization related:
   ORBITALMAG=     F  switch on orbital magnetization
   LCHIMAG   =     F  perturbation theory with respect to B field
   DQ        =  0.001000  dq finite difference perturbation B field
   LLRAUG    =     F  two centre corrections for induced B field
   LBONE     =     F  B-component reconstruction in AE one-centre
   LVGVCALC  =     T  calculate vGv susceptibility
   LVGVAPPL  =     F  apply vGv susceptibility instead of pGv for G=0

 Random number generation:
   RANDOM_GENERATOR = DEFAULT
   PCG_SEED         = not used


--------------------------------------------------------------------------------------------------------


 Static calculation
 charge density and potential will be updated during run
 non-spin polarized calculation
 Variant of blocked Davidson
 Davidson routine will perform the subspace rotation
 perform sub-space diagonalisation
    after iterative eigenvector-optimisation
 modified Broyden-mixing scheme, WC =      100.0
 initial mixing is a Kerker type mixing with AMIX =  0.4000 and BMIX =      1.0000
 Hartree-type preconditioning will be used
 using additional bands            12
 reciprocal scheme for non local part
 use partial core corrections
 calculate Harris-corrections to forces 
   (improved forces if not selfconsistent)
 use gradient corrections 
 use of overlap-Matrix (Vanderbilt PP)
 Gauss-broadening in eV      SIGMA  =   0.05


--------------------------------------------------------------------------------------------------------


  energy-cutoff  :      360.00
  volume of cell :      175.71
      direct lattice vectors                 reciprocal lattice vectors
     4.150000000  0.000000000  0.000000000     0.240963855  0.000000000  0.000000000
     0.000000000  3.800000000  0.000000000     0.000000000  0.263157895  0.000000000
     0.000000000  0.000000000 11.142221000     0.000000000  0.000000000  0.089748713

  length of vectors
     4.150000000  3.800000000 11.142221000     0.240963855  0.263157895  0.089748713


 
 k-points in units of 2pi/SCALE and weight: KPOINTS created by Atomic Simulation Env
   0.00000000  0.00000000  0.00000000       0.014
   0.04016064  0.00000000  0.00000000       0.028
   0.08032129  0.00000000  0.00000000       0.028
   0.12048193  0.00000000  0.00000000       0.014
   0.00000000  0.04385965  0.00000000       0.028
   0.04016064  0.04385965  0.00000000       0.028
  -0.04016064  0.04385965  0.00000000       0.028
   0.08032129  0.04385965  0.00000000       0.028
  -0.08032129  0.04385965  0.00000000       0.028
   0.12048193  0.04385965  0.00000000       0.028
   0.00000000  0.08771930  0.00000000       0.028
   0.04016064  0.08771930  0.00000000       0.028
  -0.04016064  0.08771930  0.00000000       0.028
   0.08032129  0.08771930  0.00000000       0.028
  -0.08032129  0.08771930  0.00000000       0.028
   0.12048193  0.08771930  0.00000000       0.028
   0.00000000  0.13157895  0.00000000       0.014
   0.04016064  0.13157895  0.00000000       0.028
   0.08032129  0.13157895  0.00000000       0.028
   0.12048193  0.13157895  0.00000000       0.014
   0.00000000  0.00000000  0.04487436       0.014
   0.04016064  0.00000000  0.04487436       0.028
   0.08032129  0.00000000  0.04487436       0.028
   0.12048193  0.00000000  0.04487436       0.014
   0.00000000  0.04385965  0.04487436       0.028
   0.04016064  0.04385965  0.04487436       0.028
  -0.04016064  0.04385965  0.04487436       0.028
   0.08032129  0.04385965  0.04487436       0.028
  -0.08032129  0.04385965  0.04487436       0.028
   0.12048193  0.04385965  0.04487436       0.028
   0.00000000  0.08771930  0.04487436       0.028
   0.04016064  0.08771930  0.04487436       0.028
  -0.04016064  0.08771930  0.04487436       0.028
   0.08032129  0.08771930  0.04487436       0.028
  -0.08032129  0.08771930  0.04487436       0.028
   0.12048193  0.08771930  0.04487436       0.028
   0.00000000  0.13157895  0.04487436       0.014
   0.04016064  0.13157895  0.04487436       0.028
   0.08032129  0.13157895  0.04487436       0.028
   0.12048193  0.13157895  0.04487436       0.014
 
 k-points in reciprocal lattice and weights: KPOINTS created by Atomic Simulation Env
   0.00000000  0.00000000  0.00000000       0.014
   0.16666667  0.00000000  0.00000000       0.028
   0.33333333  0.00000000  0.00000000       0.028
   0.50000000  0.00000000  0.00000000       0.014
   0.00000000  0.16666667  0.00000000       0.028
   0.16666667  0.16666667  0.00000000       0.028
  -0.16666667  0.16666667  0.00000000       0.028
   0.33333333  0.16666667  0.00000000       0.028
  -0.33333333  0.16666667  0.00000000       0.028
   0.50000000  0.16666667  0.00000000       0.028
   0.00000000  0.33333333  0.00000000       0.028
   0.16666667  0.33333333  0.00000000       0.028
  -0.16666667  0.33333333  0.00000000       0.028
   0.33333333  0.33333333  0.00000000       0.028
  -0.33333333  0.33333333  0.00000000       0.028
   0.50000000  0.33333333  0.00000000       0.028
   0.00000000  0.50000000  0.00000000       0.014
   0.16666667  0.50000000  0.00000000       0.028
   0.33333333  0.50000000  0.00000000       0.028
   0.50000000  0.50000000  0.00000000       0.014
   0.00000000  0.00000000  0.50000000       0.014
   0.16666667  0.00000000  0.50000000       0.028
   0.33333333  0.00000000  0.50000000       0.028
   0.50000000  0.00000000  0.50000000       0.014
   0.00000000  0.16666667  0.50000000       0.028
   0.16666667  0.16666667  0.50000000       0.028
  -0.16666667  0.16666667  0.50000000       0.028
   0.33333333  0.16666667  0.50000000       0.028
  -0.33333333  0.16666667  0.50000000       0.028
   0.50000000  0.16666667  0.50000000       0.028
   0.00000000  0.33333333  0.50000000       0.028
   0.16666667  0.33333333  0.50000000       0.028
  -0.16666667  0.33333333  0.50000000       0.028
   0.33333333  0.33333333  0.50000000       0.028
  -0.33333333  0.33333333  0.50000000       0.028
   0.50000000  0.33333333  0.50000000       0.028
   0.00000000  0.50000000  0.50000000       0.014
   0.16666667  0.50000000  0.50000000       0.028
   0.33333333  0.50000000  0.50000000       0.028
   0.50000000  0.50000000  0.50000000       0.014
 
 position of ions in fractional coordinates (direct lattice) 
   0.10149540  0.25000000  0.12414242
   0.60149540  0.75000000  0.37585758
   0.89850460  0.75000000  0.87585758
   0.39850460  0.25000000  0.62414242
   0.01866900  0.25000000  0.35577515
   0.51866900  0.75000000  0.14422485
   0.98133100  0.75000000  0.64422485
   0.48133100  0.25000000  0.85577515
 
 position of ions in cartesian coordinates  (Angst):
   0.42120589  0.95000000  1.38322225
   2.49620589  2.85000000  4.18788825
   3.72879411  2.85000000  9.75899875
   1.65379411  0.95000000  6.95433275
   0.07747634  0.95000000  3.96412539
   2.15247634  2.85000000  1.60698511
   4.07252366  2.85000000  7.17809561
   1.99752366  0.95000000  9.53523589
 


--------------------------------------------------------------------------------------------------------


 k-point   1 :   0.0000 0.0000 0.0000  plane waves:    2745
 k-point   2 :   0.1667 0.0000 0.0000  plane waves:    2719
 k-point   3 :   0.3333 0.0000 0.0000  plane waves:    2695
 k-point   4 :   0.5000 0.0000 0.0000  plane waves:    2692
 k-point   5 :   0.0000 0.1667 0.0000  plane waves:    2732
 k-point   6 :   0.1667 0.1667 0.0000  plane waves:    2724
 k-point   7 :  -0.1667 0.1667 0.0000  plane waves:    2724
 k-point   8 :   0.3333 0.1667 0.0000  plane waves:    2716
 k-point   9 :  -0.3333 0.1667 0.0000  plane waves:    2716
 k-point  10 :   0.5000 0.1667 0.0000  plane waves:    2718
 k-point  11 :   0.0000 0.3333 0.0000  plane waves:    2734
 k-point  12 :   0.1667 0.3333 0.0000  plane waves:    2744
 k-point  13 :  -0.1667 0.3333 0.0000  plane waves:    2744
 k-point  14 :   0.3333 0.3333 0.0000  plane waves:    2737
 k-point  15 :  -0.3333 0.3333 0.0000  plane waves:    2737
 k-point  16 :   0.5000 0.3333 0.0000  plane waves:    2726
 k-point  17 :   0.0000 0.5000 0.0000  plane waves:    2732
 k-point  18 :   0.1667 0.5000 0.0000  plane waves:    2732
 k-point  19 :   0.3333 0.5000 0.0000  plane waves:    2730
 k-point  20 :   0.5000 0.5000 0.0000  plane waves:    2732
 k-point  21 :   0.0000 0.0000 0.5000  plane waves:    2714
 k-point  22 :   0.1667 0.0000 0.5000  plane waves:    2736
 k-point  23 :   0.3333 0.0000 0.5000  plane waves:    2722
 k-point  24 :   0.5000 0.0000 0.5000  plane waves:    2708
 k-point  25 :   0.0000 0.1667 0.5000  plane waves:    2720
 k-point  26 :   0.1667 0.1667 0.5000  plane waves:    2728
 k-point  27 :  -0.1667 0.1667 0.5000  plane waves:    2728
 k-point  28 :   0.3333 0.1667 0.5000  plane waves:    2718
 k-point  29 :  -0.3333 0.1667 0.5000  plane waves:    2718
 k-point  30 :   0.5000 0.1667 0.5000  plane waves:    2716
 k-point  31 :   0.0000 0.3333 0.5000  plane waves:    2736
 k-point  32 :   0.1667 0.3333 0.5000  plane waves:    2726
 k-point  33 :  -0.1667 0.3333 0.5000  plane waves:    2726
 k-point  34 :   0.3333 0.3333 0.5000  plane waves:    2734
 k-point  35 :  -0.3333 0.3333 0.5000  plane waves:    2734
 k-point  36 :   0.5000 0.3333 0.5000  plane waves:    2728
 k-point  37 :   0.0000 0.5000 0.5000  plane waves:    2756
 k-point  38 :   0.1667 0.5000 0.5000  plane waves:    2732
 k-point  39 :   0.3333 0.5000 0.5000  plane waves:    2728
 k-point  40 :   0.5000 0.5000 0.5000  plane waves:    2728

 maximum and minimum number of plane-waves per node :       699      661

 maximum number of plane-waves:      2756
 maximum index in each direction: 
   IXMAX=    6   IYMAX=    5   IZMAX=   17
   IXMIN=   -6   IYMIN=   -6   IZMIN=  -17


 parallel 3D FFT for wavefunctions:
    minimum data exchange during FFTs selected (reduces bandwidth)
 parallel 3D FFT for charge:
    minimum data exchange during FFTs selected (reduces bandwidth)


 total amount of memory used by VASP MPI-rank0    37609. kBytes
=======================================================================

   base      :      30000. kBytes
   nonl-proj :       5947. kBytes
   fftplans  :        288. kBytes
   grid      :        416. kBytes
   one-center:         16. kBytes
   wavefun   :        942. kBytes
 
     INWAV:  cpu time      0.0000: real time      0.0001
 Broyden mixing: mesh for mixing (old mesh)
   NGX = 13   NGY = 11   NGZ = 35
  (NGX  = 40   NGY  = 36   NGZ  =108)
  gives a total of   5005 points

 initial charge density was supplied:
 charge density of overlapping atoms calculated
 number of electron      40.0000000 magnetization 
 keeping initial charge density in first step


--------------------------------------------------------------------------------------------------------


 Maximum index for augmentation-charges           339 (set IRDMAX)


--------------------------------------------------------------------------------------------------------


 First call to EWALD:  gamma=   0.316
 Maximum number of real-space cells 4x 4x 2
 Maximum number of reciprocal cells 2x 2x 5

    FEWALD:  cpu time      0.0008: real time      0.0008


--------------------------------------- Ionic step        1  -------------------------------------------




--------------------------------------- Iteration      1(   1)  ---------------------------------------


    POTLOK:  cpu time      0.0060: real time      0.0064
    SETDIJ:  cpu time      0.1378: real time      0.1382
     EDDAV:  cpu time      0.2606: real time      0.2633
       DOS:  cpu time      0.0017: real time      0.0017
    --------------------------------------------
      LOOP:  cpu time      0.4062: real time      0.4097

 eigenvalue-minimisations  :  2560
 total energy-change (2. order) : 0.1279899E+03  (-0.1309244E+04)
 number of electron      40.0000000 magnetization 
 augmentation part       40.0000000 magnetization 

 Free energy of the ion-electron system (eV)
  ---------------------------------------------------
  alpha Z        PSCENC =        96.43260487
  Ewald energy   TEWEN  =     -1479.29162652
  -Hartree energ DENC   =      -106.56820398
  -exchange      EXHF   =         0.00000000
  -V(xc)+E(xc)   XCENC  =       -32.20119977
  PAW double counting   =      1193.78262552    -1080.73714043
  entropy T*S    EENTRO =        -0.00221226
  eigenvalues    EBANDS =        88.09049288
  atomic energy  EATOM  =      1448.48460880
  Solvation  Ediel_sol  =         0.00000000
  ---------------------------------------------------
  free energy    TOTEN  =       127.98994912 eV

  energy without entropy =      127.99216138  energy(sigma->0) =      127.99105525


--------------------------------------------------------------------------------------------------------




--------------------------------------- Iteration      1(   2)  ---------------------------------------


     EDDAV:  cpu time      0.3161: real time      0.3195
       DOS:  cpu time      0.0009: real time      0.0009
    --------------------------------------------
      LOOP:  cpu time      0.3171: real time      0.3204

 eigenvalue-minimisations  :  3744
 total energy-change (2. order) :-0.1540297E+03  (-0.1494522E+03)
 number of electron      40.0000000 magnetization 
 augmentation part       40.0000000 magnetization 

 Free energy of the ion-electron system (eV)
  ---------------------------------------------------
  alpha Z        PSCENC =        96.43260487
  Ewald energy   TEWEN  =     -1479.29162652
  -Hartree energ DENC   =      -106.56820398
  -exchange      EXHF   =         0.00000000
  -V(xc)+E(xc)   XCENC  =       -32.20119977
  PAW double counting   =      1193.78262552    -1080.73714043
  entropy T*S    EENTRO =        -0.00002385
  eigenvalues    EBANDS =       -65.94144137
  atomic energy  EATOM  =      1448.48460880
  Solvation  Ediel_sol  =         0.00000000
  ---------------------------------------------------
  free energy    TOTEN  =       -26.03979673 eV

  energy without entropy =      -26.03977287  energy(sigma->0) =      -26.03978480


--------------------------------------------------------------------------------------------------------




--------------------------------------- Iteration      1(   3)  ---------------------------------------


     EDDAV:  cpu time      0.2889: real time      0.2921
       DOS:  cpu time      0.0009: real time      0.0009
    --------------------------------------------
      LOOP:  cpu time      0.2898: real time      0.2930

 eigenvalue-minimisations  :  3216
 total energy-change (2. order) :-0.7800058E+01  (-0.7785284E+01)
 number of electron      40.0000000 magnetization 
 augmentation part       40.0000000 magnetization 

 Free energy of the ion-electron system (eV)
  ---------------------------------------------------
  alpha Z        PSCENC =        96.43260487
  Ewald energy   TEWEN  =     -1479.29162652
  -Hartree energ DENC   =      -106.56820398
  -exchange      EXHF   =         0.00000000
  -V(xc)+E(xc)   XCENC  =       -32.20119977
  PAW double counting   =      1193.78262552    -1080.73714043
  entropy T*S    EENTRO =        -0.00000740
  eigenvalues    EBANDS =       -73.74151583
  atomic energy  EATOM  =      1448.48460880
  Solvation  Ediel_sol  =         0.00000000
  ---------------------------------------------------
  free energy    TOTEN  =       -33.83985474 eV

  energy without entropy =      -33.83984734  energy(sigma->0) =      -33.83985104


--------------------------------------------------------------------------------------------------------




--------------------------------------- Iteration      1(   4)  ---------------------------------------


     EDDAV:  cpu time      0.2915: real time      0.2945
       DOS:  cpu time      0.0009: real time      0.0009
    --------------------------------------------
      LOOP:  cpu time      0.2924: real time      0.2954

 eigenvalue-minimisations  :  3232
 total energy-change (2. order) :-0.4568349E-01  (-0.4567723E-01)
 number of electron      40.0000000 magnetization 
 augmentation part       40.0000000 magnetization 

 Free energy of the ion-electron system (eV)
  ---------------------------------------------------
  alpha Z        PSCENC =        96.43260487
  Ewald energy   TEWEN  =     -1479.29162652
  -Hartree energ DENC   =      -106.56820398
  -exchange      EXHF   =         0.00000000
  -V(xc)+E(xc)   XCENC  =       -32.20119977
  PAW double counting   =      1193.78262552    -1080.73714043
  entropy T*S    EENTRO =        -0.00000749
  eigenvalues    EBANDS =       -73.78719923
  atomic energy  EATOM  =      1448.48460880
  Solvation  Ediel_sol  =         0.00000000
  ---------------------------------------------------
  free energy    TOTEN  =       -33.88553823 eV

  energy without entropy =      -33.88553074  energy(sigma->0) =      -33.88553448


--------------------------------------------------------------------------------------------------------




--------------------------------------- Iteration      1(   5)  ---------------------------------------


     EDDAV:  cpu time      0.2829: real time      0.2858
       DOS:  cpu time      0.0009: real time      0.0009
    CHARGE:  cpu time      0.0038: real time      0.0038
    MIXING:  cpu time      0.0006: real time      0.0006
    --------------------------------------------
      LOOP:  cpu time      0.2882: real time      0.2911

 eigenvalue-minimisations  :  3136
 total energy-change (2. order) :-0.2670568E-03  (-0.2670015E-03)
 number of electron      39.9999960 magnetization 
 augmentation part       -7.4113032 magnetization 

 Broyden mixing:
  rms(total) = 0.68555E+00    rms(broyden)= 0.68554E+00
  rms(prec ) = 0.75221E+00
  weight for this iteration     100.00

 Free energy of the ion-electron system (eV)
  ---------------------------------------------------
  alpha Z        PSCENC =        96.43260487
  Ewald energy   TEWEN  =     -1479.29162652
  -Hartree energ DENC   =      -106.56820398
  -exchange      EXHF   =         0.00000000
  -V(xc)+E(xc)   XCENC  =       -32.20119977
  PAW double counting   =      1193.78262552    -1080.73714043
  entropy T*S    EENTRO =        -0.00000749
  eigenvalues    EBANDS =       -73.78746629
  atomic energy  EATOM  =      1448.48460880
  Solvation  Ediel_sol  =         0.00000000
  ---------------------------------------------------
  free energy    TOTEN  =       -33.88580529 eV

  energy without entropy =      -33.88579780  energy(sigma->0) =      -33.88580154


--------------------------------------------------------------------------------------------------------




--------------------------------------- Iteration      1(   6)  ---------------------------------------


    POTLOK:  cpu time      0.0051: real time      0.0053
    SETDIJ:  cpu time      0.1375: real time      0.1385
     EDDAV:  cpu time      0.2834: real time      0.2862
       DOS:  cpu time      0.0010: real time      0.0010
    CHARGE:  cpu time      0.0043: real time      0.0043
    MIXING:  cpu time      0.0005: real time      0.0005
    --------------------------------------------
      LOOP:  cpu time      0.4318: real time      0.4358

 eigenvalue-minimisations  :  3152
 total energy-change (2. order) : 0.3257436E+00  (-0.6259904E-01)
 number of electron      39.9999961 magnetization 
 augmentation part       -7.3602964 magnetization 

 Broyden mixing:
  rms(total) = 0.42992E+00    rms(broyden)= 0.42992E+00
  rms(prec ) = 0.44704E+00
  weight for this iteration     100.00

 eigenvalues of (default mixing * dielectric matrix)
  average eigenvalue GAMMA=   2.3106
  2.3106

 Free energy of the ion-electron system (eV)
  ---------------------------------------------------
  alpha Z        PSCENC =        96.43260487
  Ewald energy   TEWEN  =     -1479.29162652
  -Hartree energ DENC   =      -111.60510941
  -exchange      EXHF   =         0.00000000
  -V(xc)+E(xc)   XCENC  =       -31.64732621
  PAW double counting   =      1481.49109454    -1368.79064130
  entropy T*S    EENTRO =        -0.00156445
  eigenvalues    EBANDS =       -68.63210202
  atomic energy  EATOM  =      1448.48460880
  Solvation  Ediel_sol  =         0.00000000
  ---------------------------------------------------
  free energy    TOTEN  =       -33.56006169 eV

  energy without entropy =      -33.55849725  energy(sigma->0) =      -33.55927947


--------------------------------------------------------------------------------------------------------




--------------------------------------- Iteration      1(   7)  ---------------------------------------


    POTLOK:  cpu time      0.0074: real time      0.0077
    SETDIJ:  cpu time      0.1354: real time      0.1361
     EDDAV:  cpu time      0.2948: real time      0.2976
       DOS:  cpu time      0.0011: real time      0.0011
    CHARGE:  cpu time      0.0036: real time      0.0036
    MIXING:  cpu time      0.0005: real time      0.0005
    --------------------------------------------
      LOOP:  cpu time      0.4427: real time      0.4466

 eigenvalue-minimisations  :  3280
 total energy-change (2. order) : 0.7484639E-02  (-0.2174808E-01)
 number of electron      39.9999961 magnetization 
 augmentation part       -7.3441989 magnetization 

 Broyden mixing:
  rms(total) = 0.11446E+00    rms(broyden)= 0.11446E+00
  rms(prec ) = 0.12256E+00
  weight for this iteration     100.00

 eigenvalues of (default mixing * dielectric matrix)
  average eigenvalue GAMMA=   1.8252
  1.2500  2.4004

 Free energy of the ion-electron system (eV)
  ---------------------------------------------------
  alpha Z        PSCENC =        96.43260487
  Ewald energy   TEWEN  =     -1479.29162652
  -Hartree energ DENC   =      -114.09066043
  -exchange      EXHF   =         0.00000000
  -V(xc)+E(xc)   XCENC  =       -31.16896660
  PAW double counting   =      1872.85577652    -1760.45947477
  entropy T*S    EENTRO =        -0.00092444
  eigenvalues    EBANDS =       -66.31391448
  atomic energy  EATOM  =      1448.48460880
  Solvation  Ediel_sol  =         0.00000000
  ---------------------------------------------------
  free energy    TOTEN  =       -33.55257705 eV

  energy without entropy =      -33.55165261  energy(sigma->0) =      -33.55211483


--------------------------------------------------------------------------------------------------------




--------------------------------------- Iteration      1(   8)  ---------------------------------------


    POTLOK:  cpu time      0.0050: real time      0.0052
    SETDIJ:  cpu time      0.1377: real time      0.1384
     EDDAV:  cpu time      0.2698: real time      0.2726
       DOS:  cpu time      0.0010: real time      0.0010
    CHARGE:  cpu time      0.0042: real time      0.0042
    MIXING:  cpu time      0.0005: real time      0.0005
    --------------------------------------------
      LOOP:  cpu time      0.4181: real time      0.4219

 eigenvalue-minimisations  :  3024
 total energy-change (2. order) : 0.3400081E-02  (-0.2794463E-02)
 number of electron      39.9999961 magnetization 
 augmentation part       -7.3552999 magnetization 

 Broyden mixing:
  rms(total) = 0.16760E-01    rms(broyden)= 0.16760E-01
  rms(prec ) = 0.20083E-01
  weight for this iteration     100.00

 eigenvalues of (default mixing * dielectric matrix)
  average eigenvalue GAMMA=   1.7465
  2.5453  1.3472  1.3472

 Free energy of the ion-electron system (eV)
  ---------------------------------------------------
  alpha Z        PSCENC =        96.43260487
  Ewald energy   TEWEN  =     -1479.29162652
  -Hartree energ DENC   =      -113.74409861
  -exchange      EXHF   =         0.00000000
  -V(xc)+E(xc)   XCENC  =       -31.08670652
  PAW double counting   =      1995.77635644    -1883.43413007
  entropy T*S    EENTRO =        -0.00141306
  eigenvalues    EBANDS =       -66.68477230
  atomic energy  EATOM  =      1448.48460880
  Solvation  Ediel_sol  =         0.00000000
  ---------------------------------------------------
  free energy    TOTEN  =       -33.54917697 eV

  energy without entropy =      -33.54776391  energy(sigma->0) =      -33.54847044


--------------------------------------------------------------------------------------------------------




--------------------------------------- Iteration      1(   9)  ---------------------------------------


    POTLOK:  cpu time      0.0049: real time      0.0051
    SETDIJ:  cpu time      0.1374: real time      0.1381
     EDDAV:  cpu time      0.2980: real time      0.3010
       DOS:  cpu time      0.0011: real time      0.0011
    CHARGE:  cpu time      0.0034: real time      0.0035
    MIXING:  cpu time      0.0005: real time      0.0005
    --------------------------------------------
      LOOP:  cpu time      0.4453: real time      0.4492

 eigenvalue-minimisations  :  3296
 total energy-change (2. order) :-0.1940689E-03  (-0.3399461E-03)
 number of electron      39.9999961 magnetization 
 augmentation part       -7.3532378 magnetization 

 Broyden mixing:
  rms(total) = 0.61167E-02    rms(broyden)= 0.61167E-02
  rms(prec ) = 0.67738E-02
  weight for this iteration     100.00

 eigenvalues of (default mixing * dielectric matrix)
  average eigenvalue GAMMA=   1.6991
  2.2185  2.2185  1.1796  1.1796

 Free energy of the ion-electron system (eV)
  ---------------------------------------------------
  alpha Z        PSCENC =        96.43260487
  Ewald energy   TEWEN  =     -1479.29162652
  -Hartree energ DENC   =      -114.08413646
  -exchange      EXHF   =         0.00000000
  -V(xc)+E(xc)   XCENC  =       -31.04810308
  PAW double counting   =      2010.74308120    -1898.41394158
  entropy T*S    EENTRO =        -0.00132288
  eigenvalues    EBANDS =       -66.37053538
  atomic energy  EATOM  =      1448.48460880
  Solvation  Ediel_sol  =         0.00000000
  ---------------------------------------------------
  free energy    TOTEN  =       -33.54937104 eV

  energy without entropy =      -33.54804816  energy(sigma->0) =      -33.54870960


--------------------------------------------------------------------------------------------------------




--------------------------------------- Iteration      1(  10)  ---------------------------------------


    POTLOK:  cpu time      0.0048: real time      0.0050
    SETDIJ:  cpu time      0.1375: real time      0.1381
     EDDAV:  cpu time      0.2651: real time      0.2675
       DOS:  cpu time      0.0007: real time      0.0007
    CHARGE:  cpu time      0.0031: real time      0.0031
    MIXING:  cpu time      0.0005: real time      0.0005
    --------------------------------------------
      LOOP:  cpu time      0.4117: real time      0.4151

 eigenvalue-minimisations  :  2928
 total energy-change (2. order) :-0.1376040E-04  (-0.1818230E-04)
 number of electron      39.9999961 magnetization 
 augmentation part       -7.3535796 magnetization 

 Broyden mixing:
  rms(total) = 0.22740E-02    rms(broyden)= 0.22740E-02
  rms(prec ) = 0.26672E-02
  weight for this iteration     100.00

 eigenvalues of (default mixing * dielectric matrix)
  average eigenvalue GAMMA=   1.7497
  2.6741  2.4541  1.1942  1.1942  1.2319

 Free energy of the ion-electron system (eV)
  ---------------------------------------------------
  alpha Z        PSCENC =        96.43260487
  Ewald energy   TEWEN  =     -1479.29162652
  -Hartree energ DENC   =      -114.06282934
  -exchange      EXHF   =         0.00000000
  -V(xc)+E(xc)   XCENC  =       -31.05018407
  PAW double counting   =      2003.39490017    -1891.05972875
  entropy T*S    EENTRO =        -0.00135381
  eigenvalues    EBANDS =       -66.39577615
  atomic energy  EATOM  =      1448.48460880
  Solvation  Ediel_sol  =         0.00000000
  ---------------------------------------------------
  free energy    TOTEN  =       -33.54938480 eV

  energy without entropy =      -33.54803099  energy(sigma->0) =      -33.54870790


--------------------------------------------------------------------------------------------------------




--------------------------------------- Iteration      1(  11)  ---------------------------------------


    POTLOK:  cpu time      0.0034: real time      0.0035
    SETDIJ:  cpu time      0.1379: real time      0.1384
     EDDAV:  cpu time      0.2015: real time      0.2025
       DOS:  cpu time      0.0006: real time      0.0006
    CHARGE:  cpu time      0.0028: real time      0.0028
    MIXING:  cpu time      0.0003: real time      0.0003
    --------------------------------------------
      LOOP:  cpu time      0.3466: real time      0.3481

 eigenvalue-minimisations  :  3296
 total energy-change (2. order) :-0.2164042E-04  (-0.3355358E-05)
 number of electron      39.9999961 magnetization 
 augmentation part       -7.3537107 magnetization 

 Broyden mixing:
  rms(total) = 0.10191E-02    rms(broyden)= 0.10191E-02
  rms(prec ) = 0.11635E-02
  weight for this iteration     100.00

 eigenvalues of (default mixing * dielectric matrix)
  average eigenvalue GAMMA=   1.7204
  2.5906  2.2491  2.2491  1.1766  1.1766  0.8805

 Free energy of the ion-electron system (eV)
  ---------------------------------------------------
  alpha Z        PSCENC =        96.43260487
  Ewald energy   TEWEN  =     -1479.29162652
  -Hartree energ DENC   =      -114.08848517
  -exchange      EXHF   =         0.00000000
  -V(xc)+E(xc)   XCENC  =       -31.04444016
  PAW double counting   =      2004.60977672    -1892.27489900
  entropy T*S    EENTRO =        -0.00135850
  eigenvalues    EBANDS =       -66.37558748
  atomic energy  EATOM  =      1448.48460880
  Solvation  Ediel_sol  =         0.00000000
  ---------------------------------------------------
  free energy    TOTEN  =       -33.54940644 eV

  energy without entropy =      -33.54804794  energy(sigma->0) =      -33.54872719


--------------------------------------------------------------------------------------------------------




--------------------------------------- Iteration      1(  12)  ---------------------------------------


    POTLOK:  cpu time      0.0034: real time      0.0035
    SETDIJ:  cpu time      0.1369: real time      0.1373
     EDDAV:  cpu time      0.1809: real time      0.1818
       DOS:  cpu time      0.0006: real time      0.0006
    --------------------------------------------
      LOOP:  cpu time      0.3217: real time      0.3231

 eigenvalue-minimisations  :  3024
 total energy-change (2. order) : 0.1439832E-07  (-0.5349236E-06)
 number of electron      39.9999961 magnetization 
 augmentation part       -7.3537107 magnetization 

 Free energy of the ion-electron system (eV)
  ---------------------------------------------------
  alpha Z        PSCENC =        96.43260487
  Ewald energy   TEWEN  =     -1479.29162652
  -Hartree energ DENC   =      -114.10114803
  -exchange      EXHF   =         0.00000000
  -V(xc)+E(xc)   XCENC  =       -31.04337411
  PAW double counting   =      2004.35890446    -1892.02412007
  entropy T*S    EENTRO =        -0.00135243
  eigenvalues    EBANDS =       -66.36390339
  atomic energy  EATOM  =      1448.48460880
  Solvation  Ediel_sol  =         0.00000000
  ---------------------------------------------------
  free energy    TOTEN  =       -33.54940643 eV

  energy without entropy =      -33.54805400  energy(sigma->0) =      -33.54873021


--------------------------------------------------------------------------------------------------------




 average (electrostatic) potential at core
  the test charge radii are     1.1631  1.0808
  (the norm of the test charge is              1.0000)
       1 -32.6275       2 -32.6275       3 -32.6275       4 -32.6275       5 -54.1988
       6 -54.1988       7 -54.1988       8 -54.1988
 
 
 
 E-fermi :   4.3448     XC(G=0):  -9.7634     alpha+bet : -9.6069

 Fermi energy:         4.3448291667

 k-point     1 :       0.0000    0.0000    0.0000
  band No.  band energies     occupation 
      1     -10.5632      2.00000
      2     -10.1838      2.00000
      3      -9.2035      2.00000
      4      -8.5769      2.00000
      5      -3.5545      2.00000
      6      -2.9495      2.00000
      7      -1.7010      2.00000
      8      -1.2071      2.00000
      9      -1.1796      2.00000
     10       0.3397      2.00000
     11       0.3422      2.00000
     12       0.6641      2.00000
     13       0.6857      2.00000
     14       1.1013      2.00000
     15       1.9142      2.00000
     16       2.0446      2.00000
     17       2.4292      2.00000
     18       2.5869      2.00000
     19       3.3215      2.00000
     20       3.9878      2.00000
     21       4.4700      0.00040
     22       7.1021      0.00000
     23       7.2024      0.00000
     24       7.4299      0.00000
     25       7.6698      0.00000
     26       7.7906      0.00000
     27       8.2930      0.00000
     28       8.9541      0.00000
     29       9.5485      0.00000
     30       9.5942      0.00000
     31       9.7967      0.00000
     32      10.4798      0.00000

 k-point     2 :       0.1667    0.0000    0.0000
  band No.  band energies     occupation 
      1     -10.4039      2.00000
      2     -10.0316      2.00000
      3      -9.1477      2.00000
      4      -8.5743      2.00000
      5      -4.1816      2.00000
      6      -3.3538      2.00000
      7      -2.4605      2.00000
      8      -1.8428      2.00000
      9      -1.3160      2.00000
     10       0.6597      2.00000
     11       0.8608      2.00000
     12       1.1426      2.00000
     13       1.2881      2.00000
     14       1.3287      2.00000
     15       2.0439      2.00000
     16       2.5426      2.00000
     17       2.6704      2.00000
     18       3.1032      2.00000
     19       3.1950      2.00000
     20       3.9056      2.00000
     21       4.3256      1.41342
     22       6.6867      0.00000
     23       7.2436      0.00000
     24       7.3639      0.00000
     25       7.3641      0.00000
     26       7.5708      0.00000
     27       8.1758      0.00000
     28       8.1945      0.00000
     29       8.6021      0.00000
     30       9.0931      0.00000
     31       9.5572      0.00000
     32       9.5995      0.00000

 k-point     3 :       0.3333    0.0000    0.0000
  band No.  band energies     occupation 
      1      -9.9690      2.00000
      2      -9.6149      2.00000
      3      -9.1247      2.00000
      4      -8.6853      2.00000
      5      -4.9449      2.00000
      6      -3.9200      2.00000
      7      -3.9120      2.00000
      8      -2.9443      2.00000
      9      -0.7772      2.00000
     10       1.0249      2.00000
     11       1.4026      2.00000
     12       1.7967      2.00000
     13       1.9302      2.00000
     14       2.1971      2.00000
     15       2.2695      2.00000
     16       2.7408      2.00000
     17       2.8581      2.00000
     18       3.4641      2.00000
     19       3.8334      2.00000
     20       4.3641      0.58638
     21       4.9441      0.00000
     22       5.3631      0.00000
     23       5.8926      0.00000
     24       6.1615      0.00000
     25       6.8537      0.00000
     26       7.0449      0.00000
     27       7.1191      0.00000
     28       7.5740      0.00000
     29       7.6088      0.00000
     30       8.1150      0.00000
     31       9.1149      0.00000
     32      10.0915      0.00000

 k-point     4 :       0.5000    0.0000    0.0000
  band No.  band energies     occupation 
      1      -9.4302      2.00000
      2      -9.4302      2.00000
      3      -9.0786      2.00000
      4      -9.0786      2.00000
      5      -4.8782      2.00000
      6      -4.8782      2.00000
      7      -3.7855      2.00000
      8      -3.7855      2.00000
      9       0.1401      2.00000
     10       0.1401      2.00000
     11       2.0594      2.00000
     12       2.0594      2.00000
     13       2.4143      2.00000
     14       2.4143      2.00000
     15       2.5774      2.00000
     16       2.5774      2.00000
     17       3.5039      2.00000
     18       3.5039      2.00000
     19       3.9850      2.00000
     20       3.9850      2.00000
     21       5.5890      0.00000
     22       5.5890      0.00000
     23       6.0002      0.00000
     24       6.0002      0.00000
     25       6.0123      0.00000
     26       6.0123      0.00000
     27       6.4551      0.00000
     28       6.4551      0.00000
     29       7.0831      0.00000
     30       7.0831      0.00000
     31       9.8875      0.00000
     32       9.8875      0.00000

 k-point     5 :       0.0000    0.1667    0.0000
  band No.  band energies     occupation 
      1     -10.3529      2.00000
      2      -9.9895      2.00000
      3      -9.0620      2.00000
      4      -8.5079      2.00000
      5      -3.9439      2.00000
      6      -3.4655      2.00000
      7      -2.0937      2.00000
      8      -1.8768      2.00000
      9      -1.3275      2.00000
     10       0.3600      2.00000
     11       0.5872      2.00000
     12       0.8963      2.00000
     13       0.9618      2.00000
     14       0.9968      2.00000
     15       1.9996      2.00000
     16       2.2053      2.00000
     17       2.4852      2.00000
     18       3.0622      2.00000
     19       3.4120      2.00000
     20       3.6691      2.00000
     21       4.6142      0.00000
     22       6.6680      0.00000
     23       7.1681      0.00000
     24       7.5447      0.00000
     25       7.5858      0.00000
     26       7.8828      0.00000
     27       8.0968      0.00000
     28       8.2003      0.00000
     29       8.5790      0.00000
     30       9.0479      0.00000
     31       9.4794      0.00000
     32       9.6756      0.00000

 k-point     6 :       0.1667    0.1667    0.0000
  band No.  band energies     occupation 
      1     -10.1993      2.00000
      2      -9.8441      2.00000
      3      -9.0117      2.00000
      4      -8.5051      2.00000
      5      -4.2869      2.00000
      6      -3.5700      2.00000
      7      -2.6203      2.00000
      8      -2.2389      2.00000
      9      -1.1502      2.00000
     10      -0.2831      2.00000
     11      -0.0881      2.00000
     12       0.9946      2.00000
     13       1.2946      2.00000
     14       1.9505      2.00000
     15       1.9778      2.00000
     16       2.1512      2.00000
     17       3.2450      2.00000
     18       3.2838      2.00000
     19       3.6280      2.00000
     20       3.7578      2.00000
     21       4.5959      0.00000
     22       5.9360      0.00000
     23       6.3514      0.00000
     24       6.5011      0.00000
     25       7.4249      0.00000
     26       8.0188      0.00000
     27       8.1727      0.00000
     28       8.3119      0.00000
     29       8.9328      0.00000
     30       9.0582      0.00000
     31       9.2046      0.00000
     32       9.8962      0.00000

 k-point     7 :      -0.1667    0.1667    0.0000
  band No.  band energies     occupation 
      1     -10.1993      2.00000
      2      -9.8441      2.00000
      3      -9.0117      2.00000
      4      -8.5051      2.00000
      5      -4.2869      2.00000
      6      -3.5700      2.00000
      7      -2.6203      2.00000
      8      -2.2389      2.00000
      9      -1.1502      2.00000
     10      -0.2831      2.00000
     11      -0.0881      2.00000
     12       0.9946      2.00000
     13       1.2946      2.00000
     14       1.9505      2.00000
     15       1.9778      2.00000
     16       2.1512      2.00000
     17       3.2450      2.00000
     18       3.2838      2.00000
     19       3.6280      2.00000
     20       3.7578      2.00000
     21       4.5959      0.00000
     22       5.9360      0.00000
     23       6.3514      0.00000
     24       6.5011      0.00000
     25       7.4249      0.00000
     26       8.0188      0.00000
     27       8.1727      0.00000
     28       8.3119      0.00000
     29       8.9328      0.00000
     30       9.0582      0.00000
     31       9.2046      0.00000
     32       9.8962      0.00000

 k-point     8 :       0.3333    0.1667    0.0000
  band No.  band energies     occupation 
      1      -9.7836      2.00000
      2      -9.4499      2.00000
      3      -8.9947      2.00000
      4      -8.6019      2.00000
      5      -4.7967      2.00000
      6      -3.8052      2.00000
      7      -3.8015      2.00000
      8      -2.9635      2.00000
      9      -0.5840      2.00000
     10      -0.2544      2.00000
     11      -0.0489      2.00000
     12       0.9791      2.00000
     13       1.2032      2.00000
     14       1.6910      2.00000
     15       2.0172      2.00000
     16       2.7845      2.00000
     17       2.9693      2.00000
     18       3.3428      2.00000
     19       3.5452      2.00000
     20       3.7025      2.00000
     21       4.9409      0.00000
     22       5.7398      0.00000
     23       6.5206      0.00000
     24       6.6281      0.00000
     25       6.7144      0.00000
     26       7.1774      0.00000
     27       8.0664      0.00000
     28       8.8154      0.00000
     29       8.9705      0.00000
     30       9.0700      0.00000
     31       9.5398      0.00000
     32       9.7977      0.00000

 k-point     9 :      -0.3333    0.1667    0.0000
  band No.  band energies     occupation 
      1      -9.7836      2.00000
      2      -9.4499      2.00000
      3      -8.9947      2.00000
      4      -8.6019      2.00000
      5      -4.7967      2.00000
      6      -3.8052      2.00000
      7      -3.8015      2.00000
      8      -2.9635      2.00000
      9      -0.5840      2.00000
     10      -0.2544      2.00000
     11      -0.0489      2.00000
     12       0.9791      2.00000
     13       1.2032      2.00000
     14       1.6910      2.00000
     15       2.0172      2.00000
     16       2.7845      2.00000
     17       2.9693      2.00000
     18       3.3428      2.00000
     19       3.5452      2.00000
     20       3.7025      2.00000
     21       4.9409      0.00000
     22       5.7398      0.00000
     23       6.5206      0.00000
     24       6.6281      0.00000
     25       6.7144      0.00000
     26       7.1774      0.00000
     27       8.0664      0.00000
     28       8.8154      0.00000
     29       8.9705      0.00000
     30       9.0700      0.00000
     31       9.5398      0.00000
     32       9.7977      0.00000

 k-point    10 :       0.5000    0.1667    0.0000
  band No.  band energies     occupation 
      1      -9.2781      2.00000
      2      -9.2781      2.00000
      3      -8.9539      2.00000
      4      -8.9539      2.00000
      5      -4.6790      2.00000
      6      -4.6790      2.00000
      7      -3.6416      2.00000
      8      -3.6416      2.00000
      9       0.1002      2.00000
     10       0.1002      2.00000
     11       0.4904      2.00000
     12       0.4904      2.00000
     13       1.0041      2.00000
     14       1.0041      2.00000
     15       2.3129      2.00000
     16       2.3129      2.00000
     17       3.0179      2.00000
     18       3.0179      2.00000
     19       3.5603      2.00000
     20       3.5603      2.00000
     21       5.3972      0.00000
     22       5.3972      0.00000
     23       6.6695      0.00000
     24       6.6695      0.00000
     25       7.4181      0.00000
     26       7.4181      0.00000
     27       8.1924      0.00000
     28       8.1924      0.00000
     29       8.7677      0.00000
     30       8.7677      0.00000
     31       9.6267      0.00000
     32       9.6267      0.00000

 k-point    11 :       0.0000    0.3333    0.0000
  band No.  band energies     occupation 
      1      -9.7675      2.00000
      2      -9.4700      2.00000
      3      -8.7950      2.00000
      4      -8.5118      2.00000
      5      -4.6898      2.00000
      6      -4.2310      2.00000
      7      -3.6525      2.00000
      8      -3.0512      2.00000
      9      -0.6749      2.00000
     10       0.8081      2.00000
     11       1.2041      2.00000
     12       1.2738      2.00000
     13       1.3735      2.00000
     14       1.4379      2.00000
     15       2.3234      2.00000
     16       2.3531      2.00000
     17       2.8449      2.00000
     18       2.9925      2.00000
     19       3.3662      2.00000
     20       3.8033      2.00000
     21       4.9804      0.00000
     22       5.0351      0.00000
     23       5.7921      0.00000
     24       6.1230      0.00000
     25       6.3504      0.00000
     26       6.5312      0.00000
     27       6.7647      0.00000
     28       7.5661      0.00000
     29       7.8915      0.00000
     30       7.9274      0.00000
     31       8.5939      0.00000
     32       9.5822      0.00000

 k-point    12 :       0.1667    0.3333    0.0000
  band No.  band energies     occupation 
      1      -9.6356      2.00000
      2      -9.3496      2.00000
      3      -8.7534      2.00000
      4      -8.4900      2.00000
      5      -4.6228      2.00000
      6      -4.0803      2.00000
      7      -3.5909      2.00000
      8      -3.1275      2.00000
      9      -0.5173      2.00000
     10      -0.5057      2.00000
     11      -0.1840      2.00000
     12       0.7148      2.00000
     13       1.3073      2.00000
     14       1.8655      2.00000
     15       1.8904      2.00000
     16       2.4999      2.00000
     17       2.5377      2.00000
     18       2.8537      2.00000
     19       3.1622      2.00000
     20       3.4806      2.00000
     21       4.8364      0.00000
     22       5.6235      0.00000
     23       6.1529      0.00000
     24       6.2840      0.00000
     25       6.4212      0.00000
     26       7.4048      0.00000
     27       8.0061      0.00000
     28       8.3582      0.00000
     29       8.4604      0.00000
     30       8.8110      0.00000
     31       9.2309      0.00000
     32       9.8377      0.00000

 k-point    13 :      -0.1667    0.3333    0.0000
  band No.  band energies     occupation 
      1      -9.6356      2.00000
      2      -9.3496      2.00000
      3      -8.7534      2.00000
      4      -8.4900      2.00000
      5      -4.6228      2.00000
      6      -4.0803      2.00000
      7      -3.5909      2.00000
      8      -3.1275      2.00000
      9      -0.5173      2.00000
     10      -0.5057      2.00000
     11      -0.1840      2.00000
     12       0.7148      2.00000
     13       1.3073      2.00000
     14       1.8655      2.00000
     15       1.8904      2.00000
     16       2.4999      2.00000
     17       2.5377      2.00000
     18       2.8537      2.00000
     19       3.1622      2.00000
     20       3.4806      2.00000
     21       4.8364      0.00000
     22       5.6235      0.00000
     23       6.1529      0.00000
     24       6.2840      0.00000
     25       6.4212      0.00000
     26       7.4048      0.00000
     27       8.0061      0.00000
     28       8.3582      0.00000
     29       8.4604      0.00000
     30       8.8110      0.00000
     31       9.2309      0.00000
     32       9.8377      0.00000

 k-point    14 :       0.3333    0.3333    0.0000
  band No.  band energies     occupation 
      1      -9.2921      2.00000
      2      -9.0386      2.00000
      3      -8.7264      2.00000
      4      -8.5021      2.00000
      5      -4.4747      2.00000
      6      -3.7280      2.00000
      7      -3.7004      2.00000
      8      -3.3018      2.00000
      9      -1.3228      2.00000
     10      -1.0025      2.00000
     11      -0.3262      2.00000
     12      -0.0349      2.00000
     13       0.2504      2.00000
     14       0.8684      2.00000
     15       1.3754      2.00000
     16       1.5359      2.00000
     17       2.1663      2.00000
     18       2.3579      2.00000
     19       2.6353      2.00000
     20       3.0955      2.00000
     21       5.0865      0.00000
     22       7.1286      0.00000
     23       7.2717      0.00000
     24       7.6457      0.00000
     25       7.8496      0.00000
     26       8.4092      0.00000
     27       8.4989      0.00000
     28       9.1477      0.00000
     29       9.2094      0.00000
     30       9.7151      0.00000
     31       9.9397      0.00000
     32      10.2213      0.00000

 k-point    15 :      -0.3333    0.3333    0.0000
  band No.  band energies     occupation 
      1      -9.2921      2.00000
      2      -9.0386      2.00000
      3      -8.7264      2.00000
      4      -8.5021      2.00000
      5      -4.4747      2.00000
      6      -3.7280      2.00000
      7      -3.7004      2.00000
      8      -3.3018      2.00000
      9      -1.3228      2.00000
     10      -1.0025      2.00000
     11      -0.3262      2.00000
     12      -0.0349      2.00000
     13       0.2504      2.00000
     14       0.8684      2.00000
     15       1.3754      2.00000
     16       1.5359      2.00000
     17       2.1663      2.00000
     18       2.3579      2.00000
     19       2.6353      2.00000
     20       3.0955      2.00000
     21       5.0865      0.00000
     22       7.1286      0.00000
     23       7.2717      0.00000
     24       7.6457      0.00000
     25       7.8496      0.00000
     26       8.4092      0.00000
     27       8.4989      0.00000
     28       9.1477      0.00000
     29       9.2094      0.00000
     30       9.7151      0.00000
     31       9.9397      0.00000
     32      10.2213      0.00000

 k-point    16 :       0.5000    0.3333    0.0000
  band No.  band energies     occupation 
      1      -8.9107      2.00000
      2      -8.9107      2.00000
      3      -8.6921      2.00000
      4      -8.6921      2.00000
      5      -4.1828      2.00000
      6      -4.1828      2.00000
      7      -3.4356      2.00000
      8      -3.4356      2.00000
      9      -1.1215      2.00000
     10      -1.1215      2.00000
     11      -0.7155      2.00000
     12      -0.7155      2.00000
     13       0.4172      2.00000
     14       0.4172      2.00000
     15       1.1893      2.00000
     16       1.1893      2.00000
     17       1.6593      2.00000
     18       1.6593      2.00000
     19       2.7719      2.00000
     20       2.7719      2.00000
     21       6.0791      0.00000
     22       6.0791      0.00000
     23       8.3127      0.00000
     24       8.3127      0.00000
     25       8.9407      0.00000
     26       8.9407      0.00000
     27       9.2340      0.00000
     28       9.2340      0.00000
     29       9.5750      0.00000
     30       9.5750      0.00000
     31      10.6340      0.00000
     32      10.6342      0.00000

 k-point    17 :       0.0000    0.5000    0.0000
  band No.  band energies     occupation 
      1      -9.0021      2.00000
      2      -9.0021      2.00000
      3      -8.9006      2.00000
      4      -8.9006      2.00000
      5      -4.7250      2.00000
      6      -4.7250      2.00000
      7      -4.0900      2.00000
      8      -4.0900      2.00000
      9       0.3412      2.00000
     10       0.3412      2.00000
     11       1.7369      2.00000
     12       1.7369      2.00000
     13       1.8061      2.00000
     14       1.8061      2.00000
     15       2.3642      2.00000
     16       2.3642      2.00000
     17       3.0558      2.00000
     18       3.0558      2.00000
     19       3.2022      2.00000
     20       3.2022      2.00000
     21       5.2087      0.00000
     22       5.2087      0.00000
     23       5.4216      0.00000
     24       5.4216      0.00000
     25       5.6971      0.00000
     26       5.6971      0.00000
     27       6.3234      0.00000
     28       6.3234      0.00000
     29       6.8488      0.00000
     30       6.8488      0.00000
     31       9.1729      0.00000
     32       9.1729      0.00000

 k-point    18 :       0.1667    0.5000    0.0000
  band No.  band energies     occupation 
      1      -8.9199      2.00000
      2      -8.9199      2.00000
      3      -8.8291      2.00000
      4      -8.8291      2.00000
      5      -4.5507      2.00000
      6      -4.5507      2.00000
      7      -3.9700      2.00000
      8      -3.9700      2.00000
      9       0.1279      2.00000
     10       0.1280      2.00000
     11       0.4444      2.00000
     12       0.4444      2.00000
     13       1.0752      2.00000
     14       1.0752      2.00000
     15       1.8986      2.00000
     16       1.8986      2.00000
     17       2.3909      2.00000
     18       2.3909      2.00000
     19       3.2014      2.00000
     20       3.2014      2.00000
     21       5.1902      0.00000
     22       5.1902      0.00000
     23       6.4401      0.00000
     24       6.4401      0.00000
     25       7.1332      0.00000
     26       7.1332      0.00000
     27       7.4278      0.00000
     28       7.4278      0.00000
     29       8.3986      0.00000
     30       8.3986      0.00000
     31       8.8696      0.00000
     32       8.8696      0.00000

 k-point    19 :       0.3333    0.5000    0.0000
  band No.  band energies     occupation 
      1      -8.7385      2.00000
      2      -8.7385      2.00000
      3      -8.6791      2.00000
      4      -8.6791      2.00000
      5      -4.1032      2.00000
      6      -4.1032      2.00000
      7      -3.7128      2.00000
      8      -3.7128      2.00000
      9      -1.0033      2.00000
     10      -1.0033      2.00000
     11      -0.5385      2.00000
     12      -0.5385      2.00000
     13       0.2226      2.00000
     14       0.2226      2.00000
     15       1.0346      2.00000
     16       1.0346      2.00000
     17       1.5246      2.00000
     18       1.5246      2.00000
     19       2.7229      2.00000
     20       2.7229      2.00000
     21       6.2260      0.00000
     22       6.2260      0.00000
     23       7.8975      0.00000
     24       7.8975      0.00000
     25       8.7116      0.00000
     26       8.7116      0.00000
     27       8.8976      0.00000
     28       8.8976      0.00000
     29       9.1735      0.00000
     30       9.1735      0.00000
     31      10.4288      0.00000
     32      10.4288      0.00000

 k-point    20 :       0.5000    0.5000    0.0000
  band No.  band energies     occupation 
      1      -8.6329      2.00000
      2      -8.6329      2.00000
      3      -8.6047      2.00000
      4      -8.6047      2.00000
      5      -3.7713      2.00000
      6      -3.7713      2.00000
      7      -3.5959      2.00000
      8      -3.5959      2.00000
      9      -1.4735      2.00000
     10      -1.4735      2.00000
     11      -1.0376      2.00000
     12      -1.0376      2.00000
     13      -0.1700      2.00000
     14      -0.1700      2.00000
     15       0.3615      2.00000
     16       0.3615      2.00000
     17       1.6959      2.00000
     18       1.6959      2.00000
[...]
     32       8.4071      0.00000

 k-point    32 :       0.1667    0.3333    0.5000
  band No.  band energies     occupation 
      1      -9.5168      2.00000
      2      -9.5168      2.00000
      3      -8.5956      2.00000
      4      -8.5956      2.00000
      5      -4.3972      2.00000
      6      -4.3972      2.00000
      7      -3.3636      2.00000
      8      -3.3636      2.00000
      9      -0.3919      2.00000
     10      -0.3919      2.00000
     11       0.4605      2.00000
     12       0.4605      2.00000
     13       1.1146      2.00000
     14       1.1146      2.00000
     15       2.2649      2.00000
     16       2.2649      2.00000
     17       2.5259      2.00000
     18       2.5259      2.00000
     19       3.3918      2.00000
     20       3.3918      2.00000
     21       5.7854      0.00000
     22       5.7854      0.00000
     23       6.2415      0.00000
     24       6.2415      0.00000
     25       7.1075      0.00000
     26       7.1075      0.00000
     27       7.6452      0.00000
     28       7.6452      0.00000
     29       8.1848      0.00000
     30       8.1848      0.00000
     31       9.5336      0.00000
     32       9.5336      0.00000

 k-point    33 :      -0.1667    0.3333    0.5000
  band No.  band energies     occupation 
      1      -9.5168      2.00000
      2      -9.5168      2.00000
      3      -8.5956      2.00000
      4      -8.5956      2.00000
      5      -4.3972      2.00000
      6      -4.3972      2.00000
      7      -3.3636      2.00000
      8      -3.3636      2.00000
      9      -0.3919      2.00000
     10      -0.3919      2.00000
     11       0.4605      2.00000
     12       0.4605      2.00000
     13       1.1146      2.00000
     14       1.1146      2.00000
     15       2.2649      2.00000
     16       2.2649      2.00000
     17       2.5259      2.00000
     18       2.5259      2.00000
     19       3.3918      2.00000
     20       3.3918      2.00000
     21       5.7854      0.00000
     22       5.7854      0.00000
     23       6.2415      0.00000
     24       6.2415      0.00000
     25       7.1075      0.00000
     26       7.1075      0.00000
     27       7.6452      0.00000
     28       7.6452      0.00000
     29       8.1848      0.00000
     30       8.1848      0.00000
     31       9.5336      0.00000
     32       9.5336      0.00000

 k-point    34 :       0.3333    0.3333    0.5000
  band No.  band energies     occupation 
      1      -9.1915      2.00000
      2      -9.1915      2.00000
      3      -8.5881      2.00000
      4      -8.5881      2.00000
      5      -4.1953      2.00000
      6      -4.1953      2.00000
      7      -3.4427      2.00000
      8      -3.4427      2.00000
      9      -1.1381      2.00000
     10      -1.1381      2.00000
     11      -0.1151      2.00000
     12      -0.1151      2.00000
     13       0.6124      2.00000
     14       0.6124      2.00000
     15       1.3512      2.00000
     16       1.3512      2.00000
     17       2.0795      2.00000
     18       2.0795      2.00000
     19       2.9269      2.00000
     20       2.9269      2.00000
     21       6.5136      0.00000
     22       6.5136      0.00000
     23       7.2367      0.00000
     24       7.2367      0.00000
     25       7.4814      0.00000
     26       7.4814      0.00000
     27       8.9060      0.00000
     28       8.9060      0.00000
     29       9.5037      0.00000
     30       9.5037      0.00000
     31      10.9136      0.00000
     32      10.9137      0.00000

 k-point    35 :      -0.3333    0.3333    0.5000
  band No.  band energies     occupation 
      1      -9.1915      2.00000
      2      -9.1915      2.00000
      3      -8.5881      2.00000
      4      -8.5881      2.00000
      5      -4.1953      2.00000
      6      -4.1953      2.00000
      7      -3.4427      2.00000
      8      -3.4427      2.00000
      9      -1.1381      2.00000
     10      -1.1381      2.00000
     11      -0.1151      2.00000
     12      -0.1151      2.00000
     13       0.6124      2.00000
     14       0.6124      2.00000
     15       1.3512      2.00000
     16       1.3512      2.00000
     17       2.0795      2.00000
     18       2.0795      2.00000
     19       2.9269      2.00000
     20       2.9269      2.00000
     21       6.5136      0.00000
     22       6.5136      0.00000
     23       7.2367      0.00000
     24       7.2367      0.00000
     25       7.4814      0.00000
     26       7.4814      0.00000
     27       8.9060      0.00000
     28       8.9060      0.00000
     29       9.5037      0.00000
     30       9.5037      0.00000
     31      10.9136      0.00000
     32      10.9137      0.00000

 k-point    36 :       0.5000    0.3333    0.5000
  band No.  band energies     occupation 
      1      -8.9066      2.00000
      2      -8.9066      2.00000
      3      -8.6972      2.00000
      4      -8.6972      2.00000
      5      -4.1280      2.00000
      6      -4.1280      2.00000
      7      -3.5155      2.00000
      8      -3.5155      2.00000
      9      -0.9317      2.00000
     10      -0.9317      2.00000
     11      -0.9292      2.00000
     12      -0.9292      2.00000
     13       0.6977      2.00000
     14       0.6977      2.00000
     15       0.8313      2.00000
     16       0.8313      2.00000
     17       2.0480      2.00000
     18       2.0480      2.00000
     19       2.4458      2.00000
     20       2.4458      2.00000
     21       6.5069      0.00000
     22       6.5069      0.00000
     23       7.3947      0.00000
     24       7.3947      0.00000
     25       8.9466      0.00000
     26       8.9466      0.00000
     27       9.1282      0.00000
     28       9.1282      0.00000
     29      10.4190      0.00000
     30      10.4190      0.00000
     31      10.6887      0.00000
     32      10.6887      0.00000

 k-point    37 :       0.0000    0.5000    0.5000
  band No.  band energies     occupation 
      1      -8.9528      2.00000
      2      -8.9528      2.00000
      3      -8.9528      2.00000
      4      -8.9528      2.00000
      5      -4.4326      2.00000
      6      -4.4326      2.00000
      7      -4.4326      2.00000
      8      -4.4326      2.00000
      9       1.1296      2.00000
     10       1.1296      2.00000
     11       1.1296      2.00000
     12       1.1296      2.00000
     13       1.9327      2.00000
     14       1.9327      2.00000
     15       1.9327      2.00000
     16       1.9327      2.00000
     17       3.0144      2.00000
     18       3.0144      2.00000
     19       3.0144      2.00000
     20       3.0144      2.00000
     21       5.5966      0.00000
     22       5.5966      0.00000
     23       5.5966      0.00000
     24       5.5966      0.00000
     25       6.0245      0.00000
     26       6.0245      0.00000
     27       6.0245      0.00000
     28       6.0245      0.00000
     29       7.7086      0.00000
     30       7.7086      0.00000
     31       7.7086      0.00000
     32       7.7086      0.00000

 k-point    38 :       0.1667    0.5000    0.5000
  band No.  band energies     occupation 
      1      -8.8757      2.00000
      2      -8.8757      2.00000
      3      -8.8757      2.00000
      4      -8.8757      2.00000
      5      -4.2819      2.00000
      6      -4.2819      2.00000
      7      -4.2819      2.00000
      8      -4.2819      2.00000
      9       0.3966      2.00000
     10       0.3966      2.00000
     11       0.3966      2.00000
     12       0.3966      2.00000
     13       1.4074      2.00000
     14       1.4074      2.00000
     15       1.4074      2.00000
     16       1.4074      2.00000
     17       2.6052      2.00000
     18       2.6052      2.00000
     19       2.6052      2.00000
     20       2.6052      2.00000
     21       6.1557      0.00000
     22       6.1557      0.00000
     23       6.1557      0.00000
     24       6.1557      0.00000
     25       7.3505      0.00000
     26       7.3505      0.00000
     27       7.3505      0.00000
     28       7.3505      0.00000
     29       8.2064      0.00000
     30       8.2064      0.00000
     31       8.2064      0.00000
     32       8.2064      0.00000

 k-point    39 :       0.3333    0.5000    0.5000
  band No.  band energies     occupation 
      1      -8.7093      2.00000
      2      -8.7093      2.00000
      3      -8.7093      2.00000
      4      -8.7093      2.00000
      5      -3.9198      2.00000
      6      -3.9198      2.00000
      7      -3.9198      2.00000
      8      -3.9198      2.00000
      9      -0.7534      2.00000
     10      -0.7534      2.00000
     11      -0.7534      2.00000
     12      -0.7534      2.00000
     13       0.4672      2.00000
     14       0.4672      2.00000
     15       0.4672      2.00000
     16       0.4672      2.00000
     17       2.2807      2.00000
     18       2.2807      2.00000
     19       2.2807      2.00000
     20       2.2807      2.00000
     21       6.8320      0.00000
     22       6.8320      0.00000
     23       6.8320      0.00000
     24       6.8320      0.00000
     25       8.5869      0.00000
     26       8.5869      0.00000
     27       8.5869      0.00000
     28       8.5869      0.00000
     29      10.3548      0.00000
     30      10.3548      0.00000
     31      10.3548      0.00000
     32      10.3548      0.00000

 k-point    40 :       0.5000    0.5000    0.5000
  band No.  band energies     occupation 
      1      -8.6189      2.00000
      2      -8.6189      2.00000
      3      -8.6189      2.00000
      4      -8.6189      2.00000
      5      -3.6931      2.00000
      6      -3.6931      2.00000
      7      -3.6931      2.00000
      8      -3.6931      2.00000
      9      -1.1626      2.00000
     10      -1.1626      2.00000
     11      -1.1626      2.00000
     12      -1.1626      2.00000
     13      -0.1534      2.00000
     14      -0.1534      2.00000
     15      -0.1534      2.00000
     16      -0.1534      2.00000
     17       2.3500      2.00000
     18       2.3500      2.00000
     19       2.3500      2.00000
     20       2.3500      2.00000
     21       6.6024      0.00000
     22       6.6024      0.00000
     23       6.6024      0.00000
     24       6.6024      0.00000
     25       9.7784      0.00000
     26       9.7784      0.00000
     27       9.7784      0.00000
     28       9.7784      0.00000
     29      10.9570      0.00000
     30      10.9570      0.00000
     31      10.9570      0.00000
     32      10.9570      0.00000


--------------------------------------------------------------------------------------------------------


 soft charge-density along one line, spin component            1
         0         1         2         3         4         5         6         7         8         9
 total charge-density along one line
 
 pseudopotential strength for first ion, spin component:            1
 14.266  17.791   0.000   0.042   0.036   0.000   0.076   0.065
 17.791  22.201   0.000   0.054   0.045   0.000   0.097   0.082
  0.000   0.000   3.185  -0.000  -0.000   5.418  -0.000  -0.000
  0.042   0.054  -0.000   3.182  -0.003  -0.000   5.414  -0.004
  0.036   0.045  -0.000  -0.003   3.183  -0.000  -0.004   5.416
  0.000   0.000   5.418  -0.000  -0.000   9.273  -0.000  -0.000
  0.076   0.097  -0.000   5.414  -0.004  -0.000   9.266  -0.008
  0.065   0.082  -0.000  -0.004   5.416  -0.000  -0.008   9.270
 -0.000  -0.000   0.006   0.000  -0.000   0.012   0.000  -0.000
 -0.000  -0.000   0.011   0.000   0.000   0.020   0.000   0.000
 -0.002  -0.003   0.000   0.011  -0.003   0.000   0.020  -0.007
 -0.005  -0.007   0.000   0.011   0.011   0.000   0.020   0.020
 -0.001  -0.002  -0.000   0.000   0.011  -0.000   0.000   0.019
 total augmentation occupancy for first ion, spin component:            1
  2.837  -0.793   0.000   0.348   0.322  -0.000  -0.065  -0.063   0.000   0.000  -0.016  -0.004  -0.007
 -0.793   0.744  -0.000  -0.450  -0.394  -0.000   0.071   0.064  -0.000  -0.000   0.017   0.003   0.004
  0.000  -0.000   1.318  -0.000  -0.000  -0.234   0.000   0.000   0.131   0.034   0.000   0.000   0.000
  0.348  -0.450  -0.000   1.288   0.079   0.000  -0.215  -0.004   0.000  -0.000   0.101  -0.005   0.002
  0.322  -0.394  -0.000   0.079   1.314   0.000  -0.004  -0.224  -0.000  -0.000  -0.082   0.037   0.001
 -0.000  -0.000  -0.234   0.000   0.000   0.046  -0.000  -0.000  -0.023  -0.006   0.000  -0.000  -0.000
 -0.065   0.071   0.000  -0.215  -0.004  -0.000   0.041  -0.000  -0.000   0.000  -0.018   0.001  -0.000
 -0.063   0.064   0.000  -0.004  -0.224  -0.000  -0.000   0.043   0.000   0.000   0.014  -0.006  -0.000
  0.000  -0.000   0.131   0.000  -0.000  -0.023  -0.000   0.000   0.039   0.003  -0.000   0.000   0.000
  0.000  -0.000   0.034  -0.000  -0.000  -0.006   0.000   0.000   0.003   0.011   0.000   0.000   0.000
 -0.016   0.017   0.000   0.101  -0.082   0.000  -0.018   0.014  -0.000   0.000   0.036  -0.006   0.001
 -0.004   0.003   0.000  -0.005   0.037  -0.000   0.001  -0.006   0.000   0.000  -0.006   0.012  -0.001
 -0.007   0.004   0.000   0.002   0.001  -0.000  -0.000  -0.000   0.000   0.000   0.001  -0.001   0.010


------------------------ aborting loop because EDIFF is reached ----------------------------------------


    CHARGE:  cpu time      0.0029: real time      0.0029
    FORLOC:  cpu time      0.0002: real time      0.0002
    FORNL :  cpu time      0.0197: real time      0.0198
    STRESS:  cpu time      0.1860: real time      0.1869
    FORCOR:  cpu time      0.0032: real time      0.0032
    FORHAR:  cpu time      0.0007: real time      0.0008
    MIXING:  cpu time      0.0008: real time      0.0008
    OFIELD:  cpu time      0.0000: real time      0.0000

  FORCE on cell =-STRESS in cart. coord.  units (eV):
  Direction    XX          YY          ZZ          XY          YZ          ZX
  --------------------------------------------------------------------------------------
  Alpha Z    96.43260    96.43260    96.43260
  Ewald    -482.38720  -459.19698  -537.70923     0.00000    -0.00000     0.00000
  Hartree    41.47627    52.67515    19.94915    -0.00000     0.00000     0.00000
  E(xc)    -142.03809  -142.11036  -142.44427    -0.00000    -0.00000    -0.00000
  Local    -137.89802  -169.16975   -67.19910     0.00000    -0.00000    -0.00000
  n-local   241.89571   242.46284   242.81589    -0.00000     0.00000     0.00000
  augment   -11.60572   -11.43184   -12.07617    -0.00000    -0.00000     0.00000
  Kinetic   399.48936   396.75686   401.77926     0.00000    -0.00000     0.00000
  Fock        0.00000     0.00000     0.00000     0.00000     0.00000     0.00000
  -------------------------------------------------------------------------------------
  Total       5.36491     6.41853     1.54815     0.00000    -0.00000    -0.00000
  in kB      48.91805    58.52515    14.11626     0.00001    -0.00000    -0.00000
  external pressure =       40.52 kB  Pullay stress =        0.00 kB


 VOLUME and BASIS-vectors are now :
 -----------------------------------------------------------------------------
  energy-cutoff  :      360.00
  volume of cell :      175.71
      direct lattice vectors                 reciprocal lattice vectors
     4.150000000  0.000000000  0.000000000     0.240963855  0.000000000  0.000000000
     0.000000000  3.800000000  0.000000000     0.000000000  0.263157895  0.000000000
     0.000000000  0.000000000 11.142221000     0.000000000  0.000000000  0.089748713

  length of vectors
     4.150000000  3.800000000 11.142221000     0.240963855  0.263157895  0.089748713


 FORCES acting on ions
    electron-ion (+dipol)            ewald-force                    non-local-force                 convergence-correction
 -----------------------------------------------------------------------------------------------
   0.117E+02 0.339E-06 0.251E+02   -.138E+02 0.617E-15 -.277E+02   0.205E+01 -.353E-06 0.265E+01   0.110E-03 0.216E-06 -.105E-02
   0.117E+02 -.739E-06 -.251E+02   -.138E+02 -.119E-14 0.277E+02   0.205E+01 0.500E-06 -.265E+01   0.107E-03 0.453E-06 0.105E-02
   -.117E+02 0.171E-06 -.251E+02   0.138E+02 -.129E-14 0.277E+02   -.205E+01 -.260E-07 -.265E+01   -.109E-03 -.488E-06 0.104E-02
   -.117E+02 0.386E-07 0.251E+02   0.138E+02 -.101E-15 -.277E+02   -.205E+01 -.143E-06 0.265E+01   -.109E-03 -.364E-07 -.104E-02
   -.109E+02 0.124E-05 -.256E+02   0.121E+02 0.112E-14 0.270E+02   -.111E+01 -.105E-06 -.140E+01   0.224E-03 -.107E-05 0.238E-02
   -.109E+02 0.242E-05 0.256E+02   0.121E+02 -.531E-15 -.270E+02   -.111E+01 -.922E-06 0.140E+01   0.223E-03 -.183E-05 -.239E-02
   0.109E+02 -.420E-09 0.256E+02   -.121E+02 -.191E-14 -.270E+02   0.111E+01 -.117E-06 0.140E+01   -.225E-03 0.295E-06 -.237E-02
   0.109E+02 -.324E-05 -.256E+02   -.121E+02 0.873E-15 0.270E+02   0.111E+01 0.131E-05 -.140E+01   -.224E-03 0.231E-05 0.237E-02
 -----------------------------------------------------------------------------------------------
   -.151E-05 0.230E-06 0.181E-05   0.000E+00 -.241E-14 0.249E-13   0.199E-05 0.149E-06 0.263E-06   -.200E-05 -.161E-06 -.183E-05
 
 
 POSITION                                       TOTAL-FORCE (eV/Angst)
 -----------------------------------------------------------------------------------
      0.42121      0.95000      1.38322        -0.055185      0.000000     -0.001529
      2.49621      2.85000      4.18789        -0.055185      0.000000      0.001528
      3.72879      2.85000      9.75900         0.055185     -0.000000      0.001528
      1.65379      0.95000      6.95433         0.055185     -0.000000     -0.001528
      0.07748      0.95000      3.96413         0.061936      0.000000      0.002998
      2.15248      2.85000      1.60699         0.061937     -0.000000     -0.002997
      4.07252      2.85000      7.17810        -0.061936      0.000000     -0.002998
      1.99752      0.95000      9.53524        -0.061937      0.000000      0.002997
 -----------------------------------------------------------------------------------
    total drift:                               -0.000002      0.000000      0.000000


--------------------------------------------------------------------------------------------------------



  FREE ENERGIE OF THE ION-ELECTRON SYSTEM (eV)
  ---------------------------------------------------
  free  energy   TOTEN  =       -33.54940643 eV

  energy  without entropy=      -33.54805400  energy(sigma->0) =      -33.54873021
 


--------------------------------------------------------------------------------------------------------


    POTLOK:  cpu time      0.1137: real time      0.1143


--------------------------------------------------------------------------------------------------------


     LOOP+:  cpu time      4.8500: real time      4.8910
    4ORBIT:  cpu time      0.0000: real time      0.0000

 total amount of memory used by VASP MPI-rank0    37609. kBytes
=======================================================================

   base      :      30000. kBytes
   nonl-proj :       5947. kBytes
   fftplans  :        288. kBytes
   grid      :        416. kBytes
   one-center:         16. kBytes
   wavefun   :        942. kBytes
 
  
  
 General timing and accounting informations for this job:
 ========================================================
  
                  Total CPU time used (sec):        5.546
                            User time (sec):        5.356
                          System time (sec):        0.189
                         Elapsed time (sec):        7.264
  
                   Maximum memory used (kb):      189528.
                   Average memory used (kb):          N/A
  
                          Minor page faults:        21212
                          Major page faults:           34
                 Voluntary context switches:         8983
