 running  160 mpi-ranks, with    1 threads/rank, on   10 nodes
 distrk:  each k-point on   80 cores,    2 groups
 distr:  one band on    5 cores,   16 groups
 vasp.6.4.2 20Jul23 (build Oct 12 2023 10:31:02) complex                         
 POSCAR found type information on POSCAR GeSe
 POSCAR found :  2 types and       8 ions
 Reading from existing POTCAR
 scaLAPACK will be used
 Reading from existing POTCAR
 LDA part: xc-table for Pade appr. of Perdew
 POSCAR, INCAR and KPOINTS ok, starting setup
 FFT: planning ... GRIDC
 FFT: planning ... GRID_SOFT
 FFT: planning ... GRID
 WAVECAR not read
 entering main loop
       N       E                     dE             d eps       ncg     rms          rms(c)
DAV:   1     0.131275724438E+03    0.13128E+03   -0.12982E+04  2560   0.779E+02
DAV:   2    -0.254482065308E+02   -0.15672E+03   -0.15206E+03  3792   0.141E+02
DAV:   3    -0.337650975154E+02   -0.83169E+01   -0.83030E+01  3088   0.376E+01
DAV:   4    -0.338196503199E+02   -0.54553E-01   -0.54543E-01  3344   0.348E+00
DAV:   5    -0.338199795259E+02   -0.32921E-03   -0.32920E-03  3120   0.264E-01    0.674E+00
DAV:   6    -0.334517081156E+02    0.36827E+00   -0.69297E-01  3040   0.285E+00    0.423E+00
DAV:   7    -0.334360511531E+02    0.15657E-01   -0.24896E-01  3376   0.177E+00    0.124E+00
DAV:   8    -0.334337838211E+02    0.22673E-02   -0.26929E-02  2944   0.625E-01    0.172E-01
DAV:   9    -0.334339953810E+02   -0.21156E-03   -0.37279E-03  3152   0.262E-01    0.594E-02
DAV:  10    -0.334340822055E+02   -0.86825E-04   -0.24196E-04  3184   0.666E-02    0.222E-02
DAV:  11    -0.334341094391E+02   -0.27234E-04   -0.37673E-05  3024   0.278E-02    0.112E-02
DAV:  12    -0.334341099822E+02   -0.54304E-06   -0.56675E-06  3392   0.987E-03
   1 F= -.33434110E+02 E0= -.33434110E+02  d E =-.136135E-15
