 running  128 mpi-ranks, with    1 threads/rank, on    2 nodes
 distrk:  each k-point on   64 cores,    2 groups
 distr:  one band on    4 cores,   16 groups
 vasp.6.4.2 20Jul23 (build Oct 12 2023 10:31:02) complex                         
 POSCAR found type information on POSCAR GeSe
 POSCAR found :  2 types and       8 ions
 Reading from existing POTCAR
 scaLAPACK will be used
 Reading from existing POTCAR
 LDA part: xc-table for Pade appr. of Perdew
 POSCAR, INCAR and KPOINTS ok, starting setup
 FFT: planning ... GRIDC
 FFT: planning ... GRID_SOFT
 FFT: planning ... GRID
 WAVECAR not read
 entering main loop
       N       E                     dE             d eps       ncg     rms          rms(c)
DAV:   1     0.129192626962E+03    0.12919E+03   -0.12709E+04  2560   0.768E+02
DAV:   2    -0.254170574525E+02   -0.15461E+03   -0.15024E+03  3712   0.137E+02
DAV:   3    -0.341516281913E+02   -0.87346E+01   -0.87142E+01  3312   0.379E+01
DAV:   4    -0.342103967764E+02   -0.58769E-01   -0.58763E-01  3152   0.357E+00
DAV:   5    -0.342107636006E+02   -0.36682E-03   -0.36682E-03  3296   0.275E-01    0.623E+00
DAV:   6    -0.337724485146E+02    0.43832E+00   -0.91668E-01  3008   0.319E+00    0.390E+00
DAV:   7    -0.337621763085E+02    0.10272E-01   -0.24518E-01  3008   0.175E+00    0.141E+00
DAV:   8    -0.337612534497E+02    0.92286E-03   -0.24259E-02  3024   0.593E-01    0.177E-01
DAV:   9    -0.337613885835E+02   -0.13513E-03   -0.38963E-03  3216   0.266E-01    0.673E-02
DAV:  10    -0.337614853042E+02   -0.96721E-04   -0.35327E-04  2928   0.828E-02    0.235E-02
DAV:  11    -0.337615069737E+02   -0.21669E-04   -0.39046E-05  2928   0.287E-02    0.128E-02
DAV:  12    -0.337615068719E+02    0.10179E-06   -0.62735E-06  3264   0.106E-02
   1 F= -.33761507E+02 E0= -.33761507E+02  d E =-.156086E-13
