 running  128 mpi-ranks, with    1 threads/rank, on    2 nodes
 distrk:  each k-point on   64 cores,    2 groups
 distr:  one band on    8 cores,    8 groups
 vasp.6.4.2 20Jul23 (build Oct 12 2023 10:31:02) complex                         
 POSCAR found type information on POSCAR GeSe
 POSCAR found :  2 types and      72 ions
 Reading from existing POTCAR
 -----------------------------------------------------------------------------
|                                                                             |
|           W    W    AA    RRRRR   N    N  II  N    N   GGGG   !!!           |
|           W    W   A  A   R    R  NN   N  II  NN   N  G    G  !!!           |
|           W    W  A    A  R    R  N N  N  II  N N  N  G       !!!           |
|           W WW W  AAAAAA  RRRRR   N  N N  II  N  N N  G  GGG   !            |
|           WW  WW  A    A  R   R   N   NN  II  N   NN  G    G                |
|           W    W  A    A  R    R  N    N  II  N    N   GGGG   !!!           |
|                                                                             |
|     You use a magnetic or noncollinear calculation, but did not specify     |
|     the initial magnetic moment with the MAGMOM tag. Note that a            |
|     default of 1 will be used for all atoms. This ferromagnetic setup       |
|     may break the symmetry of the crystal, in particular it may rule        |
|     out finding an antiferromagnetic solution. Thence, we recommend         |
|     setting the initial magnetic moment manually or verifying carefully     |
|     that this magnetic setup is desired.                                    |
|                                                                             |
 -----------------------------------------------------------------------------

 scaLAPACK will be used
 Reading from existing POTCAR
 -----------------------------------------------------------------------------
|                                                                             |
|               ----> ADVICE to this user running VASP <----                  |
|                                                                             |
|     You have a (more or less) 'large supercell' and for larger cells it     |
|     might be more efficient to use real-space projection operators.         |
|     Therefore, try LREAL= Auto in the INCAR file.                           |
|     Mind: For very accurate calculation, you might also keep the            |
|     reciprocal projection scheme (i.e. LREAL=.FALSE.).                      |
|                                                                             |
 -----------------------------------------------------------------------------

 LDA part: xc-table for Pade appr. of Perdew
 -----------------------------------------------------------------------------
|                                                                             |
|           W    W    AA    RRRRR   N    N  II  N    N   GGGG   !!!           |
|           W    W   A  A   R    R  NN   N  II  NN   N  G    G  !!!           |
|           W    W  A    A  R    R  N N  N  II  N N  N  G       !!!           |
|           W WW W  AAAAAA  RRRRR   N  N N  II  N  N N  G  GGG   !            |
|           WW  WW  A    A  R   R   N   NN  II  N   NN  G    G                |
|           W    W  A    A  R    R  N    N  II  N    N   GGGG   !!!           |
|                                                                             |
|     The number of bands has been changed from the values supplied in        |
|     the INCAR file. This is a result of running the parallel version.       |
|     The orbitals not found in the WAVECAR file will be initialized with     |
|     random numbers, which is usually adequate. For correlated               |
|     calculations, however, you should redo the groundstate calculation.     |
|     I found NBANDS = 220. Now, NBANDS = 224.                                |
|                                                                             |
 -----------------------------------------------------------------------------

 POSCAR, INCAR and KPOINTS ok, starting setup
 FFT: planning ... GRIDC
 FFT: planning ... GRID_SOFT
 FFT: planning ... GRID
 WAVECAR not read
 WARNING: random wavefunctions but no delay for mixing, default for NELMDL
 entering main loop
       N       E                     dE             d eps       ncg     rms          rms(c)
DAV:   1     0.181792243999E+04    0.18179E+04   -0.14140E+05  7168   0.135E+03
DAV:   2    -0.635441707608E+02   -0.18815E+04   -0.18067E+04  8480   0.205E+02
DAV:   3    -0.281714289503E+03   -0.21817E+03   -0.21229E+03  8568   0.693E+01
DAV:   4    -0.289773072045E+03   -0.80588E+01   -0.79722E+01  8824   0.131E+01
DAV:   5    -0.290049610841E+03   -0.27654E+00   -0.27572E+00  8992   0.210E+00    0.292E+01
DAV:   6    -0.289619959837E+03    0.42965E+00   -0.26508E+01  7952   0.762E+00    0.173E+01
DAV:   7    -0.297040053524E+03   -0.74201E+01   -0.85803E+00  8000   0.450E+00    0.911E+00
DAV:   8    -0.300271320421E+03   -0.32313E+01   -0.17541E+00  8168   0.226E+00    0.327E+00
DAV:   9    -0.300645018985E+03   -0.37370E+00   -0.41769E-01  9024   0.102E+00    0.148E+00
DAV:  10    -0.300748528129E+03   -0.10351E+00   -0.93956E-02  8184   0.464E-01    0.736E-01
DAV:  11    -0.300780730841E+03   -0.32203E-01   -0.36309E-02  8808   0.285E-01    0.287E-01
DAV:  12    -0.300784176391E+03   -0.34455E-02   -0.45788E-03  8624   0.119E-01    0.109E-01
DAV:  13    -0.300784325034E+03   -0.14864E-03   -0.59820E-04  9696   0.384E-02    0.436E-02
DAV:  14    -0.300784342570E+03   -0.17536E-04   -0.89351E-05  8328   0.191E-02    0.162E-02
DAV:  15    -0.300784346155E+03   -0.35856E-05   -0.17425E-05  8560   0.906E-03    0.769E-03
DAV:  16    -0.300784346713E+03   -0.55784E-06   -0.15130E-06  4808   0.284E-03
   1 F= -.30078435E+03 E0= -.30078435E+03  d E =-.196132E-14  mag=     0.0004
