 vasp.6.4.2 20Jul23 (build Oct 12 2023 10:31:02) complex                         
 executed on              LinuxNV date 2024.11.01  22:37:02
 running  128 mpi-ranks, with    1 threads/rank, on    2 nodes
 distrk:  each k-point on   64 cores,    2 groups
 distr:  one band on NCORE=   8 cores,    8 groups


--------------------------------------------------------------------------------------------------------


 INCAR:
   ENCUT = 520.000000
   SIGMA = 0.050000
   EDIFF = 1.00e-06
   ALGO = N
   GGA = PE
   PREC = Accurate
   SYSTEM = 01_AOPT
   ICHARG = 0
   ISMEAR = 0
   ISPIN = 2
   ISTART = 1
   ISYM = -1
   KPAR = 2
   LORBIT = 11
   NBANDS = 220
   NELM = 100
   NELMIN = 5
   NPAR = 8
   LASPH = .TRUE.
   LCHARG = .FALSE.
   LWAVE = .FALSE.
   LREAL = .FALSE.

 POTCAR:    PAW_PBE Ge 05Jan2001                  
 POTCAR:    PAW_PBE Se 06Sep2000                  
 -----------------------------------------------------------------------------
|                                                                             |
|           W    W    AA    RRRRR   N    N  II  N    N   GGGG   !!!           |
|           W    W   A  A   R    R  NN   N  II  NN   N  G    G  !!!           |
|           W    W  A    A  R    R  N N  N  II  N N  N  G       !!!           |
|           W WW W  AAAAAA  RRRRR   N  N N  II  N  N N  G  GGG   !            |
|           WW  WW  A    A  R   R   N   NN  II  N   NN  G    G                |
|           W    W  A    A  R    R  N    N  II  N    N   GGGG   !!!           |
|                                                                             |
|     You use a magnetic or noncollinear calculation, but did not specify     |
|     the initial magnetic moment with the MAGMOM tag. Note that a            |
|     default of 1 will be used for all atoms. This ferromagnetic setup       |
|     may break the symmetry of the crystal, in particular it may rule        |
|     out finding an antiferromagnetic solution. Thence, we recommend         |
|     setting the initial magnetic moment manually or verifying carefully     |
|     that this magnetic setup is desired.                                    |
|                                                                             |
 -----------------------------------------------------------------------------

 POTCAR:    PAW_PBE Ge 05Jan2001                  
   VRHFIN =Ge: s2p2                                                                                 
   LEXCH  = PE                                                                                      
   EATOM  =   104.9960 eV,    7.7170 Ry                                                             
                                                                                                    
   TITEL  = PAW_PBE Ge 05Jan2001                                                                    
   LULTRA =        F    use ultrasoft PP ?                                                          
   IUNSCR =        1    unscreen: 0-lin 1-nonlin 2-no                                               
   RPACOR =    2.170    partial core radius                                                         
   POMASS =   72.610; ZVAL   =    4.000    mass and valenz                                          
   RCORE  =    2.300    outmost cutoff radius                                                       
   RWIGS  =    2.300; RWIGS  =    1.217    wigner-seitz radius (au A)                               
   ENMAX  =  173.807; ENMIN  =  130.355 eV                                                          
   ICORE  =        3    local potential                                                             
   LCOR   =        T    correct aug charges                                                         
   LPAW   =        T    paw PP                                                                      
   EAUG   =  385.843                                                                                
   DEXC   =    0.000                                                                                
   RMAX   =    2.342    core radius for proj-oper                                                   
   RAUG   =    1.300    factor for augmentation sphere                                              
   RDEP   =    2.318    radius for radial grids                                                     
   RDEPT  =    2.103    core radius for aug-charge                                                  
                                                                                                    
   Atomic configuration                                                                             
   10 entries                                                                                       
     n  l   j            E        occ.                                                              
     1  0  0.50    -10959.8463   2.0000                                                             
     2  0  0.50     -1371.6056   2.0000                                                             
     2  1  1.50     -1198.4791   6.0000                                                             
     3  0  0.50      -168.4733   2.0000                                                             
     3  1  1.50      -115.6019   6.0000                                                             
     3  2  2.50       -29.3106  10.0000                                                             
     4  0  0.50       -11.7309   2.0000                                                             
     4  1  0.50        -3.8952   2.0000                                                             
     4  2  1.50        -4.0817   0.0000                                                             
     4  3  2.50        -4.0817   0.0000                                                             
   Description                                                                                      
     l       E           TYP  RCUT    TYP  RCUT                                                     
     0    -11.7309493     23  2.300                                                                 
     0     -7.4578696     23  2.300                                                                 
     1     -3.8952261     23  2.300                                                                 
     1      6.1178114     23  2.300                                                                 
     2     -4.0817478     23  2.300                                                                 
     3     -1.3605826      7  2.300                                                                 
  local pseudopotential read in
  partial core-charges read in
  partial kinetic energy density read in
  atomic valenz-charges read in
  non local Contribution for L=            0  read in
    real space projection operators read in
  non local Contribution for L=            0  read in
    real space projection operators read in
  non local Contribution for L=            1  read in
    real space projection operators read in
  non local Contribution for L=            1  read in
    real space projection operators read in
  non local Contribution for L=            2  read in
    real space projection operators read in
    PAW grid and wavefunctions read in
 
   number of l-projection  operators is LMAX  =            5
   number of lm-projection operators is LMMAX =           13
 
 POTCAR:    PAW_PBE Se 06Sep2000                  
   VRHFIN =Se: s2p4                                                                                 
   LEXCH  = PE                                                                                      
   EATOM  =   257.1286 eV,   18.8984 Ry                                                             
                                                                                                    
   TITEL  = PAW_PBE Se 06Sep2000                                                                    
   LULTRA =        F    use ultrasoft PP ?                                                          
   IUNSCR =        1    unscreen: 0-lin 1-nonlin 2-no                                               
   RPACOR =    1.900    partial core radius                                                         
   POMASS =   78.960; ZVAL   =    6.000    mass and valenz                                          
   RCORE  =    2.100    outmost cutoff radius                                                       
   RWIGS  =    2.200; RWIGS  =    1.164    wigner-seitz radius (au A)                               
   ENMAX  =  211.555; ENMIN  =  158.666 eV                                                          
   ICORE  =        3    local potential                                                             
   LCOR   =        T    correct aug charges                                                         
   LPAW   =        T    paw PP                                                                      
   EAUG   =  446.842                                                                                
   DEXC   =    0.000                                                                                
   RMAX   =    2.147    core radius for proj-oper                                                   
   RAUG   =    1.300    factor for augmentation sphere                                              
   RDEP   =    2.177    radius for radial grids                                                     
   RDEPT  =    1.928    core radius for aug-charge                                                  
                                                                                                    
   Atomic configuration                                                                             
   10 entries                                                                                       
     n  l   j            E        occ.                                                              
     1  0  0.50    -12503.4787   2.0000                                                             
     2  0  0.50     -1606.9547   2.0000                                                             
     2  1  1.50     -1413.3140   6.0000                                                             
     3  0  0.50      -213.4885   2.0000                                                             
     3  1  1.50      -152.9538   6.0000                                                             
     3  2  2.50       -53.1221  10.0000                                                             
     4  0  0.50       -17.2865   2.0000                                                             
     4  1  0.50        -6.5110   4.0000                                                             
     4  2  2.50        -6.8029   0.0000                                                             
     4  3  2.50        -6.8029   0.0000                                                             
   Description                                                                                      
     l       E           TYP  RCUT    TYP  RCUT                                                     
     0    -17.2865377     23  2.100                                                                 
     0    -15.3094411     23  2.100                                                                 
     1     -6.5110275     23  2.100                                                                 
     1     -0.0695192     23  2.100                                                                 
     2     -6.8029130     23  2.100                                                                 
     3     -1.3605826      7  2.100                                                                 
  local pseudopotential read in
  partial core-charges read in
  partial kinetic energy density read in
  atomic valenz-charges read in
  non local Contribution for L=            0  read in
    real space projection operators read in
  non local Contribution for L=            0  read in
    real space projection operators read in
  non local Contribution for L=            1  read in
    real space projection operators read in
  non local Contribution for L=            1  read in
    real space projection operators read in
  non local Contribution for L=            2  read in
    real space projection operators read in
    PAW grid and wavefunctions read in
 
   number of l-projection  operators is LMAX  =            5
   number of lm-projection operators is LMMAX =           13
 
 -----------------------------------------------------------------------------
|                                                                             |
|               ----> ADVICE to this user running VASP <----                  |
|                                                                             |
|     You have a (more or less) 'large supercell' and for larger cells it     |
|     might be more efficient to use real-space projection operators.         |
|     Therefore, try LREAL= Auto in the INCAR file.                           |
|     Mind: For very accurate calculation, you might also keep the            |
|     reciprocal projection scheme (i.e. LREAL=.FALSE.).                      |
|                                                                             |
 -----------------------------------------------------------------------------

  PAW_PBE Ge 05Jan2001                  :
 energy of atom  1       EATOM= -104.9960
 kinetic energy error for atom=    0.0002 (will be added to EATOM!!)
  PAW_PBE Se 06Sep2000                  :
 energy of atom  2       EATOM= -257.1286
 kinetic energy error for atom=    0.0007 (will be added to EATOM!!)
 
 
 POSCAR: Ge Se
  positions in cartesian coordinates
  No initial velocities read in
 exchange correlation table for  LEXCH =        8
   RHO(1)=    0.500       N(1)  =     2000
   RHO(2)=  100.500       N(2)  =     4000
 


--------------------------------------------------------------------------------------------------------


 ion  position               nearest neighbor table
   1  0.066  0.049  0.123-  55 2.51  45 2.60  54 2.76
   2  0.228  0.886  0.383-  48 2.55  67 2.58  45 2.65
   3  0.578  0.224  0.365-  68 2.59  49 2.59  56 2.62
   4  0.581  0.553  0.383-  72 2.64  50 2.66  69 2.71
   5  0.535  0.872  0.373-  48 2.55  70 2.56  50 2.77
   6  0.882  0.180  0.377-  55 2.56  44 2.63  56 2.65
   7  0.900  0.545  0.367-  47 2.51  71 2.58  72 2.77
   8  0.903  0.893  0.368-  53 2.53  44 2.68  45 2.69
   9  0.073  0.143  0.635-  57 2.60  51 2.66
  10  0.053  0.478  0.635-  43 2.53  58 2.58
  11  0.054  0.831  0.627-  59 2.65  52 2.72  39 2.83
  12  0.416  0.164  0.626-  60 2.58  40 2.61
  13  0.401  0.481  0.647-  61 2.51  38 2.52  41 2.73
  14  0.385  0.815  0.621-  62 2.58  39 2.63  42 2.74
  15  0.721  0.143  0.624-  40 2.46  63 2.51  37 2.74
  16  0.737  0.489  0.617-  43 2.65  41 2.66  64 2.70
  17  0.218  0.515  0.391-  66 2.56  46 2.71  47 2.71
  18  0.262  0.224  0.359-  54 2.46  49 2.66  46 2.83
  19  0.735  0.812  0.620-  65 2.61  52 2.65  42 2.72
  20  0.907  0.667  0.863-  52 2.50  64 2.63
  21  0.898  0.996  0.849-  37 2.43  65 2.76  59 2.82
  22  0.061  0.374  0.121-  46 2.59  71 2.59  66 2.77
  23  0.056  0.700  0.137-  47 2.56  53 2.69  67 2.72
  24  0.390  0.056  0.101-  54 2.58  48 2.70  68 2.79
  25  0.402  0.399  0.137-  49 2.51  66 2.63  69 2.65
  26  0.735  0.034  0.115-  44 2.58  68 2.66
  27  0.729  0.383  0.133-  69 2.48  56 2.53  71 2.68
  28  0.373  0.696  0.152-  50 2.42  67 2.50
  29  0.233  0.324  0.859-  38 2.57  57 2.67  60 2.73
  30  0.248  0.665  0.865-  39 2.48  61 2.62
  31  0.240  0.980  0.881-  62 2.59  51 2.61  59 2.61
  32  0.585  0.320  0.884-  41 2.53  60 2.64  63 2.75
  33  0.585  0.645  0.872-  64 2.52  42 2.60  61 2.76
  34  0.564  0.968  0.873-  62 2.55  65 2.57  40 2.59
  35  0.916  0.330  0.865-  43 2.62  57 2.67
  36  0.740  0.733  0.123-  70 2.51  53 2.54  72 2.57
  37  0.890  0.004  0.630-  21 2.43  15 2.74
  38  0.249  0.349  0.629-  13 2.52  29 2.57
  39  0.223  0.681  0.644-  30 2.48  14 2.63  11 2.83
  40  0.568  0.020  0.647-  15 2.46  34 2.59  12 2.61
  41  0.578  0.352  0.658-  32 2.53  16 2.66  13 2.73
  42  0.560  0.683  0.643-  33 2.60  19 2.72  14 2.74
  43  0.896  0.348  0.631-  10 2.53  35 2.62  16 2.65
  44  0.737  0.030  0.347-  26 2.58   6 2.63   8 2.68
  45  0.071  0.028  0.356-   1 2.60   2 2.65   8 2.69
  46  0.076  0.354  0.353-  22 2.59  17 2.71  18 2.83
  47  0.062  0.665  0.364-   7 2.51  23 2.56  17 2.71
  48  0.386  0.009  0.338-   2 2.55   5 2.55  24 2.70
  49  0.424  0.363  0.358-  25 2.51   3 2.59  18 2.66
  50  0.414  0.686  0.365-  28 2.42   4 2.66   5 2.77
  51  0.243  0.014  0.649-  31 2.61   9 2.66
  52  0.899  0.678  0.638-  20 2.50  19 2.65  11 2.72
  53  0.904  0.853  0.145-   8 2.53  36 2.54  23 2.69
  54  0.236  0.190  0.142-  18 2.46  24 2.58   1 2.76
  55  0.921  0.186  0.151-   1 2.51   6 2.56
  56  0.750  0.345  0.355-  27 2.53   3 2.62   6 2.65
  57  0.072  0.183  0.866-   9 2.60  29 2.67  35 2.67
  58  0.081  0.505  0.863-  10 2.58
  59  0.074  0.854  0.864-  31 2.61  11 2.65  21 2.82
  60  0.413  0.198  0.856-  12 2.58  32 2.64  29 2.73
  61  0.401  0.521  0.869-  13 2.51  30 2.62  33 2.76
  62  0.399  0.849  0.850-  34 2.55  14 2.58  31 2.59
  63  0.748  0.175  0.845-  15 2.51  32 2.75
  64  0.749  0.527  0.856-  33 2.52  20 2.63  16 2.70
  65  0.732  0.849  0.851-  34 2.57  19 2.61  21 2.76
  66  0.228  0.516  0.160-  17 2.56  25 2.63  22 2.77
  67  0.227  0.834  0.157-  28 2.50   2 2.58  23 2.72
  68  0.577  0.176  0.137-   3 2.59  26 2.66  24 2.79
  69  0.580  0.514  0.143-  27 2.48  25 2.65   4 2.71
  70  0.584  0.857  0.150-  36 2.51   5 2.56
  71  0.904  0.509  0.138-   7 2.58  22 2.59  27 2.68
  72  0.735  0.694  0.350-  36 2.57   4 2.64   7 2.77
 

IMPORTANT INFORMATION: All symmetrisations will be switched off!
NOSYMM: (Re-)initialisation of all symmetry stuff for point group C_1.


----------------------------------------------------------------------------------------

                                     Primitive cell                                     

  volume of cell :    1724.7741

  direct lattice vectors                    reciprocal lattice vectors
    12.418514871  0.000001240 -0.000001819     0.080524927 -0.000000008  0.000000015
     0.000001250 12.523370006 -0.000000954    -0.000000008  0.079850711  0.000000008
    -0.000002091 -0.000001088 11.090250278     0.000000013  0.000000007  0.090169291

  length of vectors
    12.418514871 12.523370006 11.090250278     0.080524927  0.079850711  0.090169291

  position of ions in fractional coordinates (direct lattice)
     0.066162954  0.048819166  0.122882937
     0.227825651  0.886332677  0.382699366
     0.578105883  0.223659338  0.364590858
     0.580549950  0.552872704  0.383359480
     0.534561527  0.871576081  0.372736160
     0.882355863  0.180166805  0.376950423
     0.899693425  0.545346171  0.366806871
     0.902639295  0.893155739  0.368023112
     0.073495810  0.143133537  0.635428234
     0.052742919  0.477918307  0.635247349
     0.053654293  0.831440514  0.627323140
     0.416256281  0.163963903  0.626072579
     0.401214121  0.480818136  0.646958385
     0.384882072  0.815330319  0.620933084
     0.720856147  0.143337586  0.624163630
     0.737494667  0.489266630  0.616540924
     0.217673863  0.514880461  0.391322285
     0.261631146  0.224082930  0.358563878
     0.734539474  0.812067103  0.619917805
     0.906502252  0.666733726  0.862505802
     0.897797997  0.995576822  0.848581229
     0.060724779  0.373976029  0.120940507
     0.055864087  0.699812800  0.136524273
     0.389678123  0.055787671  0.100697815
     0.401695975  0.399050630  0.136700083
     0.735252314  0.034038473  0.114750918
     0.729465608  0.382864448  0.132547090
     0.372968044  0.696447358  0.152046115
     0.233471674  0.323840501  0.858708496
     0.247634270  0.664635717  0.865297687
     0.240314792  0.980201950  0.881144294
     0.585116913  0.319783093  0.883871164
     0.584677658  0.644801990  0.872415128
     0.564317815  0.967822049  0.872999181
     0.916085157  0.329638291  0.865227864
     0.740438748  0.733181516  0.122521014
     0.890293553  0.003716661  0.630263713
     0.248953979  0.348534352  0.629158319
     0.223154572  0.681265322  0.644380074
     0.567620019  0.020432232  0.647331522
     0.577966611  0.351931558  0.658430006
     0.559627395  0.683162958  0.643385692
     0.896147842  0.348221466  0.630701363
     0.737357704  0.029706355  0.346924851
     0.070815112  0.028040543  0.356160418
     0.075579043  0.354241590  0.352774406
     0.061907390  0.664832738  0.363681268
     0.386323754  0.009340677  0.338136247
     0.423696682  0.363105162  0.357596635
     0.414044303  0.686040631  0.365190108
     0.243359757  0.013957679  0.649057890
     0.899273975  0.678168111  0.637843918
     0.904285683  0.853137805  0.144601389
     0.236390899  0.190011718  0.142232000
     0.921366030  0.186143069  0.150740278
     0.749761809  0.344761037  0.355200078
     0.072263979  0.183079336  0.865551795
     0.080568743  0.504714664  0.863437918
     0.073678330  0.853731361  0.864157426
     0.413200607  0.198226045  0.855891889
     0.400903008  0.520891763  0.868919947
     0.398885756  0.848816421  0.850385630
     0.747653974  0.174780233  0.845458417
     0.748730660  0.527233752  0.856311851
     0.731992482  0.848883338  0.851424991
     0.227565521  0.516376432  0.160321585
     0.227060665  0.834068118  0.157439385
     0.576568067  0.175835539  0.137169392
     0.580350341  0.514057708  0.143283465
     0.583931088  0.857350679  0.149507073
     0.903761236  0.509293694  0.138219461
     0.735436168  0.694408471  0.350163398

  ion indices of the primitive-cell ions
   primitive index   ion index
                 1           1
                 2           2
                 3           3
                 4           4
                 5           5
                 6           6
                 7           7
                 8           8
                 9           9
                10          10
                11          11
                12          12
                13          13
                14          14
                15          15
                16          16
                17          17
                18          18
                19          19
                20          20
                21          21
                22          22
                23          23
                24          24
                25          25
                26          26
                27          27
                28          28
                29          29
                30          30
                31          31
                32          32
                33          33
                34          34
                35          35
                36          36
                37          37
                38          38
                39          39
                40          40
                41          41
                42          42
                43          43
                44          44
                45          45
                46          46
                47          47
                48          48
                49          49
                50          50
                51          51
                52          52
                53          53
                54          54
                55          55
                56          56
                57          57
                58          58
                59          59
                60          60
                61          61
                62          62
                63          63
                64          64
                65          65
                66          66
                67          67
                68          68
                69          69
                70          70
                71          71
                72          72

----------------------------------------------------------------------------------------

 
 
 KPOINTS: KPOINTS created by Atomic Simulation Env

Automatic generation of k-mesh.
 Grid dimensions read from file:
 generate k-points for:    2    2    2

 Generating k-lattice:

  Cartesian coordinates                     Fractional coordinates (reciprocal lattice)
     0.040262463 -0.000000004  0.000000008     0.500000000  0.000000000  0.000000000
    -0.000000004  0.039925356  0.000000004     0.000000000  0.500000000  0.000000000
     0.000000007  0.000000003  0.045084645     0.000000000  0.000000000  0.500000000

  Length of vectors
     0.040262463  0.039925356  0.045084645

  Shift w.r.t. Gamma in fractional coordinates (k-lattice)
     0.000000000  0.000000000  0.000000000

 
 Subroutine IBZKPT returns following result:
 ===========================================
 
 Found      8 irreducible k-points:
 
 Following reciprocal coordinates:
            Coordinates               Weight
  0.000000  0.000000  0.000000      1.000000
  0.500000  0.000000  0.000000      1.000000
  0.000000  0.500000  0.000000      1.000000
  0.500000  0.500000  0.000000      1.000000
  0.000000  0.000000  0.500000      1.000000
  0.500000  0.000000  0.500000      1.000000
  0.000000  0.500000  0.500000      1.000000
  0.500000  0.500000  0.500000      1.000000
 
 Following cartesian coordinates:
            Coordinates               Weight
  0.000000  0.000000  0.000000      1.000000
  0.040262 -0.000000  0.000000      1.000000
 -0.000000  0.039925  0.000000      1.000000
  0.040262  0.039925  0.000000      1.000000
  0.000000  0.000000  0.045085      1.000000
  0.040262 -0.000000  0.045085      1.000000
  0.000000  0.039925  0.045085      1.000000
  0.040262  0.039925  0.045085      1.000000
 
 -----------------------------------------------------------------------------
|                                                                             |
|           W    W    AA    RRRRR   N    N  II  N    N   GGGG   !!!           |
|           W    W   A  A   R    R  NN   N  II  NN   N  G    G  !!!           |
|           W    W  A    A  R    R  N N  N  II  N N  N  G       !!!           |
|           W WW W  AAAAAA  RRRRR   N  N N  II  N  N N  G  GGG   !            |
|           WW  WW  A    A  R   R   N   NN  II  N   NN  G    G                |
|           W    W  A    A  R    R  N    N  II  N    N   GGGG   !!!           |
|                                                                             |
|     The number of bands has been changed from the values supplied in        |
|     the INCAR file. This is a result of running the parallel version.       |
|     The orbitals not found in the WAVECAR file will be initialized with     |
|     random numbers, which is usually adequate. For correlated               |
|     calculations, however, you should redo the groundstate calculation.     |
|     I found NBANDS = 220. Now, NBANDS = 224.                                |
|                                                                             |
 -----------------------------------------------------------------------------



--------------------------------------------------------------------------------------------------------




 Dimension of arrays:
   k-points           NKPTS =      8   k-points in BZ     NKDIM =      8   number of bands    NBANDS=    224
   number of dos      NEDOS =    301   number of ions     NIONS =     72
   non local maximal  LDIM  =      5   non local SUM 2l+1 LMDIM =     13
   total plane-waves  NPLWV = 774144
   max r-space proj   IRMAX =      1   max aug-charges    IRDMAX=  24591
   dimension x,y,z NGX =    96 NGY =   96 NGZ =   84
   dimension x,y,z NGXF=   192 NGYF=  192 NGZF=  168
   support grid    NGXF=   192 NGYF=  192 NGZF=  168
   ions per type =              36  36
   NGX,Y,Z   is equivalent  to a cutoff of  12.85, 12.74, 12.59 a.u.
   NGXF,Y,Z  is equivalent  to a cutoff of  25.70, 25.49, 25.18 a.u.

 SYSTEM =  01_AOPT                                 
 POSCAR =  Ge Se                                   

 Startparameter for this run:
   NWRITE =      2    write-flag & timer
   PREC   = accura    normal or accurate (medium, high low for compatibility)
   ISTART =      0    job   : 0-new  1-cont  2-samecut
   ICHARG =      2    charge: 1-file 2-atom 10-const
   ISPIN  =      2    spin polarized calculation?
   LNONCOLLINEAR =      F non collinear calculations
   LSORBIT =      F    spin-orbit coupling
   INIWAV =      1    electr: 0-lowe 1-rand  2-diag
   LASPH  =      T    aspherical Exc in radial PAW
 Electronic Relaxation 1
   ENCUT  =  520.0 eV  38.22 Ry    6.18 a.u.  23.09 23.29 20.62*2*pi/ulx,y,z
   ENINI  =  520.0     initial cutoff
   ENAUG  =  446.8 eV  augmentation charge cutoff
   NELM   =    100;   NELMIN=  5; NELMDL=  0     # of ELM steps 
   EDIFF  = 0.1E-05   stopping-criterion for ELM
   LREAL  =      F    real-space projection
   NLSPLINE    = F    spline interpolate recip. space projectors
   LCOMPAT=      F    compatible to vasp.4.4
   GGA_COMPAT  = T    GGA compatible to vasp.4.4-vasp.4.6
   LMAXPAW     = -100 max onsite density
   LMAXMIX     =    2 max onsite mixed and CHGCAR
   VOSKOWN=      0    Vosko Wilk Nusair interpolation
   ROPT   =    0.00000   0.00000
 Ionic relaxation
   EDIFFG = 0.1E-04   stopping-criterion for IOM
   NSW    =      0    number of steps for IOM
   NBLOCK =      1;   KBLOCK =      1    inner block; outer block 
   IBRION =     -1    ionic relax: 0-MD 1-quasi-New 2-CG
   NFREE  =      0    steps in history (QN), initial steepest desc. (CG)
   ISIF   =      2    stress and relaxation
   IWAVPR =     10    prediction:  0-non 1-charg 2-wave 3-comb
   ISYM   =     -1    0-nonsym 1-usesym 2-fastsym
   LCORR  =      T    Harris-Foulkes like correction to forces

   POTIM  = 0.5000    time-step for ionic-motion
   TEIN   =    0.0    initial temperature
   TEBEG  =    0.0;   TEEND  =   0.0 temperature during run
   SMASS  =  -3.00    Nose mass-parameter (am)
   estimated Nose-frequenzy (Omega)   =  0.10E-29 period in steps = 0.13E+47 mass=  -0.352E-26a.u.
   SCALEE = 1.0000    scale energy and forces
   NPACO  =    256;   APACO  = 10.0  distance and # of slots for P.C.
   PSTRESS=    0.0 pullay stress

  Mass of Ions in am
   POMASS =  72.61 78.96
  Ionic Valenz
   ZVAL   =   4.00  6.00
  Atomic Wigner-Seitz radii
   RWIGS  =  -1.00 -1.00
  virtual crystal weights 
   VCA    =   1.00  1.00
   NELECT =     360.0000    total number of electrons
   NUPDOWN=      -1.0000    fix difference up-down

 DOS related values:
   EMIN   =  10.00;   EMAX   =-10.00  energy-range for DOS
   EFERMI =   0.00;   METHOD = LEGACY      
   ISMEAR =     0;   SIGMA  =   0.05  broadening in eV -4-tet -1-fermi 0-gaus

 Electronic relaxation 2 (details)
   IALGO  =     38    algorithm
   LDIAG  =      T    sub-space diagonalisation (order eigenvalues)
   LSUBROT=      F    optimize rotation matrix (better conditioning)
   TURBO    =      0    0=normal 1=particle mesh
   IRESTART =      0    0=no restart 2=restart with 2 vectors
   NREBOOT  =      0    no. of reboots
   NMIN     =      0    reboot dimension
   EREF     =   0.00    reference energy to select bands
   IMIX   =      4    mixing-type and parameters
     AMIX     =   0.40;   BMIX     =  1.00
     AMIX_MAG =   1.60;   BMIX_MAG =  1.00
     AMIN     =   0.10
     WC   =   100.;   INIMIX=   1;  MIXPRE=   1;  MAXMIX= -45

 Intra band minimization:
   WEIMIN = 0.0000     energy-eigenvalue tresh-hold
   EBREAK =  0.11E-08  absolut break condition
   DEPER  =   0.30     relativ break condition  

   TIME   =   0.40     timestep for ELM

  volume/ion in A,a.u.               =      23.96       161.66
  Fermi-wavevector in a.u.,A,eV,Ry     =   0.971102  1.835117 12.830830  0.943039
  Thomas-Fermi vector in A             =   2.101292
 
 Write flags
   LWAVE        =      F    write WAVECAR
   LDOWNSAMPLE  =      F    k-point downsampling of WAVECAR
   LCHARG       =      F    write CHGCAR
   LVTOT        =      F    write LOCPOT, total local potential
   LVHAR        =      F    write LOCPOT, Hartree potential only
   LELF         =      F    write electronic localiz. function (ELF)
   LORBIT       =     11    0 simple, 1 ext, 2 COOP (PROOUT), +10 PAW based schemes


 Dipole corrections
   LMONO  =      F    monopole corrections only (constant potential shift)
   LDIPOL =      F    correct potential (dipole corrections)
   IDIPOL =      0    1-x, 2-y, 3-z, 4-all directions 
   EPSILON=  1.0000000 bulk dielectric constant

 Exchange correlation treatment:
   GGA     =    PE    GGA type
   LEXCH   =     8    internal setting for exchange type
   LIBXC   =     F    Libxc                    
   VOSKOWN =     0    Vosko Wilk Nusair interpolation
   LHFCALC =     F    Hartree Fock is set to
   LHFONE  =     F    Hartree Fock one center treatment
   AEXX    =    0.0000 exact exchange contribution

 Linear response parameters
   LEPSILON=     F    determine dielectric tensor
   LRPA    =     F    only Hartree local field effects (RPA)
   LNABLA  =     F    use nabla operator in PAW spheres
   LVEL    =     F    velocity operator in full k-point grid
   CSHIFT  =0.1000    complex shift for real part using Kramers Kronig
   OMEGAMAX=  -1.0    maximum frequency
   DEG_THRESHOLD= 0.2000000E-02 threshold for treating states as degnerate
   RTIME   =   -0.100 relaxation time in fs
  (WPLASMAI=    0.000 imaginary part of plasma frequency in eV, 0.658/RTIME)
   DFIELD  = 0.0000000 0.0000000 0.0000000 field for delta impulse in time
 
  Optional k-point grid parameters
   LKPOINTS_OPT  =     F    use optional k-point grid
   KPOINTS_OPT_MODE=     1    mode for optional k-point grid
 
 Orbital magnetization related:
   ORBITALMAG=     F  switch on orbital magnetization
   LCHIMAG   =     F  perturbation theory with respect to B field
   DQ        =  0.001000  dq finite difference perturbation B field
   LLRAUG    =     F  two centre corrections for induced B field
   LBONE     =     F  B-component reconstruction in AE one-centre
   LVGVCALC  =     T  calculate vGv susceptibility
   LVGVAPPL  =     F  apply vGv susceptibility instead of pGv for G=0

 Random number generation:
   RANDOM_GENERATOR = DEFAULT
   PCG_SEED         = not used


--------------------------------------------------------------------------------------------------------


 Static calculation
 charge density and potential will be updated during run
 spin polarized calculation
 Variant of blocked Davidson
 Davidson routine will perform the subspace rotation
 perform sub-space diagonalisation
    after iterative eigenvector-optimisation
 modified Broyden-mixing scheme, WC =      100.0
 initial mixing is a Kerker type mixing with AMIX =  0.4000 and BMIX =      1.0000
 Hartree-type preconditioning will be used
 using additional bands            44
 reciprocal scheme for non local part
 use partial core corrections
 calculate Harris-corrections to forces 
   (improved forces if not selfconsistent)
 use gradient corrections 
 use of overlap-Matrix (Vanderbilt PP)
 Gauss-broadening in eV      SIGMA  =   0.05


--------------------------------------------------------------------------------------------------------


  energy-cutoff  :      520.00
  volume of cell :     1724.77
      direct lattice vectors                 reciprocal lattice vectors
    12.418514871  0.000001240 -0.000001819     0.080524927 -0.000000008  0.000000015
     0.000001250 12.523370006 -0.000000954    -0.000000008  0.079850711  0.000000008
    -0.000002091 -0.000001088 11.090250278     0.000000013  0.000000007  0.090169291

  length of vectors
    12.418514871 12.523370006 11.090250278     0.080524927  0.079850711  0.090169291


 
 k-points in units of 2pi/SCALE and weight: KPOINTS created by Atomic Simulation Env
   0.00000000  0.00000000  0.00000000       0.125
   0.04026246 -0.00000000  0.00000001       0.125
  -0.00000000  0.03992536  0.00000000       0.125
   0.04026246  0.03992535  0.00000001       0.125
   0.00000001  0.00000000  0.04508465       0.125
   0.04026247 -0.00000000  0.04508465       0.125
   0.00000000  0.03992536  0.04508465       0.125
   0.04026247  0.03992535  0.04508466       0.125
 
 k-points in reciprocal lattice and weights: KPOINTS created by Atomic Simulation Env
   0.00000000  0.00000000  0.00000000       0.125
   0.50000000  0.00000000  0.00000000       0.125
   0.00000000  0.50000000  0.00000000       0.125
   0.50000000  0.50000000  0.00000000       0.125
   0.00000000  0.00000000  0.50000000       0.125
   0.50000000  0.00000000  0.50000000       0.125
   0.00000000  0.50000000  0.50000000       0.125
   0.50000000  0.50000000  0.50000000       0.125
 
 position of ions in fractional coordinates (direct lattice) 
   0.06616295  0.04881917  0.12288294
   0.22782565  0.88633268  0.38269937
   0.57810588  0.22365934  0.36459086
   0.58054995  0.55287270  0.38335948
   0.53456153  0.87157608  0.37273616
   0.88235586  0.18016680  0.37695042
   0.89969342  0.54534617  0.36680687
   0.90263929  0.89315574  0.36802311
   0.07349581  0.14313354  0.63542823
   0.05274292  0.47791831  0.63524735
   0.05365429  0.83144051  0.62732314
   0.41625628  0.16396390  0.62607258
   0.40121412  0.48081814  0.64695838
   0.38488207  0.81533032  0.62093308
   0.72085615  0.14333759  0.62416363
   0.73749467  0.48926663  0.61654092
   0.21767386  0.51488046  0.39132228
   0.26163115  0.22408293  0.35856388
   0.73453947  0.81206710  0.61991781
   0.90650225  0.66673373  0.86250580
   0.89779800  0.99557682  0.84858123
   0.06072478  0.37397603  0.12094051
   0.05586409  0.69981280  0.13652427
   0.38967812  0.05578767  0.10069781
   0.40169598  0.39905063  0.13670008
   0.73525231  0.03403847  0.11475092
   0.72946561  0.38286445  0.13254709
   0.37296804  0.69644736  0.15204611
   0.23347167  0.32384050  0.85870850
   0.24763427  0.66463572  0.86529769
   0.24031479  0.98020195  0.88114429
   0.58511691  0.31978309  0.88387116
   0.58467766  0.64480199  0.87241513
   0.56431782  0.96782205  0.87299918
   0.91608516  0.32963829  0.86522786
   0.74043875  0.73318152  0.12252101
   0.89029355  0.00371666  0.63026371
   0.24895398  0.34853435  0.62915832
   0.22315457  0.68126532  0.64438007
   0.56762002  0.02043223  0.64733152
   0.57796661  0.35193156  0.65843001
   0.55962739  0.68316296  0.64338569
   0.89614784  0.34822147  0.63070136
   0.73735770  0.02970635  0.34692485
   0.07081511  0.02804054  0.35616042
   0.07557904  0.35424159  0.35277441
   0.06190739  0.66483274  0.36368127
   0.38632375  0.00934068  0.33813625
   0.42369668  0.36310516  0.35759663
   0.41404430  0.68604063  0.36519011
   0.24335976  0.01395768  0.64905789
   0.89927398  0.67816811  0.63784392
   0.90428568  0.85313781  0.14460139
   0.23639090  0.19001172  0.14223200
   0.92136603  0.18614307  0.15074028
   0.74976181  0.34476104  0.35520008
   0.07226398  0.18307934  0.86555179
   0.08056874  0.50471466  0.86343792
   0.07367833  0.85373136  0.86415743
   0.41320061  0.19822604  0.85589189
   0.40090301  0.52089176  0.86891995
   0.39888576  0.84881642  0.85038563
   0.74765397  0.17478023  0.84545842
   0.74873066  0.52723375  0.85631185
   0.73199248  0.84888334  0.85142499
   0.22756552  0.51637643  0.16032159
   0.22706066  0.83406812  0.15743938
   0.57656807  0.17583554  0.13716939
   0.58035034  0.51405771  0.14328347
   0.58393109  0.85735068  0.14950707
   0.90376124  0.50929369  0.13821946
   0.73543617  0.69440847  0.35016340
 
 position of ions in cartesian coordinates  (Angst):
   0.82164543  0.61138043  1.36280236
   2.82925655 11.09987192  4.24423049
   7.17921602  2.80096897  4.04340260
   7.20956808  6.92382974  4.25155099
   6.63846059 10.91507001  4.13373550
  10.95754884  2.25629624  4.18047276
  11.17285609  6.82957260  4.06797784
  11.20943985 11.18532051  4.08146593
   0.91270766  1.79251364  7.04705788
   0.65498799  5.98514717  7.04505154
   0.66630637 10.41243658  6.95716974
   5.16928372  2.05338046  6.94330068
   4.98248278  6.02146322  7.17492922
   4.77966346 10.21068306  6.88630182
   8.95196165  1.79506984  6.92212942
   9.15858782  6.12726729  6.83759134
   2.70318593  6.44803836  4.33986119
   3.24906981  2.80627338  3.97656245
   9.12188910 10.16981703  6.87504150
  11.25741073  8.34975334  9.56540293
  11.14931725 12.46797710  9.41097562
   0.75411179  4.68344013  1.34126003
   0.69374958  8.76401455  1.51408758
   4.83922343  0.69865002  1.11676320
   4.98846765  4.99745904  1.51603702
   9.13074160  0.42627718  1.27261503
   9.05887971  4.79475390  1.46997871
   4.63170975  8.72186826  1.68622812
   2.89937006  4.05557377  9.52329140
   3.07524889  8.32347837  9.59636683
   2.98435220 12.27543104  9.77210938
   7.26628164  4.00476176  9.80235105
   7.26082717  8.07509368  9.67530044
   7.00798857 12.12039337  9.68177746
  11.37641574  4.12818248  9.59559158
   9.19515027  9.18190419  1.35878667
  11.05612241  0.04654554  6.98978069
   3.09163781  4.36482428  6.97752244
   2.77124787  8.53173728  7.14633524
   7.04899632  0.25588040  7.17906754
   7.17748602  4.40736912  7.30215217
   6.94974063  8.55550250  7.13530668
  11.12882442  4.36090668  6.99463400
   9.15688692  0.37202421  3.84748206
   0.87941781  0.35116180  3.94990801
   0.93857917  4.43629822  3.91235598
   0.76879791  8.32594605  4.03331554
   4.79756658  0.11697687  3.75001490
   5.26168325  4.54730043  3.96583506
   5.14181542  8.59154078  4.05004829
   3.02216542  0.17479678  7.19821399
  11.16764675  8.49295060  7.07384641
  11.22988597 10.68416136  1.60366314
   2.93562384  2.37958719  1.57738787
  11.44199767  2.33113951  1.67174555
   9.31092786  4.31757057  3.93925607
   0.89740972  2.29276942  9.59918573
   1.00054296  6.32072764  9.57574198
   0.91497470 10.69159287  9.58372119
   5.13133634  2.48245768  9.49205432
   4.97861880  6.52331984  9.63653845
   4.95356798 10.63004167  9.43098793
   9.28475044  2.18883754  9.37634392
   9.29812171  6.60274336  9.49671087
   9.09025880 10.63088012  9.44251411
   2.82602612  6.46677323  1.77800560
   2.81975695 10.44534376  1.74604097
   7.16011905  2.20205409  1.52124167
   7.20708968  6.43773545  1.58904795
   7.25155766 10.73692034  1.65806898
  11.22337269  6.37807434  1.53288629
   9.13302512  8.69633475  3.88339772
 


--------------------------------------------------------------------------------------------------------


 k-point   1 :   0.0000 0.0000 0.0000  plane waves:   46405
 k-point   2 :   0.5000 0.0000 0.0000  plane waves:   46490
 k-point   3 :   0.0000 0.5000 0.0000  plane waves:   46398
 k-point   4 :   0.5000 0.5000 0.0000  plane waves:   46476
 k-point   5 :   0.0000 0.0000 0.5000  plane waves:   46494
 k-point   6 :   0.5000 0.0000 0.5000  plane waves:   46436
 k-point   7 :   0.0000 0.5000 0.5000  plane waves:   46456
 k-point   8 :   0.5000 0.5000 0.5000  plane waves:   46392

 maximum and minimum number of plane-waves per node :      5854     5752

 maximum number of plane-waves:     46494
 maximum index in each direction: 
   IXMAX=   23   IYMAX=   23   IZMAX=   20
   IXMIN=  -23   IYMIN=  -23   IZMIN=  -21


 parallel 3D FFT for wavefunctions:
    minimum data exchange during FFTs selected (reduces bandwidth)
 parallel 3D FFT for charge:
    minimum data exchange during FFTs selected (reduces bandwidth)


 total amount of memory used by VASP MPI-rank0   110845. kBytes
=======================================================================

   base      :      30000. kBytes
   nonl-proj :      16377. kBytes
   fftplans  :       6180. kBytes
   grid      :      15593. kBytes
   one-center:        146. kBytes
   wavefun   :      42549. kBytes
 
     INWAV:  cpu time      0.0000: real time      0.0001
 Broyden mixing: mesh for mixing (old mesh)
   NGX = 47   NGY = 47   NGZ = 41
  (NGX  =192   NGY  =192   NGZ  =168)
  gives a total of  90569 points

 initial charge density was supplied:
 charge density of overlapping atoms calculated
 number of electron     360.0000000 magnetization      72.0000000
 keeping initial charge density in first step


--------------------------------------------------------------------------------------------------------


 Maximum index for augmentation-charges           809 (set IRDMAX)


--------------------------------------------------------------------------------------------------------


 First call to EWALD:  gamma=   0.148
 Maximum number of real-space cells 3x 3x 3
 Maximum number of reciprocal cells 3x 3x 3

    FEWALD:  cpu time      0.0073: real time      0.0073


--------------------------------------- Ionic step        1  -------------------------------------------




--------------------------------------- Iteration      1(   1)  ---------------------------------------


    POTLOK:  cpu time      0.1390: real time      0.1400
    SETDIJ:  cpu time      0.5976: real time      0.5996
     EDDAV:  cpu time      8.6242: real time      8.6717
       DOS:  cpu time      0.0015: real time      0.0015
    --------------------------------------------
      LOOP:  cpu time      9.3623: real time      9.4127

 eigenvalue-minimisations  :  7168
 total energy-change (2. order) : 0.1815781E+04  (-0.1418266E+05)
 number of electron     360.0000000 magnetization      72.0000000
 augmentation part      360.0000000 magnetization      72.0000000

 Free energy of the ion-electron system (eV)
  ---------------------------------------------------
  alpha Z        PSCENC =       795.75643203
  Ewald energy   TEWEN  =    -12847.78401216
  -Hartree energ DENC   =     -1121.04995778
  -exchange      EXHF   =         0.00000000
  -V(xc)+E(xc)   XCENC  =      -293.76562625
  PAW double counting   =     10738.42099860    -9719.93139476
  entropy T*S    EENTRO =        -0.02222303
  eigenvalues    EBANDS =      1227.70525773
  atomic energy  EATOM  =     13036.45147835
  Solvation  Ediel_sol  =         0.00000000
  ---------------------------------------------------
  free energy    TOTEN  =      1815.78095272 eV

  energy without entropy =     1815.80317575  energy(sigma->0) =     1815.79206423


--------------------------------------------------------------------------------------------------------




--------------------------------------- Iteration      1(   2)  ---------------------------------------


     EDDAV:  cpu time      9.7633: real time      9.8164
       DOS:  cpu time      0.0012: real time      0.0012
    --------------------------------------------
      LOOP:  cpu time      9.7645: real time      9.8176

 eigenvalue-minimisations  :  8488
 total energy-change (2. order) :-0.1880488E+04  (-0.1804980E+04)
 number of electron     360.0000000 magnetization      72.0000000
 augmentation part      360.0000000 magnetization      72.0000000

 Free energy of the ion-electron system (eV)
  ---------------------------------------------------
  alpha Z        PSCENC =       795.75643203
  Ewald energy   TEWEN  =    -12847.78401216
  -Hartree energ DENC   =     -1121.04995778
  -exchange      EXHF   =         0.00000000
  -V(xc)+E(xc)   XCENC  =      -293.76562625
  PAW double counting   =     10738.42099860    -9719.93139476
  entropy T*S    EENTRO =        -0.01706119
  eigenvalues    EBANDS =      -652.78795747
  atomic energy  EATOM  =     13036.45147835
  Solvation  Ediel_sol  =         0.00000000
  ---------------------------------------------------
  free energy    TOTEN  =       -64.70710063 eV

  energy without entropy =      -64.69003945  energy(sigma->0) =      -64.69857004


--------------------------------------------------------------------------------------------------------




--------------------------------------- Iteration      1(   3)  ---------------------------------------


     EDDAV:  cpu time      9.8644: real time      9.9148
       DOS:  cpu time      0.0013: real time      0.0013
    --------------------------------------------
      LOOP:  cpu time      9.8657: real time      9.9161

 eigenvalue-minimisations  :  8576
 total energy-change (2. order) :-0.2171613E+03  (-0.2112289E+03)
 number of electron     360.0000000 magnetization      72.0000000
 augmentation part      360.0000000 magnetization      72.0000000

 Free energy of the ion-electron system (eV)
  ---------------------------------------------------
  alpha Z        PSCENC =       795.75643203
  Ewald energy   TEWEN  =    -12847.78401216
  -Hartree energ DENC   =     -1121.04995778
  -exchange      EXHF   =         0.00000000
  -V(xc)+E(xc)   XCENC  =      -293.76562625
  PAW double counting   =     10738.42099860    -9719.93139476
  entropy T*S    EENTRO =        -0.00002335
  eigenvalues    EBANDS =      -869.96628630
  atomic energy  EATOM  =     13036.45147835
  Solvation  Ediel_sol  =         0.00000000
  ---------------------------------------------------
  free energy    TOTEN  =      -281.86839163 eV

  energy without entropy =     -281.86836827  energy(sigma->0) =     -281.86837995


--------------------------------------------------------------------------------------------------------




--------------------------------------- Iteration      1(   4)  ---------------------------------------


     EDDAV:  cpu time     10.0408: real time     10.0913
       DOS:  cpu time      0.0012: real time      0.0012
    --------------------------------------------
      LOOP:  cpu time     10.0421: real time     10.0925

 eigenvalue-minimisations  :  8784
 total energy-change (2. order) :-0.7977905E+01  (-0.7890315E+01)
 number of electron     360.0000000 magnetization      72.0000000
 augmentation part      360.0000000 magnetization      72.0000000

 Free energy of the ion-electron system (eV)
  ---------------------------------------------------
  alpha Z        PSCENC =       795.75643203
  Ewald energy   TEWEN  =    -12847.78401216
  -Hartree energ DENC   =     -1121.04995778
  -exchange      EXHF   =         0.00000000
  -V(xc)+E(xc)   XCENC  =      -293.76562625
  PAW double counting   =     10738.42099860    -9719.93139476
  entropy T*S    EENTRO =        -0.00000204
  eigenvalues    EBANDS =      -877.94421307
  atomic energy  EATOM  =     13036.45147835
  Solvation  Ediel_sol  =         0.00000000
  ---------------------------------------------------
  free energy    TOTEN  =      -289.84629708 eV

  energy without entropy =     -289.84629505  energy(sigma->0) =     -289.84629606


--------------------------------------------------------------------------------------------------------




--------------------------------------- Iteration      1(   5)  ---------------------------------------


     EDDAV:  cpu time     10.2140: real time     10.2661
       DOS:  cpu time      0.0010: real time      0.0010
    CHARGE:  cpu time      0.4328: real time      0.4345
    MIXING:  cpu time      0.0076: real time      0.0077
    --------------------------------------------
      LOOP:  cpu time     10.6554: real time     10.7093

 eigenvalue-minimisations  :  9024
 total energy-change (2. order) :-0.2871463E+00  (-0.2863429E+00)
 number of electron     359.9999986 magnetization      48.8333846
 augmentation part      -66.8282355 magnetization      49.0453308

 Broyden mixing:
  rms(total) = 0.29136E+01    rms(broyden)= 0.29136E+01
  rms(prec ) = 0.30674E+01
  weight for this iteration     100.00

 Free energy of the ion-electron system (eV)
  ---------------------------------------------------
  alpha Z        PSCENC =       795.75643203
  Ewald energy   TEWEN  =    -12847.78401216
  -Hartree energ DENC   =     -1121.04995778
  -exchange      EXHF   =         0.00000000
  -V(xc)+E(xc)   XCENC  =      -293.76562625
  PAW double counting   =     10738.42099860    -9719.93139476
  entropy T*S    EENTRO =        -0.00000227
  eigenvalues    EBANDS =      -878.23135911
  atomic energy  EATOM  =     13036.45147835
  Solvation  Ediel_sol  =         0.00000000
  ---------------------------------------------------
  free energy    TOTEN  =      -290.13344336 eV

  energy without entropy =     -290.13344109  energy(sigma->0) =     -290.13344222


--------------------------------------------------------------------------------------------------------




--------------------------------------- Iteration      1(   6)  ---------------------------------------


    POTLOK:  cpu time      0.1362: real time      0.1374
    SETDIJ:  cpu time      0.6069: real time      0.6093
     EDDAV:  cpu time      9.3345: real time      9.3865
       DOS:  cpu time      0.0011: real time      0.0011
    CHARGE:  cpu time      0.4228: real time      0.4248
    MIXING:  cpu time      0.0078: real time      0.0078
    --------------------------------------------
      LOOP:  cpu time     10.5092: real time     10.5669

 eigenvalue-minimisations  :  7920
 total energy-change (2. order) : 0.2282475E+00  (-0.2647415E+01)
 number of electron     359.9999986 magnetization      27.9782446
 augmentation part      -66.2093930 magnetization      29.1565612

 Broyden mixing:
  rms(total) = 0.17247E+01    rms(broyden)= 0.17247E+01
  rms(prec ) = 0.17614E+01
  weight for this iteration     100.00

 eigenvalues of (default mixing * dielectric matrix)
  average eigenvalue GAMMA=   1.0073
  1.0073

 Free energy of the ion-electron system (eV)
  ---------------------------------------------------
  alpha Z        PSCENC =       795.75643203
  Ewald energy   TEWEN  =    -12847.78401216
  -Hartree energ DENC   =     -1174.51476276
  -exchange      EXHF   =         0.00000000
  -V(xc)+E(xc)   XCENC  =      -287.19671467
  PAW double counting   =     13025.94763597   -12010.98405109
  entropy T*S    EENTRO =        -0.00000067
  eigenvalues    EBANDS =      -827.58120089
  atomic energy  EATOM  =     13036.45147835
  Solvation  Ediel_sol  =         0.00000000
  ---------------------------------------------------
  free energy    TOTEN  =      -289.90519589 eV

  energy without entropy =     -289.90519522  energy(sigma->0) =     -289.90519556


--------------------------------------------------------------------------------------------------------




--------------------------------------- Iteration      1(   7)  ---------------------------------------


    POTLOK:  cpu time      0.1296: real time      0.1303
    SETDIJ:  cpu time      0.6035: real time      0.6056
     EDDAV:  cpu time      9.3473: real time      9.3944
       DOS:  cpu time      0.0006: real time      0.0006
    CHARGE:  cpu time      0.4236: real time      0.4254
    MIXING:  cpu time      0.0080: real time      0.0081
    --------------------------------------------
      LOOP:  cpu time     10.5127: real time     10.5644

 eigenvalue-minimisations  :  8000
 total energy-change (2. order) :-0.7178007E+01  (-0.8567583E+00)
 number of electron     359.9999986 magnetization       9.1155451
 augmentation part      -66.2018370 magnetization       9.7919890

 Broyden mixing:
  rms(total) = 0.90941E+00    rms(broyden)= 0.90941E+00
  rms(prec ) = 0.92532E+00
  weight for this iteration     100.00

 eigenvalues of (default mixing * dielectric matrix)
  average eigenvalue GAMMA=   1.4604
  0.8617  2.0591

 Free energy of the ion-electron system (eV)
  ---------------------------------------------------
  alpha Z        PSCENC =       795.75643203
  Ewald energy   TEWEN  =    -12847.78401216
  -Hartree energ DENC   =     -1191.28881430
  -exchange      EXHF   =         0.00000000
  -V(xc)+E(xc)   XCENC  =      -290.14951834
  PAW double counting   =     15121.07509821   -14107.74570136
  entropy T*S    EENTRO =        -0.00000000
  eigenvalues    EBANDS =      -813.39816562
  atomic energy  EATOM  =     13036.45147835
  Solvation  Ediel_sol  =         0.00000000
  ---------------------------------------------------
  free energy    TOTEN  =      -297.08320320 eV

  energy without entropy =     -297.08320320  energy(sigma->0) =     -297.08320320


--------------------------------------------------------------------------------------------------------




--------------------------------------- Iteration      1(   8)  ---------------------------------------


    POTLOK:  cpu time      0.1293: real time      0.1300
    SETDIJ:  cpu time      0.6039: real time      0.6061
     EDDAV:  cpu time      9.5677: real time      9.6144
       DOS:  cpu time      0.0009: real time      0.0009
    CHARGE:  cpu time      0.4263: real time      0.4280
    MIXING:  cpu time      0.0075: real time      0.0076
    --------------------------------------------
      LOOP:  cpu time     10.7356: real time     10.7871

 eigenvalue-minimisations  :  8184
 total energy-change (2. order) :-0.3233166E+01  (-0.1743037E+00)
 number of electron     359.9999986 magnetization       4.3411260
 augmentation part      -66.2099511 magnetization       4.6469217

 Broyden mixing:
  rms(total) = 0.32494E+00    rms(broyden)= 0.32494E+00
  rms(prec ) = 0.33035E+00
  weight for this iteration     100.00

 eigenvalues of (default mixing * dielectric matrix)
  average eigenvalue GAMMA=   1.3635
  2.5073  0.9262  0.6571

 Free energy of the ion-electron system (eV)
  ---------------------------------------------------
  alpha Z        PSCENC =       795.75643203
  Ewald energy   TEWEN  =    -12847.78401216
  -Hartree energ DENC   =     -1196.22286638
  -exchange      EXHF   =         0.00000000
  -V(xc)+E(xc)   XCENC  =      -289.81383834
  PAW double counting   =     16917.85479948   -15905.48322918
  entropy T*S    EENTRO =        -0.00000000
  eigenvalues    EBANDS =      -811.07513255
  atomic energy  EATOM  =     13036.45147835
  Solvation  Ediel_sol  =         0.00000000
  ---------------------------------------------------
  free energy    TOTEN  =      -300.31636876 eV

  energy without entropy =     -300.31636876  energy(sigma->0) =     -300.31636876


--------------------------------------------------------------------------------------------------------




--------------------------------------- Iteration      1(   9)  ---------------------------------------


    POTLOK:  cpu time      0.1299: real time      0.1306
    SETDIJ:  cpu time      0.6031: real time      0.6054
     EDDAV:  cpu time     10.3046: real time     10.3561
       DOS:  cpu time      0.0008: real time      0.0008
    CHARGE:  cpu time      0.4217: real time      0.4238
    MIXING:  cpu time      0.0076: real time      0.0076
    --------------------------------------------
      LOOP:  cpu time     11.4678: real time     11.5243

 eigenvalue-minimisations  :  9056
 total energy-change (2. order) :-0.3752772E+00  (-0.4230936E-01)
 number of electron     359.9999986 magnetization       2.2855128
 augmentation part      -66.2477774 magnetization       2.4380103

 Broyden mixing:
  rms(total) = 0.14738E+00    rms(broyden)= 0.14738E+00
  rms(prec ) = 0.14901E+00
  weight for this iteration     100.00

 eigenvalues of (default mixing * dielectric matrix)
  average eigenvalue GAMMA=   1.3318
  2.6353  1.2388  0.8324  0.6207

 Free energy of the ion-electron system (eV)
  ---------------------------------------------------
  alpha Z        PSCENC =       795.75643203
  Ewald energy   TEWEN  =    -12847.78401216
  -Hartree energ DENC   =     -1195.19831771
  -exchange      EXHF   =         0.00000000
  -V(xc)+E(xc)   XCENC  =      -289.86071991
  PAW double counting   =     17197.95798306   -16185.92056842
  entropy T*S    EENTRO =        -0.00000000
  eigenvalues    EBANDS =      -812.09392116
  atomic energy  EATOM  =     13036.45147835
  Solvation  Ediel_sol  =         0.00000000
  ---------------------------------------------------
  free energy    TOTEN  =      -300.69164592 eV

  energy without entropy =     -300.69164592  energy(sigma->0) =     -300.69164592


--------------------------------------------------------------------------------------------------------




--------------------------------------- Iteration      1(  10)  ---------------------------------------


    POTLOK:  cpu time      0.1289: real time      0.1296
    SETDIJ:  cpu time      0.6037: real time      0.6059
     EDDAV:  cpu time      9.5362: real time      9.5883
       DOS:  cpu time      0.0008: real time      0.0009
    CHARGE:  cpu time      0.4255: real time      0.4273
    MIXING:  cpu time      0.0094: real time      0.0095
    --------------------------------------------
      LOOP:  cpu time     10.7047: real time     10.7613

 eigenvalue-minimisations  :  8136
 total energy-change (2. order) :-0.1026132E+00  (-0.9503770E-02)
 number of electron     359.9999986 magnetization       0.7344280
 augmentation part      -66.2493126 magnetization       0.8022650

 Broyden mixing:
  rms(total) = 0.73039E-01    rms(broyden)= 0.73039E-01
  rms(prec ) = 0.74156E-01
  weight for this iteration     100.00

 eigenvalues of (default mixing * dielectric matrix)
  average eigenvalue GAMMA=   1.3792
  2.7046  1.7692  0.9730  0.8228  0.6263

 Free energy of the ion-electron system (eV)
  ---------------------------------------------------
  alpha Z        PSCENC =       795.75643203
  Ewald energy   TEWEN  =    -12847.78401216
  -Hartree energ DENC   =     -1195.39361066
  -exchange      EXHF   =         0.00000000
  -V(xc)+E(xc)   XCENC  =      -289.86133310
  PAW double counting   =     17202.77602493   -16190.74945070
  entropy T*S    EENTRO =        -0.00000000
  eigenvalues    EBANDS =      -811.98978780
  atomic energy  EATOM  =     13036.45147835
  Solvation  Ediel_sol  =         0.00000000
  ---------------------------------------------------
  free energy    TOTEN  =      -300.79425911 eV

  energy without entropy =     -300.79425911  energy(sigma->0) =     -300.79425911


--------------------------------------------------------------------------------------------------------




--------------------------------------- Iteration      1(  11)  ---------------------------------------


    POTLOK:  cpu time      0.1290: real time      0.1297
    SETDIJ:  cpu time      0.6058: real time      0.6079
     EDDAV:  cpu time     10.1143: real time     10.1655
       DOS:  cpu time      0.0007: real time      0.0007
    CHARGE:  cpu time      0.4185: real time      0.4204
    MIXING:  cpu time      0.0078: real time      0.0078
    --------------------------------------------
      LOOP:  cpu time     11.2761: real time     11.3320

 eigenvalue-minimisations  :  8896
 total energy-change (2. order) :-0.3118331E-01  (-0.3551520E-02)
 number of electron     359.9999986 magnetization       0.1773320
 augmentation part      -66.2343563 magnetization       0.1961624

 Broyden mixing:
  rms(total) = 0.28280E-01    rms(broyden)= 0.28280E-01
  rms(prec ) = 0.28674E-01
  weight for this iteration     100.00

 eigenvalues of (default mixing * dielectric matrix)
  average eigenvalue GAMMA=   1.4067
  2.9092  2.1739  1.1766  0.8555  0.7006  0.6245

 Free energy of the ion-electron system (eV)
  ---------------------------------------------------
  alpha Z        PSCENC =       795.75643203
  Ewald energy   TEWEN  =    -12847.78401216
  -Hartree energ DENC   =     -1196.53796776
  -exchange      EXHF   =         0.00000000
  -V(xc)+E(xc)   XCENC  =      -289.81829649
  PAW double counting   =     17125.81992999   -16113.76596635
  entropy T*S    EENTRO =        -0.00000000
  eigenvalues    EBANDS =      -810.94704003
  atomic energy  EATOM  =     13036.45147835
  Solvation  Ediel_sol  =         0.00000000
  ---------------------------------------------------
  free energy    TOTEN  =      -300.82544242 eV

  energy without entropy =     -300.82544242  energy(sigma->0) =     -300.82544242


--------------------------------------------------------------------------------------------------------




--------------------------------------- Iteration      1(  12)  ---------------------------------------


    POTLOK:  cpu time      0.1311: real time      0.1331
    SETDIJ:  cpu time      0.6041: real time      0.6061
     EDDAV:  cpu time      9.9064: real time      9.9559
       DOS:  cpu time      0.0011: real time      0.0011
    CHARGE:  cpu time      0.4157: real time      0.4175
    MIXING:  cpu time      0.0083: real time      0.0083
    --------------------------------------------
      LOOP:  cpu time     11.0666: real time     11.1221

 eigenvalue-minimisations  :  8480
 total energy-change (2. order) :-0.3329029E-02  (-0.4641928E-03)
 number of electron     359.9999986 magnetization       0.0604138
 augmentation part      -66.2339005 magnetization       0.0647212

 Broyden mixing:
  rms(total) = 0.10537E-01    rms(broyden)= 0.10537E-01
  rms(prec ) = 0.11147E-01
  weight for this iteration     100.00

 eigenvalues of (default mixing * dielectric matrix)
  average eigenvalue GAMMA=   1.3695
  3.0127  2.3284  1.2149  0.8846  0.8846  0.6088  0.6529

 Free energy of the ion-electron system (eV)
  ---------------------------------------------------
  alpha Z        PSCENC =       795.75643203
  Ewald energy   TEWEN  =    -12847.78401216
  -Hartree energ DENC   =     -1196.63782524
  -exchange      EXHF   =         0.00000000
  -V(xc)+E(xc)   XCENC  =      -289.81985197
  PAW double counting   =     17090.41809890   -16078.34157452
  entropy T*S    EENTRO =        -0.00000000
  eigenvalues    EBANDS =      -810.87151684
  atomic energy  EATOM  =     13036.45147835
  Solvation  Ediel_sol  =         0.00000000
  ---------------------------------------------------
  free energy    TOTEN  =      -300.82877145 eV

  energy without entropy =     -300.82877145  energy(sigma->0) =     -300.82877145


--------------------------------------------------------------------------------------------------------




--------------------------------------- Iteration      1(  13)  ---------------------------------------


    POTLOK:  cpu time      0.1285: real time      0.1291
    SETDIJ:  cpu time      0.6055: real time      0.6078
     EDDAV:  cpu time     11.0653: real time     11.1250
       DOS:  cpu time      0.0011: real time      0.0011
    CHARGE:  cpu time      0.4274: real time      0.4290
    MIXING:  cpu time      0.0085: real time      0.0086
    --------------------------------------------
      LOOP:  cpu time     12.2363: real time     12.3005

 eigenvalue-minimisations  :  9800
 total energy-change (2. order) :-0.1121749E-03  (-0.5550930E-04)
 number of electron     359.9999986 magnetization       0.0164026
 augmentation part      -66.2354778 magnetization       0.0173398

 Broyden mixing:
  rms(total) = 0.44621E-02    rms(broyden)= 0.44621E-02
  rms(prec ) = 0.46680E-02
  weight for this iteration     100.00

 eigenvalues of (default mixing * dielectric matrix)
  average eigenvalue GAMMA=   1.3476
  3.0576  2.4253  1.0907  1.0907  1.0029  0.8559  0.6493  0.6086

 Free energy of the ion-electron system (eV)
  ---------------------------------------------------
  alpha Z        PSCENC =       795.75643203
  Ewald energy   TEWEN  =    -12847.78401216
  -Hartree energ DENC   =     -1196.52686740
  -exchange      EXHF   =         0.00000000
  -V(xc)+E(xc)   XCENC  =      -289.83031989
  PAW double counting   =     17077.32037281   -16065.23274118
  entropy T*S    EENTRO =        -0.00000000
  eigenvalues    EBANDS =      -810.98322618
  atomic energy  EATOM  =     13036.45147835
  Solvation  Ediel_sol  =         0.00000000
  ---------------------------------------------------
  free energy    TOTEN  =      -300.82888363 eV

  energy without entropy =     -300.82888363  energy(sigma->0) =     -300.82888363


--------------------------------------------------------------------------------------------------------




--------------------------------------- Iteration      1(  14)  ---------------------------------------


    POTLOK:  cpu time      0.1286: real time      0.1294
    SETDIJ:  cpu time      0.6034: real time      0.6051
     EDDAV:  cpu time      9.7510: real time      9.7981
       DOS:  cpu time      0.0010: real time      0.0010
    CHARGE:  cpu time      0.4267: real time      0.4282
    MIXING:  cpu time      0.0081: real time      0.0081
    --------------------------------------------
      LOOP:  cpu time     10.9187: real time     10.9699

 eigenvalue-minimisations  :  8288
 total energy-change (2. order) :-0.1566991E-04  (-0.9362549E-05)
 number of electron     359.9999986 magnetization       0.0048129
 augmentation part      -66.2351641 magnetization       0.0051729

 Broyden mixing:
  rms(total) = 0.17174E-02    rms(broyden)= 0.17174E-02
  rms(prec ) = 0.18210E-02
  weight for this iteration     100.00

 eigenvalues of (default mixing * dielectric matrix)
  average eigenvalue GAMMA=   1.3415
  3.0849  2.4611  1.5118  1.2013  0.8921  0.8921  0.7760  0.6108  0.6436

 Free energy of the ion-electron system (eV)
  ---------------------------------------------------
  alpha Z        PSCENC =       795.75643203
  Ewald energy   TEWEN  =    -12847.78401216
  -Hartree energ DENC   =     -1196.52745479
  -exchange      EXHF   =         0.00000000
  -V(xc)+E(xc)   XCENC  =      -289.83106261
  PAW double counting   =     17072.76189637   -16060.67119789
  entropy T*S    EENTRO =        -0.00000000
  eigenvalues    EBANDS =      -810.98497859
  atomic energy  EATOM  =     13036.45147835
  Solvation  Ediel_sol  =         0.00000000
  ---------------------------------------------------
  free energy    TOTEN  =      -300.82889930 eV

  energy without entropy =     -300.82889930  energy(sigma->0) =     -300.82889930


--------------------------------------------------------------------------------------------------------




--------------------------------------- Iteration      1(  15)  ---------------------------------------


    POTLOK:  cpu time      0.1282: real time      0.1288
    SETDIJ:  cpu time      0.6048: real time      0.6069
     EDDAV:  cpu time      9.8492: real time      9.8966
       DOS:  cpu time      0.0007: real time      0.0007
    CHARGE:  cpu time      0.4184: real time      0.4200
    MIXING:  cpu time      0.0077: real time      0.0077
    --------------------------------------------
      LOOP:  cpu time     11.0090: real time     11.0608

 eigenvalue-minimisations  :  8544
 total energy-change (2. order) :-0.3289491E-05  (-0.1710428E-05)
 number of electron     359.9999986 magnetization       0.0017521
 augmentation part      -66.2353182 magnetization       0.0019707

 Broyden mixing:
  rms(total) = 0.75219E-03    rms(broyden)= 0.75219E-03
  rms(prec ) = 0.79673E-03
  weight for this iteration     100.00

 eigenvalues of (default mixing * dielectric matrix)
  average eigenvalue GAMMA=   1.3068
  3.0961  2.4320  1.7167  1.1132  0.9673  0.9673  0.8226  0.7128  0.6203  0.6203

 Free energy of the ion-electron system (eV)
  ---------------------------------------------------
  alpha Z        PSCENC =       795.75643203
  Ewald energy   TEWEN  =    -12847.78401216
  -Hartree energ DENC   =     -1196.51567624
  -exchange      EXHF   =         0.00000000
  -V(xc)+E(xc)   XCENC  =      -289.83136968
  PAW double counting   =     17072.19712426   -16060.10558033
  entropy T*S    EENTRO =        -0.00000000
  eigenvalues    EBANDS =      -810.99729881
  atomic energy  EATOM  =     13036.45147835
  Solvation  Ediel_sol  =         0.00000000
  ---------------------------------------------------
  free energy    TOTEN  =      -300.82890259 eV

  energy without entropy =     -300.82890259  energy(sigma->0) =     -300.82890259


--------------------------------------------------------------------------------------------------------




--------------------------------------- Iteration      1(  16)  ---------------------------------------


    POTLOK:  cpu time      0.1291: real time      0.1297
    SETDIJ:  cpu time      0.6020: real time      0.6041
     EDDAV:  cpu time      6.7961: real time      6.8304
       DOS:  cpu time      0.0010: real time      0.0010
    --------------------------------------------
      LOOP:  cpu time      7.5281: real time      7.5652

 eigenvalue-minimisations  :  4920
 total energy-change (2. order) :-0.5674799E-06  (-0.1558008E-06)
 number of electron     359.9999986 magnetization       0.0017521
 augmentation part      -66.2353182 magnetization       0.0019707

 Free energy of the ion-electron system (eV)
  ---------------------------------------------------
  alpha Z        PSCENC =       795.75643203
  Ewald energy   TEWEN  =    -12847.78401216
  -Hartree energ DENC   =     -1196.51045279
  -exchange      EXHF   =         0.00000000
  -V(xc)+E(xc)   XCENC  =      -289.83157479
  PAW double counting   =     17072.16469475   -16060.07292219
  entropy T*S    EENTRO =        -0.00000000
  eigenvalues    EBANDS =      -811.00254634
  atomic energy  EATOM  =     13036.45147835
  Solvation  Ediel_sol  =         0.00000000
  ---------------------------------------------------
  free energy    TOTEN  =      -300.82890315 eV

  energy without entropy =     -300.82890315  energy(sigma->0) =     -300.82890315


--------------------------------------------------------------------------------------------------------




 average (electrostatic) potential at core
  the test charge radii are     1.1631  1.0808
  (the norm of the test charge is              1.0000)
       1 -33.4572       2 -33.4351       3 -33.4367       4 -33.5487       5 -33.4433
       6 -33.3749       7 -33.3096       8 -33.4299       9 -33.7068      10 -33.5347
      11 -33.7093      12 -33.5958      13 -33.3286      14 -33.5393      15 -33.3919
      16 -33.6657      17 -33.5059      18 -33.4143      19 -33.5836      20 -33.6200
      21 -33.5007      22 -33.4160      23 -33.4907      24 -33.6445      25 -33.3591
      26 -33.5663      27 -33.2827      28 -33.3253      29 -33.4914      30 -33.4434
      31 -33.5288      32 -33.4914      33 -33.4121      34 -33.4762      35 -33.6183
      36 -33.2328      37 -55.0700      38 -54.8575      39 -54.7957      40 -54.9432
      41 -54.9017      42 -54.7420      43 -54.9721      44 -54.8760      45 -54.8616
      46 -54.6138      47 -54.7751      48 -54.8940      49 -54.9998      50 -54.8930
      51 -54.8601      52 -55.0981      53 -54.9590      54 -54.9037      55 -54.7331
      56 -54.9005      57 -54.9768      58 -54.7824      59 -54.7960      60 -54.7452
      61 -54.8234      62 -55.0264      63 -54.7190      64 -54.8754      65 -54.9420
      66 -54.8956      67 -54.8159      68 -54.7573      69 -54.7539      70 -54.6453
      71 -54.8233      72 -54.7121
 
 
 
 E-fermi :   3.4929     XC(G=0):  -9.3651     alpha+bet : -8.8084

 Fermi energy:         3.4929099180

 spin component 1

 k-point     1 :       0.0000    0.0000    0.0000
  band No.  band energies     occupation 
      1     -10.8982      1.00000
      2     -10.5824      1.00000
      3     -10.4091      1.00000
      4     -10.3502      1.00000
      5     -10.3384      1.00000
      6     -10.2246      1.00000
      7     -10.1353      1.00000
      8     -10.1050      1.00000
      9     -10.0721      1.00000
     10      -9.9806      1.00000
     11      -9.9630      1.00000
     12      -9.8525      1.00000
     13      -9.7917      1.00000
     14      -9.7743      1.00000
     15      -9.7508      1.00000
     16      -9.6733      1.00000
     17      -9.6161      1.00000
     18      -9.6000      1.00000
     19      -9.5330      1.00000
     20      -9.5076      1.00000
     21      -9.4520      1.00000
     22      -9.4118      1.00000
     23      -9.3773      1.00000
     24      -9.3702      1.00000
     25      -9.3182      1.00000
     26      -9.2615      1.00000
     27      -9.2304      1.00000
     28      -9.2190      1.00000
     29      -9.1809      1.00000
     30      -9.1499      1.00000
     31      -9.1260      1.00000
     32      -9.1000      1.00000
     33      -9.0761      1.00000
     34      -9.0094      1.00000
     35      -8.9860      1.00000
     36      -8.9128      1.00000
     37      -5.4082      1.00000
     38      -5.3668      1.00000
     39      -5.3235      1.00000
     40      -5.2876      1.00000
     41      -5.1231      1.00000
     42      -5.0531      1.00000
     43      -5.0191      1.00000
     44      -4.9661      1.00000
     45      -4.8386      1.00000
     46      -4.7824      1.00000
     47      -4.5890      1.00000
     48      -4.5150      1.00000
     49      -4.4791      1.00000
     50      -4.4412      1.00000
     51      -4.4225      1.00000
     52      -4.4060      1.00000
     53      -4.3800      1.00000
     54      -4.3553      1.00000
     55      -4.3087      1.00000
     56      -4.3017      1.00000
     57      -4.2674      1.00000
     58      -4.2645      1.00000
     59      -4.2330      1.00000
     60      -4.1830      1.00000
     61      -4.1719      1.00000
     62      -4.1008      1.00000
     63      -3.9921      1.00000
     64      -3.9341      1.00000
     65      -3.8992      1.00000
     66      -3.8540      1.00000
     67      -3.7581      1.00000
     68      -3.7327      1.00000
     69      -3.4887      1.00000
     70      -3.4140      1.00000
     71      -2.4688      1.00000
     72      -2.3669      1.00000
     73      -1.8228      1.00000
     74      -1.6319      1.00000
     75      -1.5912      1.00000
     76      -1.5729      1.00000
     77      -1.4601      1.00000
     78      -1.4171      1.00000
     79      -1.3655      1.00000
     80      -1.2738      1.00000
     81      -1.2236      1.00000
     82      -1.1857      1.00000
     83      -1.1096      1.00000
     84      -1.0477      1.00000
     85      -1.0264      1.00000
     86      -0.8463      1.00000
     87      -0.8074      1.00000
     88      -0.7780      1.00000
     89      -0.7056      1.00000
     90      -0.6366      1.00000
     91      -0.5646      1.00000
     92      -0.5335      1.00000
     93      -0.4971      1.00000
     94      -0.3550      1.00000
     95      -0.2054      1.00000
     96      -0.1133      1.00000
     97      -0.0788      1.00000
     98      -0.0267      1.00000
     99       0.0411      1.00000
    100       0.0611      1.00000
    101       0.0813      1.00000
    102       0.1095      1.00000
    103       0.1609      1.00000
    104       0.2158      1.00000
    105       0.2522      1.00000
    106       0.2696      1.00000
    107       0.3315      1.00000
    108       0.3599      1.00000
    109       0.3739      1.00000
    110       0.3988      1.00000
    111       0.4197      1.00000
    112       0.5404      1.00000
    113       0.5519      1.00000
    114       0.5857      1.00000
    115       0.6098      1.00000
    116       0.6318      1.00000
    117       0.6903      1.00000
    118       0.7380      1.00000
    119       0.7405      1.00000
    120       0.7582      1.00000
    121       0.8193      1.00000
    122       0.8402      1.00000
    123       0.8683      1.00000
    124       0.8883      1.00000
    125       0.9134      1.00000
    126       0.9267      1.00000
    127       0.9943      1.00000
    128       1.0382      1.00000
    129       1.0775      1.00000
    130       1.0861      1.00000
    131       1.1588      1.00000
    132       1.1952      1.00000
    133       1.2386      1.00000
    134       1.2911      1.00000
    135       1.2993      1.00000
    136       1.3442      1.00000
    137       1.4018      1.00000
    138       1.4402      1.00000
    139       1.4850      1.00000
    140       1.5190      1.00000
    141       1.5654      1.00000
    142       1.5861      1.00000
    143       1.6299      1.00000
    144       1.6384      1.00000
    145       1.7148      1.00000
    146       1.7283      1.00000
    147       1.7544      1.00000
    148       1.8036      1.00000
    149       1.8319      1.00000
    150       1.8771      1.00000
    151       1.8893      1.00000
[...]
   0.885E+01 -.329E+01 -.207E+02   -.975E+01 0.465E+01 0.232E+02   0.584E+00 -.171E+01 -.274E+01   0.445E-04 -.187E-03 0.319E-04
   0.339E+01 0.200E+02 0.267E+02   -.341E+01 -.230E+02 -.296E+02   -.286E+00 0.231E+01 0.286E+01   0.190E-03 0.769E-04 0.153E-03
   -.843E+01 -.545E+00 0.262E+02   0.859E+01 0.243E+00 -.283E+02   0.373E+00 0.559E+00 0.148E+01   0.594E-04 0.157E-03 -.130E-03
   0.119E+02 0.165E+02 0.247E+02   -.124E+02 -.174E+02 -.266E+02   -.270E+00 0.484E+00 0.211E+01   0.279E-04 0.109E-03 -.127E-03
   0.582E+01 0.969E+01 0.298E+02   -.631E+01 -.108E+02 -.319E+02   0.732E+00 0.136E+01 0.165E+01   0.294E-03 0.130E-03 0.361E-04
   0.145E+02 0.184E+02 0.313E+02   -.150E+02 -.200E+02 -.330E+02   0.109E+00 0.958E+00 0.158E+01   0.101E-03 0.468E-04 -.179E-03
   0.147E+01 0.287E+01 0.264E+02   -.167E+01 -.362E+01 -.278E+02   0.130E+00 0.805E+00 0.992E+00   -.138E-03 -.413E-04 -.139E-03
   0.462E+01 0.455E+01 0.195E+02   -.474E+01 -.538E+01 -.210E+02   0.485E+00 0.847E+00 0.145E+01   -.325E-03 -.136E-04 -.175E-03
   -.256E+01 0.217E+02 0.208E+02   0.254E+01 -.233E+02 -.224E+02   0.130E+00 0.146E+01 0.211E+01   0.307E-03 -.151E-03 -.125E-03
   0.290E+02 0.105E+02 -.266E+02   -.304E+02 -.111E+02 0.278E+02   0.170E+01 0.145E+00 -.125E+01   0.183E-03 -.435E-04 0.109E-03
   -.152E+02 -.790E+01 -.299E+02   0.155E+02 0.924E+01 0.312E+02   -.100E+00 -.168E+01 -.139E+01   -.127E-03 -.995E-04 -.666E-04
   0.105E+02 0.180E+02 -.358E+02   -.114E+02 -.189E+02 0.373E+02   0.154E+01 0.733E+00 -.136E+01   0.167E-03 -.161E-03 0.490E-04
   -.114E+02 -.271E+02 -.295E+02   0.119E+02 0.287E+02 0.314E+02   -.136E+00 -.109E+01 -.180E+01   -.350E-03 0.342E-04 -.152E-03
   -.101E+02 -.205E+02 -.202E+02   0.104E+02 0.220E+02 0.213E+02   -.140E+00 -.117E+01 -.117E+01   -.368E-04 -.185E-04 0.164E-03
   -.256E+01 -.304E+01 -.285E+02   0.258E+01 0.409E+01 0.304E+02   -.332E+00 -.106E+01 -.161E+01   -.567E-04 -.110E-03 -.345E-03
   0.119E+02 0.333E+01 -.248E+02   -.129E+02 -.352E+01 0.270E+02   0.120E+01 0.168E+00 -.151E+01   0.333E-05 0.164E-03 -.769E-04
   -.393E+01 -.429E+01 0.265E+02   0.423E+01 0.363E+01 -.278E+02   -.403E+00 0.108E+01 0.148E+01   0.603E-04 -.180E-03 -.149E-04
   -.680E+01 0.692E+01 0.254E+02   0.704E+01 -.775E+01 -.272E+02   0.615E-01 0.112E+01 0.156E+01   0.139E-03 -.133E-04 -.335E-03
   -.130E+02 -.739E+01 0.315E+02   0.136E+02 0.843E+01 -.333E+02   -.109E+00 -.712E+00 0.165E+01   -.263E-04 0.195E-04 0.223E-03
   -.616E+01 -.514E+01 0.291E+02   0.579E+01 0.625E+01 -.311E+02   0.554E+00 -.108E+01 0.123E+01   0.270E-03 0.583E-04 -.156E-04
   0.156E+02 -.984E+01 0.348E+02   -.166E+02 0.108E+02 -.364E+02   0.560E+00 -.810E+00 0.131E+01   -.126E-03 -.204E-03 -.103E-04
   0.105E+01 -.119E+02 -.253E+02   -.730E+00 0.131E+02 0.271E+02   -.821E+00 -.125E+01 -.155E+01   -.687E-04 -.387E-04 -.222E-03
   -.302E+01 0.137E+02 -.151E+02   0.315E+01 -.146E+02 0.167E+02   -.299E+00 0.850E+00 -.198E+01   0.389E-04 -.987E-04 0.165E-03
   -.379E+01 -.913E+01 -.234E+02   0.392E+01 0.927E+01 0.251E+02   -.555E+00 0.337E+00 -.199E+01   0.167E-03 -.746E-04 0.586E-04
   0.145E+01 0.862E+01 -.278E+02   -.203E+01 -.953E+01 0.295E+02   0.322E+00 0.923E+00 -.223E+01   0.526E-04 0.233E-03 0.165E-03
   0.673E+01 0.126E+02 -.283E+02   -.700E+01 -.136E+02 0.298E+02   0.153E+00 0.734E+00 -.152E+01   -.510E-04 -.156E-03 0.555E-03
   -.361E+01 0.452E+01 -.333E+02   0.376E+01 -.528E+01 0.353E+02   -.271E-01 0.615E+00 -.189E+01   -.177E-03 0.113E-03 0.123E-03
   -.558E+01 0.121E+02 -.359E+02   0.578E+01 -.135E+02 0.375E+02   -.315E+00 0.855E+00 -.147E+01   -.487E-04 0.113E-03 0.451E-03
   -.183E+01 -.223E+01 -.362E+02   0.204E+01 0.191E+01 0.382E+02   -.294E+00 0.770E+00 -.141E+01   0.109E-04 -.748E-04 0.106E-03
   -.414E+00 0.167E+02 -.260E+02   0.704E+00 -.183E+02 0.274E+02   -.170E+00 0.975E+00 -.183E+01   -.784E-04 -.490E-04 0.333E-03
   -.174E+01 0.800E+01 -.264E+02   0.207E+01 -.873E+01 0.280E+02   -.735E-02 0.496E+00 -.154E+01   -.996E-04 0.204E-03 0.435E-03
   -.616E+01 -.108E+02 0.350E+02   0.589E+01 0.113E+02 -.363E+02   0.840E+00 -.529E-01 0.114E+01   0.314E-03 -.119E-03 -.134E-03
   -.178E+01 -.148E+02 0.305E+02   0.154E+01 0.162E+02 -.321E+02   -.127E+00 -.114E+01 0.151E+01   0.221E-03 -.650E-05 0.264E-05
   0.106E+02 -.491E+01 0.246E+02   -.108E+02 0.593E+01 -.264E+02   -.173E+00 -.943E+00 0.173E+01   -.379E-04 0.236E-03 -.118E-03
   0.705E+01 -.219E+02 0.274E+02   -.726E+01 0.237E+02 -.288E+02   -.148E+00 -.113E+01 0.177E+01   0.129E-05 -.109E-03 0.295E-04
   0.293E+02 -.725E+00 0.284E+02   -.306E+02 0.126E+01 -.302E+02   0.107E+01 -.705E-01 0.152E+01   -.745E-04 -.209E-03 -.219E-03
   0.101E+02 -.133E+02 0.322E+02   -.104E+02 0.145E+02 -.341E+02   0.194E+00 -.919E+00 0.198E+01   -.153E-03 0.985E-04 0.279E-03
   0.106E+01 -.921E+01 -.235E+02   -.731E+00 0.102E+02 0.250E+02   0.209E-01 -.143E+01 -.128E+01   0.225E-03 -.504E-04 -.266E-03
 -----------------------------------------------------------------------------------------------
   0.532E+01 0.245E+01 0.465E+00   0.213E-13 0.110E-12 -.178E-12   -.532E+01 -.245E+01 -.465E+00   0.418E-03 0.326E-03 0.171E-03
 
 
 POSITION                                       TOTAL-FORCE (eV/Angst)
 -----------------------------------------------------------------------------------
      0.82165      0.61138      1.36280         0.254706     -0.001608      0.294811
      2.82926     11.09987      4.24423        -0.256653     -0.111666     -0.096971
      7.17922      2.80097      4.04340         0.188094     -0.347098     -0.009131
      7.20957      6.92383      4.25155         0.035527      0.323398     -0.495771
      6.63846     10.91507      4.13374         0.289254     -0.274275      0.043505
     10.95755      2.25630      4.18047         0.121172      0.279050     -0.023656
     11.17286      6.82957      4.06798        -0.424685     -0.145453     -0.022205
     11.20944     11.18532      4.08147        -0.060149     -0.039320      0.219903
      0.91271      1.79251      7.04706         0.092046     -0.009230      0.024520
      0.65499      5.98515      7.04505         0.537139      0.303057     -0.011245
      0.66631     10.41244      6.95717         0.346403     -0.375728      0.410629
      5.16928      2.05338      6.94330        -0.378114     -0.080402      0.260213
      4.98248      6.02146      7.17493         0.442246      0.459050     -0.333818
      4.77966     10.21068      6.88630         0.020244     -0.158795      0.008627
      8.95196      1.79507      6.92213         0.418247      0.587509     -0.161577
      9.15859      6.12727      6.83759        -0.100397     -0.121844      0.487755
      2.70319      6.44804      4.33986        -0.550502      0.022948     -0.273260
      3.24907      2.80627      3.97656        -0.577086      0.030606      0.748918
      9.12189     10.16982      6.87504        -0.356664     -0.044423      0.044388
     11.25741      8.34975      9.56540         0.087372     -0.379005      0.311363
     11.14932     12.46798      9.41098        -0.023799     -0.149366      0.880771
      0.75411      4.68344      1.34126        -0.109748     -0.146275      0.394528
      0.69375      8.76401      1.51409         0.242037      0.064906      0.026002
      4.83922      0.69865      1.11676         0.332787      0.080362      0.276225
      4.98847      4.99746      1.51604         0.128489     -0.428335     -0.571894
      9.13074      0.42628      1.27262        -0.433453      0.124217      0.320954
      9.05888      4.79475      1.46998         0.351020     -0.548298     -0.403048
      4.63171      8.72187      1.68623         0.173957     -0.281827     -0.920997
      2.89937      4.05557      9.52329         0.285332      0.099465      0.011408
      3.07525      8.32348      9.59637        -0.303315     -0.258073      0.313544
      2.98435     12.27543      9.77211        -0.110771      0.204837     -0.302380
      7.26628      4.00476      9.80235         0.058205     -0.318345      0.070615
      7.26083      8.07509      9.67530        -0.458719      0.478332      0.028998
      7.00799     12.12039      9.68178         0.116622      0.733819      0.156650
     11.37642      4.12818      9.59559        -0.309810     -0.351456     -0.263159
      9.19515      9.18190      1.35879        -0.308098     -0.689167      0.040639
     11.05612      0.04655      6.98978         0.526493      0.257971     -0.583719
      3.09164      4.36482      6.97752        -0.754221     -0.363954      0.229747
      2.77125      8.53174      7.14634         0.245366      0.222807     -0.408100
      7.04900      0.25588      7.17907        -0.358324     -0.663877     -0.108586
      7.17749      4.40737      7.30215        -0.074013      0.052928     -0.388744
      6.94974      8.55550      7.13531         0.362126      0.020086     -0.080142
     11.12882      4.36091      6.99463         0.110585     -0.118906      0.493509
      9.15689      0.37202      3.84748         0.333549     -0.377865      0.005646
      0.87942      0.35116      3.94991         0.177829     -0.346478     -0.016559
      0.93858      4.43630      3.91236         0.582361     -0.157518      0.130196
      0.76880      8.32595      4.03332         0.325625      0.547712      0.058757
      4.79757      0.11698      3.75001         0.188160      0.329453     -0.112131
      5.26168      4.54730      3.96584        -0.321996     -0.006404      0.255780
      5.14182      8.59154      4.05005         0.149627     -0.018263      0.721208
      3.02217      0.17480      7.19821        -0.109824      0.421446      0.127608
     11.16765      8.49295      7.07385         0.302746      0.298815     -0.192251
     11.22989     10.68416      1.60366         0.538437      0.331898     -0.161395
      2.93562      2.37959      1.57739         0.188594      0.032545     -0.776760
     11.44200      2.33114      1.67175        -0.469001      0.120715     -0.305844
      9.31093      4.31757      3.93926        -0.503323     -0.052342      0.258197
      0.89741      2.29277      9.59919        -0.165437     -0.036157     -0.412138
      1.00054      6.32073      9.57574        -0.418630      0.473889     -0.202192
      0.91497     10.69159      9.58372        -0.264970      0.015525     -0.443826
      5.13134      2.48246      9.49205        -0.120551     -0.281541     -0.034649
      4.97862      6.52332      9.63654         0.121440     -0.146967      0.192580
      4.95357     10.63004      9.43099        -0.119540     -0.555835      0.084810
      9.28475      2.18884      9.37634        -0.083424      0.443868      0.549341
      9.29812      6.60274      9.49671         0.120567     -0.538185     -0.469725
      9.09026     10.63088      9.44251         0.323041     -0.236804      0.032004
      2.82603      6.46677      1.77801         0.571498      0.428532     -0.148449
      2.81976     10.44534      1.74604        -0.362669      0.241583     -0.012290
      7.16012      2.20205      1.52124        -0.362494      0.074704     -0.084254
      7.20709      6.43774      1.58905        -0.362976      0.733533      0.403840
      7.25156     10.73692      1.65807        -0.284196      0.468269     -0.354369
     11.22337      6.37807      1.53289        -0.145450      0.300920      0.025717
      9.13303      8.69633      3.88340         0.354059     -0.447668      0.241334
 -----------------------------------------------------------------------------------
    total drift:                               -0.000076     -0.000365      0.000248


--------------------------------------------------------------------------------------------------------



  FREE ENERGIE OF THE ION-ELECTRON SYSTEM (eV)
  ---------------------------------------------------
  free  energy   TOTEN  =      -300.82890315 eV

  energy  without entropy=     -300.82890315  energy(sigma->0) =     -300.82890315
 


--------------------------------------------------------------------------------------------------------


    POTLOK:  cpu time      0.7310: real time      0.7339


--------------------------------------------------------------------------------------------------------


     LOOP+:  cpu time    181.9163: real time    182.8361
    4ORBIT:  cpu time      0.0000: real time      0.0000



 total charge

# of ion       s       p       d       tot
------------------------------------------
    1        1.322   0.767   0.057   2.147
    2        1.309   0.791   0.057   2.157
    3        1.312   0.789   0.055   2.156
    4        1.325   0.734   0.052   2.111
    5        1.323   0.767   0.055   2.144
    6        1.327   0.768   0.060   2.155
    7        1.314   0.791   0.059   2.163
    8        1.322   0.771   0.054   2.148
    9        1.338   0.711   0.044   2.094
   10        1.321   0.763   0.053   2.137
   11        1.335   0.705   0.048   2.088
   12        1.330   0.729   0.052   2.112
   13        1.320   0.793   0.060   2.173
   14        1.320   0.755   0.055   2.129
   15        1.303   0.826   0.065   2.193
   16        1.326   0.729   0.052   2.107
   17        1.331   0.733   0.054   2.118
   18        1.328   0.771   0.055   2.154
   19        1.333   0.732   0.052   2.117
   20        1.327   0.746   0.054   2.127
   21        1.329   0.767   0.059   2.155
   22        1.323   0.759   0.058   2.141
   23        1.331   0.743   0.054   2.128
   24        1.326   0.726   0.048   2.100
   25        1.327   0.779   0.058   2.163
   26        1.333   0.717   0.052   2.102
   27        1.311   0.814   0.063   2.187
   28        1.313   0.817   0.060   2.191
   29        1.333   0.738   0.055   2.126
   30        1.320   0.770   0.057   2.147
   31        1.306   0.785   0.057   2.148
   32        1.324   0.749   0.054   2.126
   33        1.329   0.758   0.055   2.142
   34        1.318   0.789   0.059   2.166
   35        1.335   0.715   0.050   2.100
   36        1.306   0.824   0.065   2.195
   37        1.479   2.304   0.037   3.821
   38        1.479   2.296   0.032   3.807
   39        1.477   2.298   0.031   3.806
   40        1.474   2.330   0.035   3.839
   41        1.474   2.302   0.031   3.806
   42        1.476   2.285   0.027   3.788
   43        1.481   2.292   0.033   3.806
   44        1.478   2.297   0.033   3.808
   45        1.476   2.296   0.031   3.802
   46        1.477   2.278   0.027   3.782
   47        1.474   2.317   0.032   3.824
   48        1.474   2.313   0.032   3.819
   49        1.478   2.315   0.036   3.829
   50        1.476   2.313   0.034   3.822
   51        1.476   2.280   0.027   3.783
   52        1.478   2.300   0.035   3.812
   53        1.475   2.320   0.035   3.830
   54        1.474   2.320   0.034   3.828
   55        1.473   2.313   0.031   3.818
   56        1.477   2.308   0.034   3.819
   57        1.478   2.287   0.031   3.796
   58        1.480   2.266   0.027   3.773
   59        1.479   2.277   0.028   3.785
   60        1.475   2.294   0.028   3.796
   61        1.476   2.300   0.031   3.808
   62        1.474   2.320   0.035   3.829
   63        1.475   2.295   0.029   3.798
   64        1.476   2.305   0.031   3.812
   65        1.475   2.300   0.032   3.807
   66        1.476   2.302   0.033   3.812
   67        1.476   2.313   0.031   3.819
   68        1.475   2.282   0.026   3.783
   69        1.475   2.311   0.031   3.817
   70        1.473   2.309   0.029   3.812
   71        1.476   2.303   0.032   3.812
   72        1.474   2.296   0.028   3.798
--------------------------------------------------
tot        100.770 110.258   3.128 214.156



 magnetization (x)

# of ion       s       p       d       tot
------------------------------------------
    1       -0.000   0.000   0.000   0.000
    2       -0.000   0.000   0.000   0.000
    3       -0.000   0.000  -0.000   0.000
    4       -0.000   0.000  -0.000  -0.000
    5       -0.000   0.000   0.000   0.000
    6       -0.000   0.000   0.000   0.000
    7       -0.000   0.000  -0.000   0.000
    8       -0.000   0.000   0.000   0.000
    9       -0.000   0.000   0.000   0.000
   10       -0.000   0.000  -0.000   0.000
   11       -0.000   0.000   0.000   0.000
   12       -0.000   0.000   0.000   0.000
   13       -0.000   0.000  -0.000   0.000
   14       -0.000   0.000   0.000   0.000
   15       -0.000   0.000   0.000   0.000
   16       -0.000   0.000  -0.000   0.000
   17       -0.000   0.000  -0.000   0.000
   18       -0.000   0.000  -0.000   0.000
   19       -0.000   0.000   0.000   0.000
   20       -0.000   0.000  -0.000   0.000
   21       -0.000   0.000   0.000   0.000
   22       -0.000   0.000  -0.000   0.000
   23       -0.000   0.000   0.000   0.000
   24       -0.000   0.000   0.000   0.000
   25       -0.000   0.000  -0.000   0.000
   26       -0.000   0.000   0.000   0.000
   27       -0.000   0.000  -0.000  -0.000
   28       -0.000   0.000  -0.000   0.000
   29       -0.000   0.000  -0.000   0.000
   30       -0.000   0.000  -0.000   0.000
   31       -0.000   0.000   0.000   0.000
   32       -0.000   0.000  -0.000  -0.000
   33       -0.000   0.000  -0.000   0.000
   34       -0.000   0.000   0.000   0.000
   35       -0.000  -0.000  -0.000  -0.000
   36       -0.000   0.000  -0.000   0.000
   37       -0.000  -0.000   0.000  -0.000
   38       -0.000  -0.000   0.000  -0.000
   39       -0.000  -0.000   0.000  -0.000
   40       -0.000  -0.000   0.000  -0.000
   41       -0.000  -0.000   0.000  -0.000
   42       -0.000  -0.000   0.000  -0.000
   43       -0.000  -0.000  -0.000  -0.000
   44       -0.000  -0.000   0.000  -0.000
   45       -0.000  -0.000   0.000  -0.000
   46       -0.000  -0.000  -0.000  -0.000
   47       -0.000  -0.000   0.000  -0.000
   48       -0.000  -0.000   0.000  -0.000
   49       -0.000  -0.000  -0.000  -0.000
   50       -0.000  -0.000   0.000  -0.000
   51       -0.000  -0.000   0.000  -0.000
   52       -0.000  -0.000   0.000  -0.000
   53       -0.000  -0.000   0.000  -0.000
   54       -0.000  -0.000   0.000  -0.000
   55       -0.000  -0.000   0.000  -0.000
   56       -0.000  -0.000  -0.000  -0.000
   57       -0.000  -0.000   0.000  -0.000
   58       -0.000  -0.000  -0.000  -0.000
   59       -0.000  -0.000   0.000  -0.000
   60       -0.000  -0.000   0.000  -0.000
   61       -0.000  -0.000   0.000  -0.000
   62       -0.000  -0.000   0.000  -0.000
   63       -0.000  -0.000   0.000  -0.000
   64       -0.000  -0.000  -0.000  -0.000
   65       -0.000  -0.000   0.000  -0.000
   66       -0.000  -0.000  -0.000  -0.000
   67       -0.000  -0.000   0.000  -0.000
   68       -0.000  -0.000  -0.000  -0.000
   69       -0.000  -0.000  -0.000  -0.000
   70       -0.000  -0.000   0.000  -0.000
   71       -0.000  -0.000  -0.000  -0.000
   72       -0.000  -0.000   0.000  -0.000
--------------------------------------------------
tot         -0.000  -0.000   0.000  -0.000
 

 total amount of memory used by VASP MPI-rank0   110845. kBytes
=======================================================================

   base      :      30000. kBytes
   nonl-proj :      16377. kBytes
   fftplans  :       6180. kBytes
   grid      :      15593. kBytes
   one-center:        146. kBytes
   wavefun   :      42549. kBytes
 
  
  
 General timing and accounting informations for this job:
 ========================================================
  
                  Total CPU time used (sec):      193.478
                            User time (sec):      187.382
                          System time (sec):        6.096
                         Elapsed time (sec):      195.808
  
                   Maximum memory used (kb):      315176.
                   Average memory used (kb):          N/A
  
                          Minor page faults:        98868
                          Major page faults:           44
                 Voluntary context switches:         2579
