 running  160 mpi-ranks, with    1 threads/rank, on   10 nodes
 distrk:  each k-point on   80 cores,    2 groups
 distr:  one band on    5 cores,   16 groups
 vasp.6.4.2 20Jul23 (build Oct 12 2023 10:31:02) complex                         
 POSCAR found type information on POSCAR GeSe
 POSCAR found :  2 types and       8 ions
 Reading from existing POTCAR
 scaLAPACK will be used
 Reading from existing POTCAR
 LDA part: xc-table for Pade appr. of Perdew
 POSCAR, INCAR and KPOINTS ok, starting setup
 FFT: planning ... GRIDC
 FFT: planning ... GRID_SOFT
 FFT: planning ... GRID
 WAVECAR not read
 entering main loop
       N       E                     dE             d eps       ncg     rms          rms(c)
DAV:   1     0.163494519080E+03    0.16349E+03   -0.15880E+04  2560   0.104E+03
DAV:   2    -0.221185101469E+02   -0.18561E+03   -0.18031E+03  3664   0.154E+02
DAV:   3    -0.335141185005E+02   -0.11396E+02   -0.11360E+02  3360   0.443E+01
DAV:   4    -0.336019869470E+02   -0.87868E-01   -0.87854E-01  3216   0.440E+00
DAV:   5    -0.336025443658E+02   -0.55742E-03   -0.55741E-03  3376   0.358E-01    0.672E+00
DAV:   6    -0.332878052276E+02    0.31474E+00   -0.73495E-01  3152   0.273E+00    0.421E+00
DAV:   7    -0.332747457572E+02    0.13059E-01   -0.17961E-01  2912   0.156E+00    0.121E+00
DAV:   8    -0.332750354157E+02   -0.28966E-03   -0.13780E-02  3184   0.464E-01    0.168E-01
DAV:   9    -0.332754654061E+02   -0.42999E-03   -0.26270E-03  3264   0.223E-01    0.626E-02
DAV:  10    -0.332756211018E+02   -0.15570E-03   -0.27998E-04  3312   0.685E-02    0.232E-02
DAV:  11    -0.332756619365E+02   -0.40835E-04   -0.49668E-05  2864   0.302E-02    0.972E-03
DAV:  12    -0.332756642299E+02   -0.22934E-05   -0.71600E-06  3472   0.117E-02    0.247E-03
DAV:  13    -0.332756650238E+02   -0.79390E-06   -0.99539E-07  1936   0.440E-03
   1 F= -.33275665E+02 E0= -.33275500E+02  d E =-.329898E-03
