 running  160 mpi-ranks, with    1 threads/rank, on   10 nodes
 distrk:  each k-point on   80 cores,    2 groups
 distr:  one band on    5 cores,   16 groups
 vasp.6.4.2 20Jul23 (build Oct 12 2023 10:31:02) complex                         
 POSCAR found type information on POSCAR GeSe
 POSCAR found :  2 types and       8 ions
 Reading from existing POTCAR
 scaLAPACK will be used
 Reading from existing POTCAR
 LDA part: xc-table for Pade appr. of Perdew
 POSCAR, INCAR and KPOINTS ok, starting setup
 FFT: planning ... GRIDC
 FFT: planning ... GRID_SOFT
 FFT: planning ... GRID
 WAVECAR not read
 entering main loop
       N       E                     dE             d eps       ncg     rms          rms(c)
DAV:   1     0.130589289353E+03    0.13059E+03   -0.13003E+04  2560   0.779E+02
DAV:   2    -0.247643170901E+02   -0.15535E+03   -0.15097E+03  3744   0.142E+02
DAV:   3    -0.330276093923E+02   -0.82633E+01   -0.82480E+01  3264   0.374E+01
DAV:   4    -0.330818270366E+02   -0.54218E-01   -0.54205E-01  3344   0.346E+00
DAV:   5    -0.330821891683E+02   -0.36213E-03   -0.36213E-03  3264   0.274E-01    0.706E+00
DAV:   6    -0.327652539142E+02    0.31694E+00   -0.67476E-01  3264   0.268E+00    0.443E+00
DAV:   7    -0.327548909154E+02    0.10363E-01   -0.19738E-01  3216   0.159E+00    0.117E+00
DAV:   8    -0.327528123072E+02    0.20786E-02   -0.21499E-02  2944   0.543E-01    0.162E-01
DAV:   9    -0.327531542648E+02   -0.34196E-03   -0.23813E-03  3168   0.221E-01    0.617E-02
DAV:  10    -0.327532550119E+02   -0.10075E-03   -0.18525E-04  3344   0.588E-02    0.220E-02
DAV:  11    -0.327532848065E+02   -0.29795E-04   -0.34602E-05  3008   0.261E-02    0.885E-03
DAV:  12    -0.327532866614E+02   -0.18549E-05   -0.43929E-06  3520   0.937E-03    0.357E-03
DAV:  13    -0.327532868005E+02   -0.13914E-06   -0.91713E-07  1904   0.442E-03
   1 F= -.32753287E+02 E0= -.32753085E+02  d E =-.403795E-03
