 vasp.6.4.2 20Jul23 (build Oct 12 2023 10:31:02) complex                         
 executed on              LinuxNV date 2025.05.19  17:50:38
 running  160 mpi-ranks, with    1 threads/rank, on   10 nodes
 distrk:  each k-point on   80 cores,    2 groups
 distr:  one band on NCORE=   5 cores,   16 groups


--------------------------------------------------------------------------------------------------------


 INCAR:
   ENCUT = 360.000000
   SIGMA = 0.050000
   EDIFF = 1.00e-06
   ALGO = Normal
   GGA = PE
   PREC = Normal
   SYSTEM = ./
   ICHARG = 2
   ISMEAR = 0
   ISPIN = 1
   ISTART = 0
   ISYM = 0
   KPAR = 2
   LMAXMIX = 4
   NELM = 100
   NPAR = 16
   LASPH = .TRUE.
   LCHARG = .FALSE.
   LWAVE = .FALSE.

 POTCAR:    PAW_PBE Ge 05Jan2001                  
 POTCAR:    PAW_PBE Se 06Sep2000                  
 POTCAR:    PAW_PBE Ge 05Jan2001                  
   VRHFIN =Ge: s2p2                                                                                 
   LEXCH  = PE                                                                                      
   EATOM  =   104.9960 eV,    7.7170 Ry                                                             
                                                                                                    
   TITEL  = PAW_PBE Ge 05Jan2001                                                                    
   LULTRA =        F    use ultrasoft PP ?                                                          
   IUNSCR =        1    unscreen: 0-lin 1-nonlin 2-no                                               
   RPACOR =    2.170    partial core radius                                                         
   POMASS =   72.610; ZVAL   =    4.000    mass and valenz                                          
   RCORE  =    2.300    outmost cutoff radius                                                       
   RWIGS  =    2.300; RWIGS  =    1.217    wigner-seitz radius (au A)                               
   ENMAX  =  173.807; ENMIN  =  130.355 eV                                                          
   ICORE  =        3    local potential                                                             
   LCOR   =        T    correct aug charges                                                         
   LPAW   =        T    paw PP                                                                      
   EAUG   =  385.843                                                                                
   DEXC   =    0.000                                                                                
   RMAX   =    2.342    core radius for proj-oper                                                   
   RAUG   =    1.300    factor for augmentation sphere                                              
   RDEP   =    2.318    radius for radial grids                                                     
   RDEPT  =    2.103    core radius for aug-charge                                                  
                                                                                                    
   Atomic configuration                                                                             
   10 entries                                                                                       
     n  l   j            E        occ.                                                              
     1  0  0.50    -10959.8463   2.0000                                                             
     2  0  0.50     -1371.6056   2.0000                                                             
     2  1  1.50     -1198.4791   6.0000                                                             
     3  0  0.50      -168.4733   2.0000                                                             
     3  1  1.50      -115.6019   6.0000                                                             
     3  2  2.50       -29.3106  10.0000                                                             
     4  0  0.50       -11.7309   2.0000                                                             
     4  1  0.50        -3.8952   2.0000                                                             
     4  2  1.50        -4.0817   0.0000                                                             
     4  3  2.50        -4.0817   0.0000                                                             
   Description                                                                                      
     l       E           TYP  RCUT    TYP  RCUT                                                     
     0    -11.7309493     23  2.300                                                                 
     0     -7.4578696     23  2.300                                                                 
     1     -3.8952261     23  2.300                                                                 
     1      6.1178114     23  2.300                                                                 
     2     -4.0817478     23  2.300                                                                 
     3     -1.3605826      7  2.300                                                                 
  local pseudopotential read in
  partial core-charges read in
  partial kinetic energy density read in
  atomic valenz-charges read in
  non local Contribution for L=            0  read in
    real space projection operators read in
  non local Contribution for L=            0  read in
    real space projection operators read in
  non local Contribution for L=            1  read in
    real space projection operators read in
  non local Contribution for L=            1  read in
    real space projection operators read in
  non local Contribution for L=            2  read in
    real space projection operators read in
    PAW grid and wavefunctions read in
 
   number of l-projection  operators is LMAX  =            5
   number of lm-projection operators is LMMAX =           13
 
 POTCAR:    PAW_PBE Se 06Sep2000                  
   VRHFIN =Se: s2p4                                                                                 
   LEXCH  = PE                                                                                      
   EATOM  =   257.1286 eV,   18.8984 Ry                                                             
                                                                                                    
   TITEL  = PAW_PBE Se 06Sep2000                                                                    
   LULTRA =        F    use ultrasoft PP ?                                                          
   IUNSCR =        1    unscreen: 0-lin 1-nonlin 2-no                                               
   RPACOR =    1.900    partial core radius                                                         
   POMASS =   78.960; ZVAL   =    6.000    mass and valenz                                          
   RCORE  =    2.100    outmost cutoff radius                                                       
   RWIGS  =    2.200; RWIGS  =    1.164    wigner-seitz radius (au A)                               
   ENMAX  =  211.555; ENMIN  =  158.666 eV                                                          
   ICORE  =        3    local potential                                                             
   LCOR   =        T    correct aug charges                                                         
   LPAW   =        T    paw PP                                                                      
   EAUG   =  446.842                                                                                
   DEXC   =    0.000                                                                                
   RMAX   =    2.147    core radius for proj-oper                                                   
   RAUG   =    1.300    factor for augmentation sphere                                              
   RDEP   =    2.177    radius for radial grids                                                     
   RDEPT  =    1.928    core radius for aug-charge                                                  
                                                                                                    
   Atomic configuration                                                                             
   10 entries                                                                                       
     n  l   j            E        occ.                                                              
     1  0  0.50    -12503.4787   2.0000                                                             
     2  0  0.50     -1606.9547   2.0000                                                             
     2  1  1.50     -1413.3140   6.0000                                                             
     3  0  0.50      -213.4885   2.0000                                                             
     3  1  1.50      -152.9538   6.0000                                                             
     3  2  2.50       -53.1221  10.0000                                                             
     4  0  0.50       -17.2865   2.0000                                                             
     4  1  0.50        -6.5110   4.0000                                                             
     4  2  2.50        -6.8029   0.0000                                                             
     4  3  2.50        -6.8029   0.0000                                                             
   Description                                                                                      
     l       E           TYP  RCUT    TYP  RCUT                                                     
     0    -17.2865377     23  2.100                                                                 
     0    -15.3094411     23  2.100                                                                 
     1     -6.5110275     23  2.100                                                                 
     1     -0.0695192     23  2.100                                                                 
     2     -6.8029130     23  2.100                                                                 
     3     -1.3605826      7  2.100                                                                 
  local pseudopotential read in
  partial core-charges read in
  partial kinetic energy density read in
  atomic valenz-charges read in
  non local Contribution for L=            0  read in
    real space projection operators read in
  non local Contribution for L=            0  read in
    real space projection operators read in
  non local Contribution for L=            1  read in
    real space projection operators read in
  non local Contribution for L=            1  read in
    real space projection operators read in
  non local Contribution for L=            2  read in
    real space projection operators read in
    PAW grid and wavefunctions read in
 
   number of l-projection  operators is LMAX  =            5
   number of lm-projection operators is LMMAX =           13
 
  PAW_PBE Ge 05Jan2001                  :
 energy of atom  1       EATOM= -104.9960
 kinetic energy error for atom=    0.0005 (will be added to EATOM!!)
  PAW_PBE Se 06Sep2000                  :
 energy of atom  2       EATOM= -257.1286
 kinetic energy error for atom=    0.0030 (will be added to EATOM!!)
 
 
 POSCAR: Ge Se
  positions in cartesian coordinates
  No initial velocities read in
 exchange correlation table for  LEXCH =        8
   RHO(1)=    0.500       N(1)  =     2000
   RHO(2)=  100.500       N(2)  =     4000
 


--------------------------------------------------------------------------------------------------------


 ion  position               nearest neighbor table
   1  0.062  0.864  0.132-   5 2.59   6 2.60   6 2.60
   2  0.562  0.364  0.368-   6 2.59   5 2.60   5 2.60
   3  0.750  0.904  0.868-   7 2.59   8 2.60   8 2.60
   4  0.250  0.404  0.632-   8 2.59   7 2.60   7 2.60
   5  0.062  0.748  0.351-   1 2.59   2 2.60   2 2.60
   6  0.562  0.248  0.149-   2 2.59   1 2.60   1 2.60
   7  0.750  0.021  0.649-   3 2.59   4 2.60   4 2.60
   8  0.250  0.521  0.851-   4 2.59   3 2.60   3 2.60
 

IMPORTANT INFORMATION: All symmetrisations will be switched off!
NOSYMM: (Re-)initialisation of all symmetry stuff for point group C_1.


----------------------------------------------------------------------------------------

                                     Primitive cell                                     

  volume of cell :     202.3233

  direct lattice vectors                    reciprocal lattice vectors
     3.858100176  0.000000000  0.000000000     0.259194929  0.000000000  0.000000000
     0.000000000  4.526575088  0.000000000     0.000000000  0.220917577  0.000000000
     0.000000000  0.000000000 11.585176468     0.000000000  0.000000000  0.086317200

  length of vectors
     3.858100176  4.526575088 11.585176468     0.259194929  0.220917577  0.086317200

  position of ions in fractional coordinates (direct lattice)
     0.061594206  0.864359299  0.131971745
     0.561594170  0.364359287  0.368028228
     0.749999855  0.903756548  0.868028249
     0.249999781  0.403756501  0.631971759
     0.061594190  0.747581647  0.351109927
     0.561594206  0.247581667  0.148890049
     0.749999761  0.020534152  0.648890076
     0.249999838  0.520534176  0.851109946

  ion indices of the primitive-cell ions
   primitive index   ion index
                 1           1
                 2           2
                 3           3
                 4           4
                 5           5
                 6           6
                 7           7
                 8           8

----------------------------------------------------------------------------------------

 
 
 KPOINTS: KPOINTS created by Atomic Simulation Env

Automatic generation of k-mesh.
 Grid dimensions read from file:
 generate k-points for:    6    6    2

 Generating k-lattice:

  Cartesian coordinates                     Fractional coordinates (reciprocal lattice)
     0.043199155  0.000000000  0.000000000     0.166666667  0.000000000  0.000000000
     0.000000000  0.036819596  0.000000000     0.000000000  0.166666667  0.000000000
     0.000000000  0.000000000  0.043158600     0.000000000  0.000000000  0.500000000

  Length of vectors
     0.043199155  0.036819596  0.043158600

  Shift w.r.t. Gamma in fractional coordinates (k-lattice)
     0.000000000  0.000000000  0.000000000

 
 Subroutine IBZKPT returns following result:
 ===========================================
 
 Found     40 irreducible k-points:
 
 Following reciprocal coordinates:
            Coordinates               Weight
  0.000000  0.000000  0.000000      1.000000
  0.166667  0.000000  0.000000      2.000000
  0.333333  0.000000  0.000000      2.000000
  0.500000  0.000000  0.000000      1.000000
  0.000000  0.166667  0.000000      2.000000
  0.166667  0.166667  0.000000      2.000000
  0.166667 -0.166667  0.000000      2.000000
  0.333333  0.166667  0.000000      2.000000
  0.333333 -0.166667  0.000000      2.000000
  0.500000  0.166667  0.000000      2.000000
  0.000000  0.333333  0.000000      2.000000
  0.166667  0.333333  0.000000      2.000000
  0.166667 -0.333333  0.000000      2.000000
  0.333333  0.333333  0.000000      2.000000
  0.333333 -0.333333  0.000000      2.000000
  0.500000  0.333333  0.000000      2.000000
  0.000000  0.500000  0.000000      1.000000
  0.166667  0.500000  0.000000      2.000000
  0.333333  0.500000  0.000000      2.000000
  0.500000  0.500000  0.000000      1.000000
  0.000000  0.000000  0.500000      1.000000
  0.166667  0.000000  0.500000      2.000000
  0.333333  0.000000  0.500000      2.000000
  0.500000  0.000000  0.500000      1.000000
  0.000000  0.166667  0.500000      2.000000
  0.166667  0.166667  0.500000      2.000000
  0.166667 -0.166667  0.500000      2.000000
  0.333333  0.166667  0.500000      2.000000
  0.333333 -0.166667  0.500000      2.000000
  0.500000  0.166667  0.500000      2.000000
  0.000000  0.333333  0.500000      2.000000
  0.166667  0.333333  0.500000      2.000000
  0.166667 -0.333333  0.500000      2.000000
  0.333333  0.333333  0.500000      2.000000
  0.333333 -0.333333  0.500000      2.000000
  0.500000  0.333333  0.500000      2.000000
  0.000000  0.500000  0.500000      1.000000
  0.166667  0.500000  0.500000      2.000000
  0.333333  0.500000  0.500000      2.000000
  0.500000  0.500000  0.500000      1.000000
 
 Following cartesian coordinates:
            Coordinates               Weight
  0.000000  0.000000  0.000000      1.000000
  0.043199  0.000000  0.000000      2.000000
  0.086398  0.000000  0.000000      2.000000
  0.129597  0.000000  0.000000      1.000000
  0.000000  0.036820  0.000000      2.000000
  0.043199  0.036820  0.000000      2.000000
  0.043199 -0.036820  0.000000      2.000000
  0.086398  0.036820  0.000000      2.000000
  0.086398 -0.036820  0.000000      2.000000
  0.129597  0.036820  0.000000      2.000000
  0.000000  0.073639  0.000000      2.000000
  0.043199  0.073639  0.000000      2.000000
  0.043199 -0.073639  0.000000      2.000000
  0.086398  0.073639  0.000000      2.000000
  0.086398 -0.073639  0.000000      2.000000
  0.129597  0.073639  0.000000      2.000000
  0.000000  0.110459  0.000000      1.000000
  0.043199  0.110459  0.000000      2.000000
  0.086398  0.110459  0.000000      2.000000
  0.129597  0.110459  0.000000      1.000000
  0.000000  0.000000  0.043159      1.000000
  0.043199  0.000000  0.043159      2.000000
  0.086398  0.000000  0.043159      2.000000
  0.129597  0.000000  0.043159      1.000000
  0.000000  0.036820  0.043159      2.000000
  0.043199  0.036820  0.043159      2.000000
  0.043199 -0.036820  0.043159      2.000000
  0.086398  0.036820  0.043159      2.000000
  0.086398 -0.036820  0.043159      2.000000
  0.129597  0.036820  0.043159      2.000000
  0.000000  0.073639  0.043159      2.000000
  0.043199  0.073639  0.043159      2.000000
  0.043199 -0.073639  0.043159      2.000000
  0.086398  0.073639  0.043159      2.000000
  0.086398 -0.073639  0.043159      2.000000
  0.129597  0.073639  0.043159      2.000000
  0.000000  0.110459  0.043159      1.000000
  0.043199  0.110459  0.043159      2.000000
  0.086398  0.110459  0.043159      2.000000
  0.129597  0.110459  0.043159      1.000000
 


--------------------------------------------------------------------------------------------------------




 Dimension of arrays:
   k-points           NKPTS =     40   k-points in BZ     NKDIM =     40   number of bands    NBANDS=     32
   number of dos      NEDOS =    301   number of ions     NIONS =      8
   non local maximal  LDIM  =      5   non local SUM 2l+1 LMDIM =     13
   total plane-waves  NPLWV =  23328
   max r-space proj   IRMAX =      1   max aug-charges    IRDMAX=   6465
   dimension x,y,z NGX =    18 NGY =   24 NGZ =   54
   dimension x,y,z NGXF=    36 NGYF=   48 NGZF=  108
   support grid    NGXF=    36 NGYF=   48 NGZF=  108
   ions per type =               4   4
   NGX,Y,Z   is equivalent  to a cutoff of   7.76,  8.81,  7.75 a.u.
   NGXF,Y,Z  is equivalent  to a cutoff of  15.51, 17.63, 15.50 a.u.

 SYSTEM =  ./                                      
 POSCAR =  Ge Se                                   

 Startparameter for this run:
   NWRITE =      2    write-flag & timer
   PREC   = normal    normal or accurate (medium, high low for compatibility)
   ISTART =      0    job   : 0-new  1-cont  2-samecut
   ICHARG =      2    charge: 1-file 2-atom 10-const
   ISPIN  =      1    spin polarized calculation?
   LNONCOLLINEAR =      F non collinear calculations
   LSORBIT =      F    spin-orbit coupling
   INIWAV =      1    electr: 0-lowe 1-rand  2-diag
   LASPH  =      T    aspherical Exc in radial PAW
 Electronic Relaxation 1
   ENCUT  =  360.0 eV  26.46 Ry    5.14 a.u.   5.97  7.00 17.92*2*pi/ulx,y,z
   ENINI  =  360.0     initial cutoff
   ENAUG  =  446.8 eV  augmentation charge cutoff
   NELM   =    100;   NELMIN=  2; NELMDL= -5     # of ELM steps 
   EDIFF  = 0.1E-05   stopping-criterion for ELM
   LREAL  =      F    real-space projection
   NLSPLINE    = F    spline interpolate recip. space projectors
   LCOMPAT=      F    compatible to vasp.4.4
   GGA_COMPAT  = T    GGA compatible to vasp.4.4-vasp.4.6
   LMAXPAW     = -100 max onsite density
   LMAXMIX     =    4 max onsite mixed and CHGCAR
   VOSKOWN=      0    Vosko Wilk Nusair interpolation
   ROPT   =    0.00000   0.00000
 Ionic relaxation
   EDIFFG = 0.1E-04   stopping-criterion for IOM
   NSW    =      0    number of steps for IOM
   NBLOCK =      1;   KBLOCK =      1    inner block; outer block 
   IBRION =     -1    ionic relax: 0-MD 1-quasi-New 2-CG
   NFREE  =      0    steps in history (QN), initial steepest desc. (CG)
   ISIF   =      2    stress and relaxation
   IWAVPR =     10    prediction:  0-non 1-charg 2-wave 3-comb
   ISYM   =      0    0-nonsym 1-usesym 2-fastsym
   LCORR  =      T    Harris-Foulkes like correction to forces

   POTIM  = 0.5000    time-step for ionic-motion
   TEIN   =    0.0    initial temperature
   TEBEG  =    0.0;   TEEND  =   0.0 temperature during run
   SMASS  =  -3.00    Nose mass-parameter (am)
   estimated Nose-frequenzy (Omega)   =  0.10E-29 period in steps = 0.13E+47 mass=  -0.340E-27a.u.
   SCALEE = 1.0000    scale energy and forces
   NPACO  =    256;   APACO  = 10.0  distance and # of slots for P.C.
   PSTRESS=    0.0 pullay stress

  Mass of Ions in am
   POMASS =  72.61 78.96
  Ionic Valenz
   ZVAL   =   4.00  6.00
  Atomic Wigner-Seitz radii
   RWIGS  =  -1.00 -1.00
  virtual crystal weights 
   VCA    =   1.00  1.00
   NELECT =      40.0000    total number of electrons
   NUPDOWN=      -1.0000    fix difference up-down

 DOS related values:
   EMIN   =  10.00;   EMAX   =-10.00  energy-range for DOS
   EFERMI =   0.00;   METHOD = LEGACY      
   ISMEAR =     0;   SIGMA  =   0.05  broadening in eV -4-tet -1-fermi 0-gaus

 Electronic relaxation 2 (details)
   IALGO  =     38    algorithm
   LDIAG  =      T    sub-space diagonalisation (order eigenvalues)
   LSUBROT=      F    optimize rotation matrix (better conditioning)
   TURBO    =      0    0=normal 1=particle mesh
   IRESTART =      0    0=no restart 2=restart with 2 vectors
   NREBOOT  =      0    no. of reboots
   NMIN     =      0    reboot dimension
   EREF     =   0.00    reference energy to select bands
   IMIX   =      4    mixing-type and parameters
     AMIX     =   0.40;   BMIX     =  1.00
     AMIX_MAG =   1.60;   BMIX_MAG =  1.00
     AMIN     =   0.10
     WC   =   100.;   INIMIX=   1;  MIXPRE=   1;  MAXMIX= -45

 Intra band minimization:
   WEIMIN = 0.0000     energy-eigenvalue tresh-hold
   EBREAK =  0.78E-08  absolut break condition
   DEPER  =   0.30     relativ break condition  

   TIME   =   0.40     timestep for ELM

  volume/ion in A,a.u.               =      25.29       170.67
  Fermi-wavevector in a.u.,A,eV,Ry     =   0.953702  1.802236 12.375155  0.909548
  Thomas-Fermi vector in A             =   2.082382
 
 Write flags
   LWAVE        =      F    write WAVECAR
   LDOWNSAMPLE  =      F    k-point downsampling of WAVECAR
   LCHARG       =      F    write CHGCAR
   LVTOT        =      F    write LOCPOT, total local potential
   LVHAR        =      F    write LOCPOT, Hartree potential only
   LELF         =      F    write electronic localiz. function (ELF)
   LORBIT       =      0    0 simple, 1 ext, 2 COOP (PROOUT), +10 PAW based schemes


 Dipole corrections
   LMONO  =      F    monopole corrections only (constant potential shift)
   LDIPOL =      F    correct potential (dipole corrections)
   IDIPOL =      0    1-x, 2-y, 3-z, 4-all directions 
   EPSILON=  1.0000000 bulk dielectric constant

 Exchange correlation treatment:
   GGA     =    PE    GGA type
   LEXCH   =     8    internal setting for exchange type
   LIBXC   =     F    Libxc                    
   VOSKOWN =     0    Vosko Wilk Nusair interpolation
   LHFCALC =     F    Hartree Fock is set to
   LHFONE  =     F    Hartree Fock one center treatment
   AEXX    =    0.0000 exact exchange contribution

 Linear response parameters
   LEPSILON=     F    determine dielectric tensor
   LRPA    =     F    only Hartree local field effects (RPA)
   LNABLA  =     F    use nabla operator in PAW spheres
   LVEL    =     F    velocity operator in full k-point grid
   CSHIFT  =0.1000    complex shift for real part using Kramers Kronig
   OMEGAMAX=  -1.0    maximum frequency
   DEG_THRESHOLD= 0.2000000E-02 threshold for treating states as degnerate
   RTIME   =   -0.100 relaxation time in fs
  (WPLASMAI=    0.000 imaginary part of plasma frequency in eV, 0.658/RTIME)
   DFIELD  = 0.0000000 0.0000000 0.0000000 field for delta impulse in time
 
  Optional k-point grid parameters
   LKPOINTS_OPT  =     F    use optional k-point grid
   KPOINTS_OPT_MODE=     1    mode for optional k-point grid
 
 Orbital magnetization related:
   ORBITALMAG=     F  switch on orbital magnetization
   LCHIMAG   =     F  perturbation theory with respect to B field
   DQ        =  0.001000  dq finite difference perturbation B field
   LLRAUG    =     F  two centre corrections for induced B field
   LBONE     =     F  B-component reconstruction in AE one-centre
   LVGVCALC  =     T  calculate vGv susceptibility
   LVGVAPPL  =     F  apply vGv susceptibility instead of pGv for G=0

 Random number generation:
   RANDOM_GENERATOR = DEFAULT
   PCG_SEED         = not used


--------------------------------------------------------------------------------------------------------


 Static calculation
 charge density and potential will be updated during run
 non-spin polarized calculation
 Variant of blocked Davidson
 Davidson routine will perform the subspace rotation
 perform sub-space diagonalisation
    after iterative eigenvector-optimisation
 modified Broyden-mixing scheme, WC =      100.0
 initial mixing is a Kerker type mixing with AMIX =  0.4000 and BMIX =      1.0000
 Hartree-type preconditioning will be used
 using additional bands            12
 reciprocal scheme for non local part
 use partial core corrections
 calculate Harris-corrections to forces 
   (improved forces if not selfconsistent)
 use gradient corrections 
 use of overlap-Matrix (Vanderbilt PP)
 Gauss-broadening in eV      SIGMA  =   0.05


--------------------------------------------------------------------------------------------------------


  energy-cutoff  :      360.00
  volume of cell :      202.32
      direct lattice vectors                 reciprocal lattice vectors
     3.858100176  0.000000000  0.000000000     0.259194929  0.000000000  0.000000000
     0.000000000  4.526575088  0.000000000     0.000000000  0.220917577  0.000000000
     0.000000000  0.000000000 11.585176468     0.000000000  0.000000000  0.086317200

  length of vectors
     3.858100176  4.526575088 11.585176468     0.259194929  0.220917577  0.086317200


 
 k-points in units of 2pi/SCALE and weight: KPOINTS created by Atomic Simulation Env
   0.00000000  0.00000000  0.00000000       0.014
   0.04319915  0.00000000  0.00000000       0.028
   0.08639831  0.00000000  0.00000000       0.028
   0.12959746  0.00000000  0.00000000       0.014
   0.00000000  0.03681960  0.00000000       0.028
   0.04319915  0.03681960  0.00000000       0.028
   0.04319915 -0.03681960  0.00000000       0.028
   0.08639831  0.03681960  0.00000000       0.028
   0.08639831 -0.03681960  0.00000000       0.028
   0.12959746  0.03681960  0.00000000       0.028
   0.00000000  0.07363919  0.00000000       0.028
   0.04319915  0.07363919  0.00000000       0.028
   0.04319915 -0.07363919  0.00000000       0.028
   0.08639831  0.07363919  0.00000000       0.028
   0.08639831 -0.07363919  0.00000000       0.028
   0.12959746  0.07363919  0.00000000       0.028
   0.00000000  0.11045879  0.00000000       0.014
   0.04319915  0.11045879  0.00000000       0.028
   0.08639831  0.11045879  0.00000000       0.028
   0.12959746  0.11045879  0.00000000       0.014
   0.00000000  0.00000000  0.04315860       0.014
   0.04319915  0.00000000  0.04315860       0.028
   0.08639831  0.00000000  0.04315860       0.028
   0.12959746  0.00000000  0.04315860       0.014
   0.00000000  0.03681960  0.04315860       0.028
   0.04319915  0.03681960  0.04315860       0.028
   0.04319915 -0.03681960  0.04315860       0.028
   0.08639831  0.03681960  0.04315860       0.028
   0.08639831 -0.03681960  0.04315860       0.028
   0.12959746  0.03681960  0.04315860       0.028
   0.00000000  0.07363919  0.04315860       0.028
   0.04319915  0.07363919  0.04315860       0.028
   0.04319915 -0.07363919  0.04315860       0.028
   0.08639831  0.07363919  0.04315860       0.028
   0.08639831 -0.07363919  0.04315860       0.028
   0.12959746  0.07363919  0.04315860       0.028
   0.00000000  0.11045879  0.04315860       0.014
   0.04319915  0.11045879  0.04315860       0.028
   0.08639831  0.11045879  0.04315860       0.028
   0.12959746  0.11045879  0.04315860       0.014
 
 k-points in reciprocal lattice and weights: KPOINTS created by Atomic Simulation Env
   0.00000000  0.00000000  0.00000000       0.014
   0.16666667  0.00000000  0.00000000       0.028
   0.33333333  0.00000000  0.00000000       0.028
   0.50000000  0.00000000  0.00000000       0.014
   0.00000000  0.16666667  0.00000000       0.028
   0.16666667  0.16666667  0.00000000       0.028
   0.16666667 -0.16666667  0.00000000       0.028
   0.33333333  0.16666667  0.00000000       0.028
   0.33333333 -0.16666667  0.00000000       0.028
   0.50000000  0.16666667  0.00000000       0.028
   0.00000000  0.33333333  0.00000000       0.028
   0.16666667  0.33333333  0.00000000       0.028
   0.16666667 -0.33333333  0.00000000       0.028
   0.33333333  0.33333333  0.00000000       0.028
   0.33333333 -0.33333333  0.00000000       0.028
   0.50000000  0.33333333  0.00000000       0.028
   0.00000000  0.50000000  0.00000000       0.014
   0.16666667  0.50000000  0.00000000       0.028
   0.33333333  0.50000000  0.00000000       0.028
   0.50000000  0.50000000  0.00000000       0.014
   0.00000000  0.00000000  0.50000000       0.014
   0.16666667  0.00000000  0.50000000       0.028
   0.33333333  0.00000000  0.50000000       0.028
   0.50000000  0.00000000  0.50000000       0.014
   0.00000000  0.16666667  0.50000000       0.028
   0.16666667  0.16666667  0.50000000       0.028
   0.16666667 -0.16666667  0.50000000       0.028
   0.33333333  0.16666667  0.50000000       0.028
   0.33333333 -0.16666667  0.50000000       0.028
   0.50000000  0.16666667  0.50000000       0.028
   0.00000000  0.33333333  0.50000000       0.028
   0.16666667  0.33333333  0.50000000       0.028
   0.16666667 -0.33333333  0.50000000       0.028
   0.33333333  0.33333333  0.50000000       0.028
   0.33333333 -0.33333333  0.50000000       0.028
   0.50000000  0.33333333  0.50000000       0.028
   0.00000000  0.50000000  0.50000000       0.014
   0.16666667  0.50000000  0.50000000       0.028
   0.33333333  0.50000000  0.50000000       0.028
   0.50000000  0.50000000  0.50000000       0.014
 
 position of ions in fractional coordinates (direct lattice) 
   0.06159421  0.86435930  0.13197174
   0.56159417  0.36435929  0.36802823
   0.74999985  0.90375655  0.86802825
   0.24999978  0.40375650  0.63197176
   0.06159419  0.74758165  0.35110993
   0.56159421  0.24758167  0.14889005
   0.74999976  0.02053415  0.64889008
   0.24999984  0.52053418  0.85110995
 
 position of ions in cartesian coordinates  (Angst):
   0.23763662  3.91258727  1.52891595
   2.16668657  1.64929967  4.26367197
   2.89357457  4.09092188 10.05626045
   0.96452420  1.82763412  7.32150435
   0.23763655  3.38398446  4.06767047
   2.16668671  1.12069701  1.72491749
   2.89357421  0.09294938  7.51750603
   0.96452442  2.35623703  9.86025892
 


--------------------------------------------------------------------------------------------------------


 k-point   1 :   0.0000 0.0000 0.0000  plane waves:    3119
 k-point   2 :   0.1667 0.0000 0.0000  plane waves:    3116
 k-point   3 :   0.3333 0.0000 0.0000  plane waves:    3142
 k-point   4 :   0.5000 0.0000 0.0000  plane waves:    3148
 k-point   5 :   0.0000 0.1667 0.0000  plane waves:    3108
 k-point   6 :   0.1667 0.1667 0.0000  plane waves:    3123
 k-point   7 :   0.1667-0.1667 0.0000  plane waves:    3123
 k-point   8 :   0.3333 0.1667 0.0000  plane waves:    3135
 k-point   9 :   0.3333-0.1667 0.0000  plane waves:    3135
 k-point  10 :   0.5000 0.1667 0.0000  plane waves:    3138
 k-point  11 :   0.0000 0.3333 0.0000  plane waves:    3116
 k-point  12 :   0.1667 0.3333 0.0000  plane waves:    3133
 k-point  13 :   0.1667-0.3333 0.0000  plane waves:    3133
 k-point  14 :   0.3333 0.3333 0.0000  plane waves:    3155
 k-point  15 :   0.3333-0.3333 0.0000  plane waves:    3155
 k-point  16 :   0.5000 0.3333 0.0000  plane waves:    3152
 k-point  17 :   0.0000 0.5000 0.0000  plane waves:    3134
 k-point  18 :   0.1667 0.5000 0.0000  plane waves:    3140
 k-point  19 :   0.3333 0.5000 0.0000  plane waves:    3144
 k-point  20 :   0.5000 0.5000 0.0000  plane waves:    3144
 k-point  21 :   0.0000 0.0000 0.5000  plane waves:    3092
 k-point  22 :   0.1667 0.0000 0.5000  plane waves:    3124
 k-point  23 :   0.3333 0.0000 0.5000  plane waves:    3140
 k-point  24 :   0.5000 0.0000 0.5000  plane waves:    3132
 k-point  25 :   0.0000 0.1667 0.5000  plane waves:    3112
 k-point  26 :   0.1667 0.1667 0.5000  plane waves:    3140
 k-point  27 :   0.1667-0.1667 0.5000  plane waves:    3140
 k-point  28 :   0.3333 0.1667 0.5000  plane waves:    3134
 k-point  29 :   0.3333-0.1667 0.5000  plane waves:    3134
 k-point  30 :   0.5000 0.1667 0.5000  plane waves:    3144
 k-point  31 :   0.0000 0.3333 0.5000  plane waves:    3130
 k-point  32 :   0.1667 0.3333 0.5000  plane waves:    3148
 k-point  33 :   0.1667-0.3333 0.5000  plane waves:    3148
 k-point  34 :   0.3333 0.3333 0.5000  plane waves:    3142
 k-point  35 :   0.3333-0.3333 0.5000  plane waves:    3142
 k-point  36 :   0.5000 0.3333 0.5000  plane waves:    3152
 k-point  37 :   0.0000 0.5000 0.5000  plane waves:    3132
 k-point  38 :   0.1667 0.5000 0.5000  plane waves:    3148
 k-point  39 :   0.3333 0.5000 0.5000  plane waves:    3140
 k-point  40 :   0.5000 0.5000 0.5000  plane waves:    3160

 maximum and minimum number of plane-waves per node :       659      606

 maximum number of plane-waves:      3160
 maximum index in each direction: 
   IXMAX=    5   IYMAX=    7   IZMAX=   17
   IXMIN=   -6   IYMIN=   -7   IZMIN=  -18


 parallel 3D FFT for wavefunctions:
    minimum data exchange during FFTs selected (reduces bandwidth)
 parallel 3D FFT for charge:
    minimum data exchange during FFTs selected (reduces bandwidth)


 total amount of memory used by VASP MPI-rank0    37119. kBytes
=======================================================================

   base      :      30000. kBytes
   nonl-proj :       5406. kBytes
   fftplans  :        334. kBytes
   grid      :        503. kBytes
   one-center:         16. kBytes
   wavefun   :        860. kBytes
 
     INWAV:  cpu time      0.0000: real time      0.0001
 Broyden mixing: mesh for mixing (old mesh)
   NGX = 11   NGY = 15   NGZ = 35
  (NGX  = 36   NGY  = 48   NGZ  =108)
  gives a total of   5775 points

 initial charge density was supplied:
 charge density of overlapping atoms calculated
 number of electron      40.0000000 magnetization 
 keeping initial charge density in first step


--------------------------------------------------------------------------------------------------------


 Maximum index for augmentation-charges           404 (set IRDMAX)


--------------------------------------------------------------------------------------------------------


 First call to EWALD:  gamma=   0.302
 Maximum number of real-space cells 4x 3x 2
 Maximum number of reciprocal cells 2x 2x 5

    FEWALD:  cpu time      0.0011: real time      0.0011


--------------------------------------- Ionic step        1  -------------------------------------------




--------------------------------------- Iteration      1(   1)  ---------------------------------------


    POTLOK:  cpu time      0.0085: real time      0.0086
    SETDIJ:  cpu time      0.2175: real time      0.2181
     EDDAV:  cpu time      0.3029: real time      0.3046
       DOS:  cpu time      0.0011: real time      0.0011
    --------------------------------------------
      LOOP:  cpu time      0.5300: real time      0.5324

 eigenvalue-minimisations  :  2560
 total energy-change (2. order) : 0.1312822E+03  (-0.1285736E+04)
 number of electron      40.0000000 magnetization 
 augmentation part       40.0000000 magnetization 

 Free energy of the ion-electron system (eV)
  ---------------------------------------------------
  alpha Z        PSCENC =        83.74935623
  Ewald energy   TEWEN  =     -1383.88805334
  -Hartree energ DENC   =      -145.43868058
  -exchange      EXHF   =         0.00000000
  -V(xc)+E(xc)   XCENC  =       -33.74696750
  PAW double counting   =      1193.78262552    -1080.73714043
  entropy T*S    EENTRO =        -0.00272866
  eigenvalues    EBANDS =        49.07918865
  atomic energy  EATOM  =      1448.48460880
  Solvation  Ediel_sol  =         0.00000000
  ---------------------------------------------------
  free energy    TOTEN  =       131.28220871 eV

  energy without entropy =      131.28493736  energy(sigma->0) =      131.28357303


--------------------------------------------------------------------------------------------------------




--------------------------------------- Iteration      1(   2)  ---------------------------------------


     EDDAV:  cpu time      0.4416: real time      0.4440
       DOS:  cpu time      0.0005: real time      0.0005
    --------------------------------------------
      LOOP:  cpu time      0.4421: real time      0.4445

 eigenvalue-minimisations  :  3760
 total energy-change (2. order) :-0.1565296E+03  (-0.1519507E+03)
 number of electron      40.0000000 magnetization 
 augmentation part       40.0000000 magnetization 

 Free energy of the ion-electron system (eV)
  ---------------------------------------------------
  alpha Z        PSCENC =        83.74935623
  Ewald energy   TEWEN  =     -1383.88805334
  -Hartree energ DENC   =      -145.43868058
  -exchange      EXHF   =         0.00000000
  -V(xc)+E(xc)   XCENC  =       -33.74696750
  PAW double counting   =      1193.78262552    -1080.73714043
  entropy T*S    EENTRO =        -0.00000000
  eigenvalues    EBANDS =      -107.45316703
  atomic energy  EATOM  =      1448.48460880
  Solvation  Ediel_sol  =         0.00000000
  ---------------------------------------------------
  free energy    TOTEN  =       -25.24741833 eV

  energy without entropy =      -25.24741833  energy(sigma->0) =      -25.24741833


--------------------------------------------------------------------------------------------------------




--------------------------------------- Iteration      1(   3)  ---------------------------------------


     EDDAV:  cpu time      0.3588: real time      0.3607
       DOS:  cpu time      0.0005: real time      0.0005
    --------------------------------------------
      LOOP:  cpu time      0.3593: real time      0.3612

 eigenvalue-minimisations  :  3088
 total energy-change (2. order) :-0.8771054E+01  (-0.8752389E+01)
 number of electron      40.0000000 magnetization 
 augmentation part       40.0000000 magnetization 

 Free energy of the ion-electron system (eV)
  ---------------------------------------------------
  alpha Z        PSCENC =        83.74935623
  Ewald energy   TEWEN  =     -1383.88805334
  -Hartree energ DENC   =      -145.43868058
  -exchange      EXHF   =         0.00000000
  -V(xc)+E(xc)   XCENC  =       -33.74696750
  PAW double counting   =      1193.78262552    -1080.73714043
  entropy T*S    EENTRO =        -0.00000000
  eigenvalues    EBANDS =      -116.22422136
  atomic energy  EATOM  =      1448.48460880
  Solvation  Ediel_sol  =         0.00000000
  ---------------------------------------------------
  free energy    TOTEN  =       -34.01847266 eV

  energy without entropy =      -34.01847266  energy(sigma->0) =      -34.01847266


--------------------------------------------------------------------------------------------------------




--------------------------------------- Iteration      1(   4)  ---------------------------------------


     EDDAV:  cpu time      0.4006: real time      0.4024
       DOS:  cpu time      0.0006: real time      0.0006
    --------------------------------------------
      LOOP:  cpu time      0.4012: real time      0.4030

 eigenvalue-minimisations  :  3376
 total energy-change (2. order) :-0.6424131E-01  (-0.6422491E-01)
 number of electron      40.0000000 magnetization 
 augmentation part       40.0000000 magnetization 

 Free energy of the ion-electron system (eV)
  ---------------------------------------------------
  alpha Z        PSCENC =        83.74935623
  Ewald energy   TEWEN  =     -1383.88805334
  -Hartree energ DENC   =      -145.43868058
  -exchange      EXHF   =         0.00000000
  -V(xc)+E(xc)   XCENC  =       -33.74696750
  PAW double counting   =      1193.78262552    -1080.73714043
  entropy T*S    EENTRO =        -0.00000000
  eigenvalues    EBANDS =      -116.28846268
  atomic energy  EATOM  =      1448.48460880
  Solvation  Ediel_sol  =         0.00000000
  ---------------------------------------------------
  free energy    TOTEN  =       -34.08271397 eV

  energy without entropy =      -34.08271397  energy(sigma->0) =      -34.08271397


--------------------------------------------------------------------------------------------------------




--------------------------------------- Iteration      1(   5)  ---------------------------------------


     EDDAV:  cpu time      0.4233: real time      0.4255
       DOS:  cpu time      0.0005: real time      0.0005
    CHARGE:  cpu time      0.0056: real time      0.0056
    MIXING:  cpu time      0.0004: real time      0.0004
    --------------------------------------------
      LOOP:  cpu time      0.4299: real time      0.4320

 eigenvalue-minimisations  :  3104
 total energy-change (2. order) :-0.4548760E-03  (-0.4548671E-03)
 number of electron      39.9999960 magnetization 
 augmentation part       -7.4122084 magnetization 

 Broyden mixing:
  rms(total) = 0.64774E+00    rms(broyden)= 0.64772E+00
  rms(prec ) = 0.72798E+00
  weight for this iteration     100.00

 Free energy of the ion-electron system (eV)
  ---------------------------------------------------
  alpha Z        PSCENC =        83.74935623
  Ewald energy   TEWEN  =     -1383.88805334
  -Hartree energ DENC   =      -145.43868058
  -exchange      EXHF   =         0.00000000
  -V(xc)+E(xc)   XCENC  =       -33.74696750
  PAW double counting   =      1193.78262552    -1080.73714043
  entropy T*S    EENTRO =        -0.00000000
  eigenvalues    EBANDS =      -116.28891755
  atomic energy  EATOM  =      1448.48460880
  Solvation  Ediel_sol  =         0.00000000
  ---------------------------------------------------
  free energy    TOTEN  =       -34.08316885 eV

  energy without entropy =      -34.08316885  energy(sigma->0) =      -34.08316885


--------------------------------------------------------------------------------------------------------




--------------------------------------- Iteration      1(   6)  ---------------------------------------


    POTLOK:  cpu time      0.0077: real time      0.0079
    SETDIJ:  cpu time      0.2167: real time      0.2172
     EDDAV:  cpu time      0.3857: real time      0.3877
       DOS:  cpu time      0.0005: real time      0.0005
    CHARGE:  cpu time      0.0054: real time      0.0055
    MIXING:  cpu time      0.0005: real time      0.0005
    --------------------------------------------
      LOOP:  cpu time      0.6167: real time      0.6192

 eigenvalue-minimisations  :  3184
 total energy-change (2. order) : 0.3923239E+00  (-0.8253556E-01)
 number of electron      39.9999962 magnetization 
 augmentation part       -7.3529463 magnetization 

 Broyden mixing:
  rms(total) = 0.40807E+00    rms(broyden)= 0.40807E+00
  rms(prec ) = 0.42840E+00
  weight for this iteration     100.00

 eigenvalues of (default mixing * dielectric matrix)
  average eigenvalue GAMMA=   2.1713
  2.1713

 Free energy of the ion-electron system (eV)
  ---------------------------------------------------
  alpha Z        PSCENC =        83.74935623
  Ewald energy   TEWEN  =     -1383.88805334
  -Hartree energ DENC   =      -151.63012860
  -exchange      EXHF   =         0.00000000
  -V(xc)+E(xc)   XCENC  =       -33.12230243
  PAW double counting   =      1455.32570545    -1342.59604079
  entropy T*S    EENTRO =        -0.00000000
  eigenvalues    EBANDS =      -110.01399025
  atomic energy  EATOM  =      1448.48460880
  Solvation  Ediel_sol  =         0.00000000
  ---------------------------------------------------
  free energy    TOTEN  =       -33.69084493 eV

  energy without entropy =      -33.69084493  energy(sigma->0) =      -33.69084493


--------------------------------------------------------------------------------------------------------




--------------------------------------- Iteration      1(   7)  ---------------------------------------


    POTLOK:  cpu time      0.0078: real time      0.0079
    SETDIJ:  cpu time      0.2163: real time      0.2173
     EDDAV:  cpu time      0.3622: real time      0.3636
       DOS:  cpu time      0.0005: real time      0.0005
    CHARGE:  cpu time      0.0054: real time      0.0054
    MIXING:  cpu time      0.0005: real time      0.0005
    --------------------------------------------
      LOOP:  cpu time      0.5926: real time      0.5952

 eigenvalue-minimisations  :  3040
 total energy-change (2. order) : 0.8988078E-02  (-0.2272726E-01)
 number of electron      39.9999962 magnetization 
 augmentation part       -7.3364589 magnetization 

 Broyden mixing:
  rms(total) = 0.13084E+00    rms(broyden)= 0.13084E+00
  rms(prec ) = 0.13940E+00
  weight for this iteration     100.00

 eigenvalues of (default mixing * dielectric matrix)
  average eigenvalue GAMMA=   1.7806
  1.1877  2.3734

 Free energy of the ion-electron system (eV)
  ---------------------------------------------------
  alpha Z        PSCENC =        83.74935623
  Ewald energy   TEWEN  =     -1383.88805334
  -Hartree energ DENC   =      -154.49769895
  -exchange      EXHF   =         0.00000000
  -V(xc)+E(xc)   XCENC  =       -32.64032254
  PAW double counting   =      1776.03561612    -1663.53530831
  entropy T*S    EENTRO =        -0.00000000
  eigenvalues    EBANDS =      -107.39005485
  atomic energy  EATOM  =      1448.48460880
  Solvation  Ediel_sol  =         0.00000000
  ---------------------------------------------------
  free energy    TOTEN  =       -33.68185685 eV

  energy without entropy =      -33.68185685  energy(sigma->0) =      -33.68185685


--------------------------------------------------------------------------------------------------------




--------------------------------------- Iteration      1(   8)  ---------------------------------------


    POTLOK:  cpu time      0.0077: real time      0.0078
    SETDIJ:  cpu time      0.2164: real time      0.2169
     EDDAV:  cpu time      0.3948: real time      0.3970
       DOS:  cpu time      0.0006: real time      0.0006
    CHARGE:  cpu time      0.0055: real time      0.0056
    MIXING:  cpu time      0.0008: real time      0.0008
    --------------------------------------------
      LOOP:  cpu time      0.6257: real time      0.6286

 eigenvalue-minimisations  :  3104
 total energy-change (2. order) : 0.1183679E-02  (-0.2275364E-02)
 number of electron      39.9999962 magnetization 
 augmentation part       -7.3443925 magnetization 

 Broyden mixing:
  rms(total) = 0.18206E-01    rms(broyden)= 0.18206E-01
  rms(prec ) = 0.22107E-01
  weight for this iteration     100.00

 eigenvalues of (default mixing * dielectric matrix)
  average eigenvalue GAMMA=   1.6889
  2.5152  1.2757  1.2757

 Free energy of the ion-electron system (eV)
  ---------------------------------------------------
  alpha Z        PSCENC =        83.74935623
  Ewald energy   TEWEN  =     -1383.88805334
  -Hartree energ DENC   =      -154.69710960
  -exchange      EXHF   =         0.00000000
  -V(xc)+E(xc)   XCENC  =       -32.49258401
  PAW double counting   =      1914.53129808    -1802.08965269
  entropy T*S    EENTRO =        -0.00000000
  eigenvalues    EBANDS =      -107.27853664
  atomic energy  EATOM  =      1448.48460880
  Solvation  Ediel_sol  =         0.00000000
  ---------------------------------------------------
  free energy    TOTEN  =       -33.68067317 eV

  energy without entropy =      -33.68067317  energy(sigma->0) =      -33.68067317


--------------------------------------------------------------------------------------------------------




--------------------------------------- Iteration      1(   9)  ---------------------------------------


    POTLOK:  cpu time      0.0077: real time      0.0079
    SETDIJ:  cpu time      0.2165: real time      0.2170
     EDDAV:  cpu time      0.4432: real time      0.4452
       DOS:  cpu time      0.0006: real time      0.0006
    CHARGE:  cpu time      0.0054: real time      0.0055
    MIXING:  cpu time      0.0005: real time      0.0005
    --------------------------------------------
      LOOP:  cpu time      0.6739: real time      0.6766

 eigenvalue-minimisations  :  3232
 total energy-change (2. order) :-0.4189579E-03  (-0.3511993E-03)
 number of electron      39.9999962 magnetization 
 augmentation part       -7.3426756 magnetization 

 Broyden mixing:
  rms(total) = 0.69914E-02    rms(broyden)= 0.69913E-02
  rms(prec ) = 0.78006E-02
  weight for this iteration     100.00

 eigenvalues of (default mixing * dielectric matrix)
  average eigenvalue GAMMA=   1.7564
  2.3416  2.3416  1.1712  1.1712

 Free energy of the ion-electron system (eV)
  ---------------------------------------------------
  alpha Z        PSCENC =        83.74935623
  Ewald energy   TEWEN  =     -1383.88805334
  -Hartree energ DENC   =      -155.08534085
  -exchange      EXHF   =         0.00000000
  -V(xc)+E(xc)   XCENC  =       -32.44709434
  PAW double counting   =      1929.94076641    -1817.50944607
  entropy T*S    EENTRO =        -0.00000000
  eigenvalues    EBANDS =      -106.92588897
  atomic energy  EATOM  =      1448.48460880
  Solvation  Ediel_sol  =         0.00000000
  ---------------------------------------------------
  free energy    TOTEN  =       -33.68109213 eV

  energy without entropy =      -33.68109213  energy(sigma->0) =      -33.68109213


--------------------------------------------------------------------------------------------------------




--------------------------------------- Iteration      1(  10)  ---------------------------------------


    POTLOK:  cpu time      0.0076: real time      0.0078
    SETDIJ:  cpu time      0.2149: real time      0.2155
     EDDAV:  cpu time      0.3838: real time      0.3857
       DOS:  cpu time      0.0006: real time      0.0006
    CHARGE:  cpu time      0.0053: real time      0.0054
    MIXING:  cpu time      0.0005: real time      0.0005
    --------------------------------------------
      LOOP:  cpu time      0.6127: real time      0.6153

 eigenvalue-minimisations  :  3360
 total energy-change (2. order) :-0.1480198E-03  (-0.3219307E-04)
 number of electron      39.9999962 magnetization 
 augmentation part       -7.3426046 magnetization 

 Broyden mixing:
  rms(total) = 0.25329E-02    rms(broyden)= 0.25328E-02
  rms(prec ) = 0.30442E-02
  weight for this iteration     100.00

 eigenvalues of (default mixing * dielectric matrix)
  average eigenvalue GAMMA=   1.7494
  2.7204  2.4485  1.1504  1.2139  1.2139

 Free energy of the ion-electron system (eV)
  ---------------------------------------------------
  alpha Z        PSCENC =        83.74935623
  Ewald energy   TEWEN  =     -1383.88805334
  -Hartree energ DENC   =      -155.12659967
  -exchange      EXHF   =         0.00000000
  -V(xc)+E(xc)   XCENC  =       -32.44309113
  PAW double counting   =      1922.36823285    -1809.93101568
  entropy T*S    EENTRO =        -0.00000000
  eigenvalues    EBANDS =      -106.89467821
  atomic energy  EATOM  =      1448.48460880
  Solvation  Ediel_sol  =         0.00000000
  ---------------------------------------------------
  free energy    TOTEN  =       -33.68124015 eV

  energy without entropy =      -33.68124015  energy(sigma->0) =      -33.68124015


--------------------------------------------------------------------------------------------------------




--------------------------------------- Iteration      1(  11)  ---------------------------------------


    POTLOK:  cpu time      0.0076: real time      0.0077
    SETDIJ:  cpu time      0.2190: real time      0.2194
     EDDAV:  cpu time      0.3513: real time      0.3528
       DOS:  cpu time      0.0006: real time      0.0006
    CHARGE:  cpu time      0.0057: real time      0.0058
    MIXING:  cpu time      0.0005: real time      0.0005
    --------------------------------------------
      LOOP:  cpu time      0.5847: real time      0.5869

 eigenvalue-minimisations  :  2912
 total energy-change (2. order) :-0.3441722E-04  (-0.4189091E-05)
 number of electron      39.9999962 magnetization 
 augmentation part       -7.3427462 magnetization 

 Broyden mixing:
  rms(total) = 0.12117E-02    rms(broyden)= 0.12117E-02
  rms(prec ) = 0.13497E-02
  weight for this iteration     100.00

 eigenvalues of (default mixing * dielectric matrix)
  average eigenvalue GAMMA=   1.7262
  2.4166  2.4166  2.2525  1.1755  1.1755  0.9207

 Free energy of the ion-electron system (eV)
  ---------------------------------------------------
  alpha Z        PSCENC =        83.74935623
  Ewald energy   TEWEN  =     -1383.88805334
  -Hartree energ DENC   =      -155.16189035
  -exchange      EXHF   =         0.00000000
  -V(xc)+E(xc)   XCENC  =       -32.43594443
  PAW double counting   =      1924.30433316    -1811.86764995
  entropy T*S    EENTRO =        -0.00000000
  eigenvalues    EBANDS =      -106.86603468
  atomic energy  EATOM  =      1448.48460880
  Solvation  Ediel_sol  =         0.00000000
  ---------------------------------------------------
  free energy    TOTEN  =       -33.68127457 eV

  energy without entropy =      -33.68127457  energy(sigma->0) =      -33.68127457


--------------------------------------------------------------------------------------------------------




--------------------------------------- Iteration      1(  12)  ---------------------------------------


    POTLOK:  cpu time      0.0076: real time      0.0078
    SETDIJ:  cpu time      0.2166: real time      0.2172
     EDDAV:  cpu time      0.4370: real time      0.4391
       DOS:  cpu time      0.0006: real time      0.0006
    CHARGE:  cpu time      0.0056: real time      0.0056
    MIXING:  cpu time      0.0006: real time      0.0006
    --------------------------------------------
      LOOP:  cpu time      0.6679: real time      0.6709

 eigenvalue-minimisations  :  3456
 total energy-change (2. order) :-0.1633367E-05  (-0.6554439E-06)
 number of electron      39.9999962 magnetization 
 augmentation part       -7.3426389 magnetization 

 Broyden mixing:
  rms(total) = 0.30414E-03    rms(broyden)= 0.30414E-03
  rms(prec ) = 0.37406E-03
  weight for this iteration     100.00

 eigenvalues of (default mixing * dielectric matrix)
  average eigenvalue GAMMA=   1.7071
  2.9506  2.4257  2.0376  0.9857  1.2703  1.1400  1.1400

 Free energy of the ion-electron system (eV)
  ---------------------------------------------------
  alpha Z        PSCENC =        83.74935623
  Ewald energy   TEWEN  =     -1383.88805334
  -Hartree energ DENC   =      -155.17625286
  -exchange      EXHF   =         0.00000000
  -V(xc)+E(xc)   XCENC  =       -32.43488096
  PAW double counting   =      1923.74070996    -1811.30395350
  entropy T*S    EENTRO =        -0.00000000
  eigenvalues    EBANDS =      -106.85281054
  atomic energy  EATOM  =      1448.48460880
  Solvation  Ediel_sol  =         0.00000000
  ---------------------------------------------------
  free energy    TOTEN  =       -33.68127620 eV

  energy without entropy =      -33.68127620  energy(sigma->0) =      -33.68127620


--------------------------------------------------------------------------------------------------------




--------------------------------------- Iteration      1(  13)  ---------------------------------------


    POTLOK:  cpu time      0.0077: real time      0.0078
    SETDIJ:  cpu time      0.2172: real time      0.2175
     EDDAV:  cpu time      0.2773: real time      0.2790
       DOS:  cpu time      0.0005: real time      0.0005
    --------------------------------------------
      LOOP:  cpu time      0.5027: real time      0.5049

 eigenvalue-minimisations  :  2000
 total energy-change (2. order) :-0.7268969E-06  (-0.1483653E-06)
 number of electron      39.9999962 magnetization 
 augmentation part       -7.3426389 magnetization 

 Free energy of the ion-electron system (eV)
  ---------------------------------------------------
  alpha Z        PSCENC =        83.74935623
  Ewald energy   TEWEN  =     -1383.88805334
  -Hartree energ DENC   =      -155.18091799
  -exchange      EXHF   =         0.00000000
  -V(xc)+E(xc)   XCENC  =       -32.43423941
  PAW double counting   =      1923.66325698    -1811.22633940
  entropy T*S    EENTRO =        -0.00000000
  eigenvalues    EBANDS =      -106.84894880
  atomic energy  EATOM  =      1448.48460880
  Solvation  Ediel_sol  =         0.00000000
  ---------------------------------------------------
  free energy    TOTEN  =       -33.68127693 eV

  energy without entropy =      -33.68127693  energy(sigma->0) =      -33.68127693


--------------------------------------------------------------------------------------------------------




 average (electrostatic) potential at core
  the test charge radii are     1.1631  1.0808
  (the norm of the test charge is              1.0000)
       1 -33.8142       2 -33.8142       3 -33.8142       4 -33.8142       5 -55.3098
       6 -55.3098       7 -55.3098       8 -55.3098
 
 
 
 E-fermi :   2.9804     XC(G=0):  -9.0598     alpha+bet : -8.3433

 Fermi energy:         2.9804115201

 k-point     1 :       0.0000    0.0000    0.0000
  band No.  band energies     occupation 
      1     -11.2151      2.00000
      2     -11.0145      2.00000
      3      -9.9403      2.00000
      4      -9.6509      2.00000
      5      -5.0521      2.00000
      6      -4.4221      2.00000
      7      -3.0507      2.00000
      8      -2.6034      2.00000
      9      -2.0326      2.00000
     10      -0.6885      2.00000
     11      -0.4908      2.00000
     12      -0.3991      2.00000
     13      -0.0262      2.00000
     14       0.0699      2.00000
     15       1.0716      2.00000
     16       1.2552      2.00000
     17       1.3766      2.00000
     18       1.6607      2.00000
     19       2.4915      2.00000
     20       2.5688      2.00000
     21       3.2096      0.00000
     22       5.2911      0.00000
     23       5.5653      0.00000
     24       5.7485      0.00000
     25       6.0803      0.00000
     26       6.5776      0.00000
     27       6.8256      0.00000
     28       6.9136      0.00000
     29       7.5616      0.00000
     30       8.1581      0.00000
     31       8.4313      0.00000
     32       8.5609      0.00000

 k-point     2 :       0.1667    0.0000    0.0000
  band No.  band energies     occupation 
      1     -11.0291      2.00000
      2     -10.8369      2.00000
      3      -9.8363      2.00000
      4      -9.5813      2.00000
      5      -5.2568      2.00000
      6      -4.6667      2.00000
      7      -3.4662      2.00000
      8      -3.0633      2.00000
      9      -1.8679      2.00000
     10      -0.5681      2.00000
     11      -0.4579      2.00000
     12      -0.3543      2.00000
     13      -0.1690      2.00000
     14      -0.0063      2.00000
     15       0.8099      2.00000
     16       1.0699      2.00000
     17       1.5353      2.00000
     18       1.9034      2.00000
     19       2.1423      2.00000
     20       2.5893      2.00000
     21       3.4609      0.00000
     22       5.1063      0.00000
     23       5.6556      0.00000
     24       5.9124      0.00000
     25       6.1125      0.00000
     26       6.3245      0.00000
     27       6.4265      0.00000
     28       6.9929      0.00000
     29       7.3854      0.00000
     30       7.5479      0.00000
     31       7.5520      0.00000
     32       8.3955      0.00000

 k-point     3 :       0.3333    0.0000    0.0000
  band No.  band energies     occupation 
      1     -10.5250      2.00000
      2     -10.3628      2.00000
      3      -9.6841      2.00000
      4      -9.5336      2.00000
      5      -5.6584      2.00000
      6      -5.1072      2.00000
      7      -4.5692      2.00000
      8      -4.0868      2.00000
      9      -1.3008      2.00000
     10      -0.5112      2.00000
     11      -0.3621      2.00000
     12       0.0384      2.00000
     13       0.2217      2.00000
     14       0.4653      2.00000
     15       0.7003      2.00000
     16       1.0397      2.00000
     17       1.4241      2.00000
     18       1.6780      2.00000
     19       2.1719      2.00000
     20       2.3207      2.00000
     21       3.8713      0.00000
     22       4.0164      0.00000
     23       4.4821      0.00000
     24       5.0523      0.00000
     25       5.1002      0.00000
     26       5.2640      0.00000
     27       5.8354      0.00000
     28       6.1245      0.00000
     29       6.4918      0.00000
     30       6.8923      0.00000
     31       7.0265      0.00000
     32       8.1187      0.00000

 k-point     4 :       0.5000    0.0000    0.0000
  band No.  band energies     occupation 
      1      -9.9213      2.00000
      2      -9.9213      2.00000
      3      -9.8161      2.00000
      4      -9.8161      2.00000
      5      -5.5132      2.00000
      6      -5.5132      2.00000
      7      -4.9685      2.00000
      8      -4.9685      2.00000
      9      -0.5601      2.00000
     10      -0.5601      2.00000
     11       0.0951      2.00000
     12       0.0951      2.00000
     13       0.5796      2.00000
     14       0.5796      2.00000
     15       0.9198      2.00000
     16       0.9198      2.00000
     17       1.3107      2.00000
     18       1.3107      2.00000
     19       2.0452      2.00000
     20       2.0452      2.00000
     21       3.8972      0.00000
     22       3.8972      0.00000
     23       4.4194      0.00000
     24       4.4194      0.00000
     25       4.9525      0.00000
     26       4.9525      0.00000
     27       5.1247      0.00000
     28       5.1247      0.00000
     29       5.8125      0.00000
     30       5.8125      0.00000
     31       7.4724      0.00000
     32       7.4724      0.00000

 k-point     5 :       0.0000    0.1667    0.0000
  band No.  band energies     occupation 
      1     -11.0982      2.00000
      2     -10.9096      2.00000
      3      -9.9467      2.00000
      4      -9.7104      2.00000
      5      -5.2811      2.00000
      6      -4.6525      2.00000
      7      -3.7034      2.00000
      8      -3.0620      2.00000
      9      -1.8370      2.00000
     10      -0.2855      2.00000
     11      -0.0642      2.00000
     12       0.0693      2.00000
     13       0.1349      2.00000
     14       0.2116      2.00000
     15       1.2569      2.00000
     16       1.3566      2.00000
     17       1.6918      2.00000
     18       1.6974      2.00000
     19       2.0354      2.00000
     20       2.6568      2.00000
     21       3.5807      0.00000
     22       5.1357      0.00000
     23       5.4558      0.00000
     24       5.5639      0.00000
     25       5.6721      0.00000
     26       6.2044      0.00000
     27       6.3514      0.00000
     28       7.0411      0.00000
     29       7.2084      0.00000
     30       7.5603      0.00000
     31       7.8550      0.00000
     32       8.7066      0.00000

 k-point     6 :       0.1667    0.1667    0.0000
  band No.  band energies     occupation 
      1     -10.9195      2.00000
      2     -10.7360      2.00000
      3      -9.8470      2.00000
      4      -9.6312      2.00000
      5      -5.3857      2.00000
      6      -4.7378      2.00000
      7      -3.8011      2.00000
      8      -3.4381      2.00000
      9      -1.6884      2.00000
     10      -0.9948      2.00000
     11      -0.8719      2.00000
     12      -0.1860      2.00000
     13       0.4683      2.00000
     14       0.6321      2.00000
     15       0.8577      2.00000
     16       0.8762      2.00000
     17       1.8458      2.00000
     18       1.9032      2.00000
     19       2.2767      2.00000
     20       2.3654      2.00000
     21       3.7377      0.00000
     22       4.8227      0.00000
     23       5.1511      0.00000
     24       5.3051      0.00000
     25       6.1046      0.00000
     26       6.5382      0.00000
     27       6.7146      0.00000
     28       7.1705      0.00000
     29       7.2233      0.00000
     30       7.2960      0.00000
     31       7.4481      0.00000
     32       8.2756      0.00000

 k-point     7 :       0.1667   -0.1667    0.0000
  band No.  band energies     occupation 
      1     -10.9163      2.00000
      2     -10.7393      2.00000
      3      -9.8406      2.00000
      4      -9.6388      2.00000
      5      -5.3526      2.00000
      6      -4.7726      2.00000
      7      -3.9247      2.00000
      8      -3.2867      2.00000
      9      -1.6671      2.00000
     10      -1.0585      2.00000
     11      -0.7785      2.00000
     12      -0.2421      2.00000
     13       0.4527      2.00000
     14       0.5876      2.00000
     15       0.8381      2.00000
     16       0.8707      2.00000
     17       1.6305      2.00000
     18       2.0352      2.00000
     19       2.1428      2.00000
     20       2.7306      2.00000
     21       3.7835      0.00000
     22       4.8210      0.00000
     23       5.0893      0.00000
     24       5.4689      0.00000
     25       5.9453      0.00000
     26       6.5120      0.00000
     27       6.5338      0.00000
     28       6.7208      0.00000
     29       7.3716      0.00000
     30       7.4498      0.00000
     31       7.5004      0.00000
     32       8.6776      0.00000

 k-point     8 :       0.3333    0.1667    0.0000
  band No.  band energies     occupation 
      1     -10.4389      2.00000
      2     -10.2805      2.00000
      3      -9.6904      2.00000
      4      -9.5509      2.00000
      5      -5.6218      2.00000
      6      -4.9959      2.00000
      7      -4.5395      2.00000
      8      -4.2234      2.00000
      9      -1.2693      2.00000
     10      -1.2174      2.00000
     11      -1.1341      2.00000
     12      -0.2924      2.00000
     13       0.2177      2.00000
     14       0.5734      2.00000
     15       0.7922      2.00000
     16       0.9454      2.00000
     17       1.1606      2.00000
     18       1.8045      2.00000
     19       1.9859      2.00000
     20       2.0841      2.00000
     21       3.8234      0.00000
     22       4.5957      0.00000
     23       4.6750      0.00000
     24       5.1786      0.00000
     25       5.2820      0.00000
     26       5.7658      0.00000
     27       6.2695      0.00000
     28       7.0679      0.00000
     29       7.3002      0.00000
     30       7.3777      0.00000
     31       7.5751      0.00000
     32       7.8805      0.00000

 k-point     9 :       0.3333   -0.1667    0.0000
  band No.  band energies     occupation 
      1     -10.4313      2.00000
      2     -10.2882      2.00000
      3      -9.6790      2.00000
      4      -9.5641      2.00000
      5      -5.5617      2.00000
      6      -5.0593      2.00000
      7      -4.6543      2.00000
      8      -4.0969      2.00000
      9      -1.2559      2.00000
     10      -1.1840      2.00000
     11      -1.1160      2.00000
     12      -0.3294      2.00000
     13       0.3067      2.00000
     14       0.5454      2.00000
     15       0.5500      2.00000
     16       0.9460      2.00000
     17       1.2460      2.00000
     18       1.6716      2.00000
     19       1.7493      2.00000
     20       2.6172      2.00000
     21       3.8393      0.00000
     22       4.5621      0.00000
     23       4.7048      0.00000
     24       5.1367      0.00000
     25       5.4046      0.00000
     26       5.9356      0.00000
     27       6.2059      0.00000
     28       6.3890      0.00000
     29       6.8211      0.00000
     30       7.4883      0.00000
     31       7.9139      0.00000
     32       8.2984      0.00000

 k-point    10 :       0.5000    0.1667    0.0000
  band No.  band energies     occupation 
      1      -9.8823      2.00000
      2      -9.8755      2.00000
      3      -9.7847      2.00000
      4      -9.7784      2.00000
      5      -5.4549      2.00000
      6      -5.3907      2.00000
      7      -4.9395      2.00000
      8      -4.8728      2.00000
      9      -0.8518      2.00000
     10      -0.7707      2.00000
     11      -0.5408      2.00000
     12      -0.4841      2.00000
     13       0.0001      2.00000
     14       0.2535      2.00000
     15       0.2983      2.00000
     16       0.3311      2.00000
     17       1.3284      2.00000
     18       1.3634      2.00000
     19       1.9419      2.00000
     20       2.2637      2.00000
     21       4.0531      0.00000
     22       4.0569      0.00000
     23       4.8377      0.00000
     24       4.9023      0.00000
     25       5.6840      0.00000
     26       5.9736      0.00000
     27       6.0750      0.00000
     28       6.1959      0.00000
     29       6.6341      0.00000
     30       6.6797      0.00000
     31       6.9287      0.00000
     32       7.6353      0.00000

 k-point    11 :       0.0000    0.3333    0.0000
  band No.  band energies     occupation 
      1     -10.7748      2.00000
      2     -10.6278      2.00000
      3     -10.0324      2.00000
      4      -9.9313      2.00000
      5      -5.5555      2.00000
      6      -4.8933      2.00000
      7      -4.6872      2.00000
      8      -3.9710      2.00000
      9      -1.3212      2.00000
     10       0.2502      2.00000
     11       0.4752      2.00000
     12       0.5431      2.00000
     13       0.6092      2.00000
     14       0.9403      2.00000
     15       1.2397      2.00000
     16       1.2449      2.00000
     17       1.2941      2.00000
     18       2.3244      2.00000
     19       2.6714      2.00000
     20       2.7311      2.00000
     21       4.1683      0.00000
     22       4.2254      0.00000
     23       4.5393      0.00000
     24       5.3243      0.00000
     25       5.4985      0.00000
     26       5.6097      0.00000
     27       5.7826      0.00000
     28       6.3446      0.00000
     29       6.5101      0.00000
     30       6.7202      0.00000
     31       7.6471      0.00000
     32       8.7024      0.00000

 k-point    12 :       0.1667    0.3333    0.0000
  band No.  band energies     occupation 
      1     -10.6160      2.00000
      2     -10.4695      2.00000
      3      -9.9302      2.00000
      4      -9.8283      2.00000
      5      -5.5111      2.00000
      6      -4.8175      2.00000
      7      -4.6156      2.00000
      8      -4.0504      2.00000
      9      -1.1943      2.00000
     10      -0.9758      2.00000
     11      -0.8226      2.00000
     12      -0.0601      2.00000
     13       0.1107      2.00000
     14       0.6325      2.00000
     15       0.7550      2.00000
     16       1.4140      2.00000
     17       1.8159      2.00000
     18       2.0364      2.00000
     19       2.3206      2.00000
     20       2.4999      2.00000
     21       4.1671      0.00000
     22       4.7915      0.00000
     23       5.3319      0.00000
     24       5.4039      0.00000
     25       5.6040      0.00000
     26       5.7016      0.00000
     27       6.3502      0.00000
     28       7.0918      0.00000
     29       7.3064      0.00000
     30       7.6031      0.00000
     31       7.7577      0.00000
     32       8.1532      0.00000

 k-point    13 :       0.1667   -0.3333    0.0000
  band No.  band energies     occupation 
      1     -10.6091      2.00000
      2     -10.4765      2.00000
      3      -9.9210      2.00000
      4      -9.8384      2.00000
      5      -5.4752      2.00000
      6      -4.8519      2.00000
      7      -4.6850      2.00000
      8      -3.9735      2.00000
      9      -1.1411      2.00000
     10      -1.0614      2.00000
     11      -0.7016      2.00000
     12      -0.1644      2.00000
     13       0.2204      2.00000
     14       0.3969      2.00000
     15       0.7762      2.00000
     16       1.4078      2.00000
     17       1.9147      2.00000
     18       1.9914      2.00000
     19       2.2846      2.00000
     20       2.6634      2.00000
     21       4.1700      0.00000
     22       4.8279      0.00000
     23       5.1975      0.00000
     24       5.4554      0.00000
     25       5.4584      0.00000
     26       6.0102      0.00000
     27       6.4356      0.00000
     28       6.8700      0.00000
     29       6.9517      0.00000
     30       7.5208      0.00000
     31       7.7192      0.00000
     32       8.6359      0.00000

 k-point    14 :       0.3333    0.3333    0.0000
  band No.  band energies     occupation 
      1     -10.2056      2.00000
      2     -10.0748      2.00000
      3      -9.7354      2.00000
      4      -9.6529      2.00000
      5      -5.4577      2.00000
      6      -4.7756      2.00000
      7      -4.6972      2.00000
      8      -4.4336      2.00000
      9      -1.8232      2.00000
     10      -1.6206      2.00000
     11      -1.1611      2.00000
     12      -0.8196      2.00000
     13      -0.5240      2.00000
     14      -0.0924      2.00000
     15       0.3638      2.00000
     16       0.7217      2.00000
     17       0.8981      2.00000
     18       1.5240      2.00000
     19       1.9647      2.00000
     20       1.9724      2.00000
     21       4.0265      0.00000
     22       5.4448      0.00000
     23       5.8777      0.00000
     24       5.9346      0.00000
     25       6.1357      0.00000
     26       7.0066      0.00000
     27       7.0518      0.00000
     28       7.6278      0.00000
     29       7.6477      0.00000
     30       7.8140      0.00000
     31       8.4538      0.00000
     32       8.8837      0.00000

 k-point    15 :       0.3333   -0.3333    0.0000
  band No.  band energies     occupation 
      1     -10.1895      2.00000
      2     -10.0911      2.00000
      3      -9.7251      2.00000
      4      -9.6648      2.00000
      5      -5.3619      2.00000
      6      -4.8764      2.00000
      7      -4.8602      2.00000
      8      -4.2593      2.00000
      9      -1.8535      2.00000
     10      -1.5600      2.00000
     11      -1.1143      2.00000
     12      -0.8174      2.00000
     13      -0.5829      2.00000
     14       0.1357      2.00000
     15       0.1894      2.00000
     16       0.6330      2.00000
     17       0.6778      2.00000
     18       1.6087      2.00000
     19       1.6392      2.00000
     20       2.6062      2.00000
     21       4.0646      0.00000
     22       5.3644      0.00000
     23       5.4579      0.00000
     24       6.1733      0.00000
     25       6.3950      0.00000
     26       6.7030      0.00000
     27       6.7367      0.00000
     28       7.3833      0.00000
     29       7.7520      0.00000
     30       8.1503      0.00000
     31       8.4115      0.00000
     32       9.0690      0.00000

 k-point    16 :       0.5000    0.3333    0.0000
  band No.  band energies     occupation 
      1      -9.7967      2.00000
      2      -9.7799      2.00000
      3      -9.7199      2.00000
      4      -9.7037      2.00000
      5      -5.2928      2.00000
      6      -5.1444      2.00000
      7      -4.8554      2.00000
      8      -4.7008      2.00000
      9      -1.4615      2.00000
     10      -1.4121      2.00000
     11      -1.2764      2.00000
     12      -1.2520      2.00000
     13      -0.6177      2.00000
     14      -0.5469      2.00000
     15      -0.2046      2.00000
     16      -0.0918      2.00000
     17       0.7299      2.00000
     18       0.9782      2.00000
     19       1.6213      2.00000
     20       2.3178      2.00000
     21       4.7353      0.00000
     22       4.9135      0.00000
     23       5.9446      0.00000
     24       6.3354      0.00000
     25       6.6082      0.00000
     26       6.7914      0.00000
     27       7.1030      0.00000
     28       7.6140      0.00000
     29       7.9748      0.00000
     30       8.0187      0.00000
     31       8.4612      0.00000
     32       8.5440      0.00000

 k-point    17 :       0.0000    0.5000    0.0000
  band No.  band energies     occupation 
      1     -10.3382      2.00000
      2     -10.3382      2.00000
      3     -10.2756      2.00000
      4     -10.2756      2.00000
      5      -5.3806      2.00000
      6      -5.3806      2.00000
      7      -4.6702      2.00000
      8      -4.6702      2.00000
      9      -0.5515      2.00000
     10      -0.5515      2.00000
     11       0.9604      2.00000
     12       0.9604      2.00000
     13       0.9776      2.00000
     14       0.9776      2.00000
     15       1.1907      2.00000
     16       1.1907      2.00000
     17       2.1595      2.00000
     18       2.1595      2.00000
     19       2.5849      2.00000
     20       2.5849      2.00000
     21       4.4863      0.00000
     22       4.4863      0.00000
     23       4.6623      0.00000
     24       4.6623      0.00000
     25       5.1095      0.00000
     26       5.1095      0.00000
     27       5.8097      0.00000
     28       5.8097      0.00000
     29       5.9788      0.00000
     30       5.9788      0.00000
     31       8.2623      0.00000
     32       8.2623      0.00000

 k-point    18 :       0.1667    0.5000    0.0000
  band No.  band energies     occupation 
      1     -10.2123      2.00000
      2     -10.2029      2.00000
      3     -10.1503      2.00000
      4     -10.1410      2.00000
      5      -5.2966      2.00000
      6      -5.2567      2.00000
      7      -4.6153      2.00000
      8      -4.5767      2.00000
      9      -0.6206      2.00000
     10      -0.5950      2.00000
     11      -0.4649      2.00000
     12      -0.3474      2.00000
     13      -0.2293      2.00000
     14      -0.2286      2.00000
     15       1.0531      2.00000
     16       1.1645      2.00000
     17       1.8698      2.00000
     18       2.2337      2.00000
     19       2.4712      2.00000
     20       2.5049      2.00000
     21       4.5067      0.00000
     22       4.5525      0.00000
     23       5.3175      0.00000
     24       5.4521      0.00000
     25       5.8207      0.00000
     26       5.8632      0.00000
     27       6.7012      0.00000
     28       6.8382      0.00000
     29       6.9768      0.00000
     30       7.0502      0.00000
     31       7.8593      0.00000
     32       8.2464      0.00000

[...]
     32       7.7270      0.00000

 k-point    32 :       0.1667    0.3333    0.5000
  band No.  band energies     occupation 
      1     -10.5498      2.00000
      2     -10.5498      2.00000
      3      -9.8720      2.00000
      4      -9.8720      2.00000
      5      -5.2587      2.00000
      6      -5.2587      2.00000
      7      -4.2648      2.00000
      8      -4.2648      2.00000
      9      -0.9607      2.00000
     10      -0.9607      2.00000
     11      -0.4238      2.00000
     12      -0.4238      2.00000
     13       0.1467      2.00000
     14       0.1467      2.00000
     15       1.1020      2.00000
     16       1.1020      2.00000
     17       1.9540      2.00000
     18       1.9540      2.00000
     19       2.2931      2.00000
     20       2.2931      2.00000
     21       4.8826      0.00000
     22       4.8826      0.00000
     23       5.3339      0.00000
     24       5.3339      0.00000
     25       5.8041      0.00000
     26       5.8041      0.00000
     27       6.5267      0.00000
     28       6.5267      0.00000
     29       7.2303      0.00000
     30       7.2303      0.00000
     31       7.7771      0.00000
     32       7.7771      0.00000

 k-point    33 :       0.1667   -0.3333    0.5000
  band No.  band energies     occupation 
      1     -10.5483      2.00000
      2     -10.5483      2.00000
      3      -9.8740      2.00000
      4      -9.8740      2.00000
      5      -5.2525      2.00000
      6      -5.2525      2.00000
      7      -4.2744      2.00000
      8      -4.2744      2.00000
      9      -0.9923      2.00000
     10      -0.9923      2.00000
     11      -0.3558      2.00000
     12      -0.3558      2.00000
     13       0.1900      2.00000
     14       0.1900      2.00000
     15       0.9910      2.00000
     16       0.9910      2.00000
     17       2.0027      2.00000
     18       2.0027      2.00000
     19       2.2568      2.00000
     20       2.2568      2.00000
     21       4.9805      0.00000
     22       4.9805      0.00000
     23       5.2245      0.00000
     24       5.2245      0.00000
     25       5.7515      0.00000
     26       5.7515      0.00000
     27       6.6722      0.00000
     28       6.6722      0.00000
     29       7.2516      0.00000
     30       7.2516      0.00000
     31       7.8219      0.00000
     32       7.8219      0.00000

 k-point    34 :       0.3333    0.3333    0.5000
  band No.  band energies     occupation 
      1     -10.1473      2.00000
      2     -10.1473      2.00000
      3      -9.6872      2.00000
      4      -9.6872      2.00000
      5      -5.2136      2.00000
      6      -5.2136      2.00000
      7      -4.4779      2.00000
      8      -4.4779      2.00000
      9      -1.7372      2.00000
     10      -1.7372      2.00000
     11      -0.9561      2.00000
     12      -0.9561      2.00000
     13      -0.2482      2.00000
     14      -0.2482      2.00000
     15       0.4673      2.00000
     16       0.4673      2.00000
     17       1.1489      2.00000
     18       1.1490      2.00000
     19       1.9195      2.00000
     20       1.9195      2.00000
     21       5.0189      0.00000
     22       5.0189      0.00000
     23       5.6887      0.00000
     24       5.6887      0.00000
     25       6.4740      0.00000
     26       6.4741      0.00000
     27       7.3560      0.00000
     28       7.3560      0.00000
     29       7.6008      0.00000
     30       7.6008      0.00000
     31       8.8430      0.00000
     32       8.8430      0.00000

 k-point    35 :       0.3333   -0.3333    0.5000
  band No.  band energies     occupation 
      1     -10.1440      2.00000
      2     -10.1440      2.00000
      3      -9.6915      2.00000
      4      -9.6915      2.00000
      5      -5.1946      2.00000
      6      -5.1946      2.00000
      7      -4.5032      2.00000
      8      -4.5032      2.00000
      9      -1.7613      2.00000
     10      -1.7613      2.00000
     11      -0.8678      2.00000
     12      -0.8678      2.00000
     13      -0.2634      2.00000
     14      -0.2634      2.00000
     15       0.4330      2.00000
     16       0.4330      2.00000
     17       1.1832      2.00000
     18       1.1832      2.00000
     19       1.8229      2.00000
     20       1.8229      2.00000
     21       5.1989      0.00000
     22       5.1989      0.00000
     23       5.6232      0.00000
     24       5.6232      0.00000
     25       6.5780      0.00000
     26       6.5781      0.00000
     27       7.1854      0.00000
     28       7.1854      0.00000
     29       7.5244      0.00000
     30       7.5244      0.00000
     31       8.9494      0.00000
     32       8.9494      0.00000

 k-point    36 :       0.5000    0.3333    0.5000
  band No.  band energies     occupation 
      1      -9.7834      2.00000
      2      -9.7834      2.00000
      3      -9.7171      2.00000
      4      -9.7171      2.00000
      5      -5.1932      2.00000
      6      -5.1932      2.00000
      7      -4.8123      2.00000
      8      -4.8123      2.00000
      9      -1.4144      2.00000
     10      -1.4144      2.00000
     11      -1.2911      2.00000
     12      -1.2911      2.00000
     13      -0.4771      2.00000
     14      -0.4771      2.00000
     15      -0.3034      2.00000
     16      -0.3034      2.00000
     17       1.3083      2.00000
     18       1.3083      2.00000
     19       1.4419      2.00000
     20       1.4419      2.00000
     21       5.2172      0.00000
     22       5.2172      0.00000
     23       6.0050      0.00000
     24       6.0050      0.00000
     25       6.5883      0.00000
     26       6.5883      0.00000
     27       7.0561      0.00000
     28       7.0561      0.00000
     29       8.2216      0.00000
     30       8.2216      0.00000
     31       8.4437      0.00000
     32       8.4437      0.00000

 k-point    37 :       0.0000    0.5000    0.5000
  band No.  band energies     occupation 
      1     -10.3228      2.00000
      2     -10.3228      2.00000
      3     -10.2918      2.00000
      4     -10.2918      2.00000
      5      -5.2943      2.00000
      6      -5.2943      2.00000
      7      -4.7963      2.00000
      8      -4.7963      2.00000
      9       0.1158      2.00000
     10       0.1158      2.00000
     11       0.2667      2.00000
     12       0.2667      2.00000
     13       0.9726      2.00000
     14       0.9726      2.00000
     15       0.9819      2.00000
     16       0.9819      2.00000
     17       2.3204      2.00000
     18       2.3204      2.00000
     19       2.5604      2.00000
     20       2.5604      2.00000
     21       4.4616      0.00000
     22       4.4616      0.00000
     23       4.5342      0.00000
     24       4.5342      0.00000
     25       5.7082      0.00000
     26       5.7082      0.00000
     27       5.8890      0.00000
     28       5.8890      0.00000
     29       6.2330      0.00000
     30       6.2330      0.00000
     31       7.3583      0.00000
     32       7.3583      0.00000

 k-point    38 :       0.1667    0.5000    0.5000
  band No.  band energies     occupation 
      1     -10.1948      2.00000
      2     -10.1948      2.00000
      3     -10.1591      2.00000
      4     -10.1591      2.00000
      5      -5.2031      2.00000
      6      -5.2031      2.00000
      7      -4.7019      2.00000
      8      -4.7019      2.00000
      9      -0.5750      2.00000
     10      -0.5750      2.00000
     11      -0.4102      2.00000
     12      -0.4102      2.00000
     13       0.2988      2.00000
     14       0.2988      2.00000
     15       0.4898      2.00000
     16       0.4898      2.00000
     17       2.0501      2.00000
     18       2.0501      2.00000
     19       2.2955      2.00000
     20       2.2955      2.00000
     21       5.1964      0.00000
     22       5.1964      0.00000
     23       5.4052      0.00000
     24       5.4052      0.00000
     25       5.7780      0.00000
     26       5.7780      0.00000
     27       6.7057      0.00000
     28       6.7057      0.00000
     29       7.1032      0.00000
     30       7.1032      0.00000
     31       7.4927      0.00000
     32       7.4927      0.00000

 k-point    39 :       0.3333    0.5000    0.5000
  band No.  band energies     occupation 
      1      -9.9044      2.00000
      2      -9.9044      2.00000
      3      -9.8570      2.00000
      4      -9.8570      2.00000
      5      -5.0851      2.00000
      6      -5.0851      2.00000
      7      -4.6267      2.00000
      8      -4.6267      2.00000
      9      -1.6363      2.00000
     10      -1.6363      2.00000
     11      -1.5028      2.00000
     12      -1.5028      2.00000
     13      -0.0796      2.00000
     14      -0.0796      2.00000
     15       0.0224      2.00000
     16       0.0224      2.00000
     17       1.2753      2.00000
     18       1.2753      2.00000
     19       1.4781      2.00000
     20       1.4781      2.00000
     21       5.3349      0.00000
     22       5.3349      0.00000
     23       6.4544      0.00000
     24       6.4544      0.00000
     25       6.9197      0.00000
     26       6.9197      0.00000
     27       7.3025      0.00000
     28       7.3025      0.00000
     29       8.5428      0.00000
     30       8.5428      0.00000
     31       8.6912      0.00000
     32       8.6912      0.00000

 k-point    40 :       0.5000    0.5000    0.5000
  band No.  band energies     occupation 
      1      -9.7359      2.00000
      2      -9.7359      2.00000
      3      -9.6808      2.00000
      4      -9.6808      2.00000
      5      -5.1003      2.00000
      6      -5.1003      2.00000
      7      -4.7209      2.00000
      8      -4.7209      2.00000
      9      -1.6158      2.00000
     10      -1.6158      2.00000
     11      -1.5734      2.00000
     12      -1.5734      2.00000
     13      -0.8544      2.00000
     14      -0.8544      2.00000
     15      -0.7116      2.00000
     16      -0.7116      2.00000
     17       1.3123      2.00000
     18       1.3123      2.00000
     19       1.4701      2.00000
     20       1.4701      2.00000
     21       5.1346      0.00000
     22       5.1346      0.00000
     23       6.1739      0.00000
     24       6.1739      0.00000
     25       7.5700      0.00000
     26       7.5700      0.00000
     27       7.7821      0.00000
     28       7.7821      0.00000
     29       8.8785      0.00000
     30       8.8785      0.00000
     31       9.3949      0.00000
     32       9.3950      0.00000


--------------------------------------------------------------------------------------------------------


 soft charge-density along one line, spin component            1
         0         1         2         3         4         5         6         7         8         9
 total charge-density along one line
 
 pseudopotential strength for first ion, spin component:            1
 14.619  18.242   0.040   0.045   0.000   0.073   0.081   0.000
 18.242  22.778   0.051   0.057   0.000   0.092   0.103   0.000
  0.040   0.051   3.242  -0.002   0.000   5.520  -0.004   0.000
  0.045   0.057  -0.002   3.239  -0.000  -0.004   5.515  -0.000
  0.000   0.000   0.000  -0.000   3.243   0.000  -0.000   5.522
  0.073   0.092   5.520  -0.004   0.000   9.456  -0.007   0.000
  0.081   0.103  -0.004   5.515  -0.000  -0.007   9.448  -0.000
  0.000   0.000   0.000  -0.000   5.522   0.000  -0.000   9.461
  0.000   0.000  -0.000   0.000   0.006  -0.000   0.000   0.012
 -0.005  -0.007   0.012   0.013   0.000   0.021   0.023   0.000
 -0.004  -0.005  -0.003   0.011   0.000  -0.006   0.021   0.000
 -0.000  -0.000   0.000   0.000   0.012   0.000   0.000   0.021
  0.002   0.002  -0.012   0.000   0.000  -0.022   0.000   0.000
 total augmentation occupancy for first ion, spin component:            1
  2.731  -0.697   0.342   0.348  -0.008  -0.064  -0.062   0.003   0.001  -0.012  -0.003   0.004   0.009
 -0.697   0.654  -0.432  -0.470   0.007   0.068   0.073  -0.002  -0.000   0.006   0.007  -0.003  -0.005
  0.342  -0.432   1.230   0.051   0.001  -0.200   0.004  -0.000  -0.000   0.042  -0.099  -0.000   0.000
  0.348  -0.470   0.051   1.340   0.011   0.004  -0.215  -0.003  -0.002  -0.017   0.100  -0.007  -0.005
 -0.008   0.007   0.001   0.011   1.244  -0.000  -0.003  -0.214   0.145   0.001  -0.002   0.034  -0.000
 -0.064   0.068  -0.200   0.004  -0.000   0.037  -0.002  -0.000   0.000  -0.007   0.017  -0.000   0.000
 -0.062   0.073   0.004  -0.215  -0.003  -0.002   0.039   0.001   0.000   0.003  -0.017   0.001   0.001
  0.003  -0.002  -0.000  -0.003  -0.214  -0.000   0.001   0.041  -0.025  -0.000   0.000  -0.006   0.000
  0.001  -0.000  -0.000  -0.002   0.145   0.000   0.000  -0.025   0.031  -0.000   0.000   0.002   0.000
 -0.012   0.006   0.042  -0.017   0.001  -0.007   0.003  -0.000  -0.000   0.011  -0.006  -0.001   0.001
 -0.003   0.007  -0.099   0.100  -0.002   0.017  -0.017   0.000   0.000  -0.006   0.031   0.001  -0.002
  0.004  -0.003  -0.000  -0.007   0.034  -0.000   0.001  -0.006   0.002  -0.001   0.001   0.010   0.000
  0.009  -0.005   0.000  -0.005  -0.000   0.000   0.001   0.000   0.000   0.001  -0.002   0.000   0.008


------------------------ aborting loop because EDIFF is reached ----------------------------------------


    CHARGE:  cpu time      0.0054: real time      0.0055
    FORLOC:  cpu time      0.0002: real time      0.0002
    FORNL :  cpu time      0.0271: real time      0.0272
    STRESS:  cpu time      0.2753: real time      0.2761
    FORCOR:  cpu time      0.0067: real time      0.0068
    FORHAR:  cpu time      0.0016: real time      0.0016
    MIXING:  cpu time      0.0006: real time      0.0006
    OFIELD:  cpu time      0.0000: real time      0.0000

  FORCE on cell =-STRESS in cart. coord.  units (eV):
  Direction    XX          YY          ZZ          XY          YZ          ZX
  --------------------------------------------------------------------------------------
  Alpha Z    83.74936    83.74936    83.74936
  Ewald    -407.19133  -450.49243  -526.20587    -4.70749    -0.00000     0.00001
  Hartree    79.29040    63.02024    12.87478    -2.39387    -0.00000     0.00000
  E(xc)    -140.95191  -140.95964  -141.42405    -0.02391    -0.00000     0.00000
  Local    -232.85758  -179.20849   -57.73676     7.60457     0.00000    -0.00001
  n-local   240.41811   239.80070   241.91422    -0.07472    -0.00000     0.00000
  augment   -11.38788   -11.76220   -12.16713     0.04258     0.00000     0.00000
  Kinetic   389.59513   396.09087   399.39604    -0.65807    -0.00000    -0.00000
  Fock        0.00000     0.00000     0.00000     0.00000     0.00000     0.00000
  -------------------------------------------------------------------------------------
  Total       0.66431     0.23842     0.40058    -0.21092    -0.00000    -0.00000
  in kB       5.26057     1.88800     3.17216    -1.67024    -0.00001    -0.00001
  external pressure =        3.44 kB  Pullay stress =        0.00 kB


 VOLUME and BASIS-vectors are now :
 -----------------------------------------------------------------------------
  energy-cutoff  :      360.00
  volume of cell :      202.32
      direct lattice vectors                 reciprocal lattice vectors
     3.858100176  0.000000000  0.000000000     0.259194929  0.000000000  0.000000000
     0.000000000  4.526575088  0.000000000     0.000000000  0.220917577  0.000000000
     0.000000000  0.000000000 11.585176468     0.000000000  0.000000000  0.086317200

  length of vectors
     3.858100176  4.526575088 11.585176468     0.259194929  0.220917577  0.086317200


 FORCES acting on ions
    electron-ion (+dipol)            ewald-force                    non-local-force                 convergence-correction
 -----------------------------------------------------------------------------------------------
   -.482E+00 0.142E+02 0.306E+02   0.431E+00 -.166E+02 -.335E+02   0.558E-03 0.247E+01 0.303E+01   -.580E-04 0.447E-04 -.763E-03
   -.482E+00 0.142E+02 -.306E+02   0.431E+00 -.166E+02 0.335E+02   0.557E-03 0.247E+01 -.303E+01   -.581E-04 0.450E-04 0.762E-03
   0.482E+00 -.142E+02 -.306E+02   -.431E+00 0.166E+02 0.335E+02   -.732E-03 -.247E+01 -.303E+01   0.581E-04 -.447E-04 0.764E-03
   0.482E+00 -.142E+02 0.306E+02   -.431E+00 0.166E+02 -.335E+02   -.732E-03 -.247E+01 0.303E+01   0.581E-04 -.449E-04 -.763E-03
   -.187E+00 -.162E+02 -.373E+02   0.218E+00 0.177E+02 0.392E+02   -.298E-01 -.144E+01 -.190E+01   0.128E-03 -.363E-03 0.100E-02
   -.187E+00 -.162E+02 0.373E+02   0.218E+00 0.177E+02 -.392E+02   -.298E-01 -.144E+01 0.190E+01   0.128E-03 -.362E-03 -.101E-02
   0.187E+00 0.162E+02 0.373E+02   -.218E+00 -.177E+02 -.392E+02   0.305E-01 0.144E+01 0.191E+01   -.128E-03 0.364E-03 -.101E-02
   0.187E+00 0.162E+02 -.373E+02   -.218E+00 -.177E+02 0.392E+02   0.305E-01 0.144E+01 -.191E+01   -.128E-03 0.363E-03 0.101E-02
 -----------------------------------------------------------------------------------------------
   0.240E-04 -.892E-05 -.570E-06   0.505E-14 -.355E-14 0.000E+00   0.986E-03 -.282E-03 -.499E-06   -.192E-06 0.124E-05 -.610E-06
 
 
 POSITION                                       TOTAL-FORCE (eV/Angst)
 -----------------------------------------------------------------------------------
      0.23764      3.91259      1.52892        -0.050693     -0.005289      0.148266
      2.16669      1.64930      4.26367        -0.050693     -0.005289     -0.148269
      2.89357      4.09092     10.05626         0.050274      0.005466     -0.148323
      0.96452      1.82763      7.32150         0.050275      0.005467      0.148323
      0.23764      3.38398      4.06767         0.001505      0.072115     -0.063841
      2.16669      1.12070      1.72492         0.001504      0.072115      0.063843
      2.89357      0.09295      7.51751        -0.001086     -0.072293      0.064043
      0.96452      2.35624      9.86026        -0.001086     -0.072293     -0.064043
 -----------------------------------------------------------------------------------
    total drift:                                0.001010     -0.000290     -0.000002


--------------------------------------------------------------------------------------------------------



  FREE ENERGIE OF THE ION-ELECTRON SYSTEM (eV)
  ---------------------------------------------------
  free  energy   TOTEN  =       -33.68127693 eV

  energy  without entropy=      -33.68127693  energy(sigma->0) =      -33.68127693
 


--------------------------------------------------------------------------------------------------------


    POTLOK:  cpu time      0.2231: real time      0.2236


--------------------------------------------------------------------------------------------------------


     LOOP+:  cpu time      7.7918: real time      7.8263
    4ORBIT:  cpu time      0.0000: real time      0.0000

 total amount of memory used by VASP MPI-rank0    37119. kBytes
=======================================================================

   base      :      30000. kBytes
   nonl-proj :       5406. kBytes
   fftplans  :        334. kBytes
   grid      :        503. kBytes
   one-center:         16. kBytes
   wavefun   :        860. kBytes
 
  
  
 General timing and accounting informations for this job:
 ========================================================
  
                  Total CPU time used (sec):        9.372
                            User time (sec):        9.080
                          System time (sec):        0.292
                         Elapsed time (sec):        9.675
  
                   Maximum memory used (kb):      175388.
                   Average memory used (kb):          N/A
  
                          Minor page faults:        16894
                          Major page faults:           47
                 Voluntary context switches:         1954
