 running  256 mpi-ranks, with    1 threads/rank, on    7 nodes
 distrk:  each k-point on  128 cores,    2 groups
 distr:  one band on    4 cores,   32 groups
 vasp.6.4.1 05Apr23 (build May 18 2023 13:19:41) complex                         
 POSCAR found type information on POSCAR C H 
 POSCAR found :  2 types and     365 ions
 Reading from existing POTCAR
 -----------------------------------------------------------------------------
|                                                                             |
|           W    W    AA    RRRRR   N    N  II  N    N   GGGG   !!!           |
|           W    W   A  A   R    R  NN   N  II  NN   N  G    G  !!!           |
|           W    W  A    A  R    R  N N  N  II  N N  N  G       !!!           |
|           W WW W  AAAAAA  RRRRR   N  N N  II  N  N N  G  GGG   !            |
|           WW  WW  A    A  R   R   N   NN  II  N   NN  G    G                |
|           W    W  A    A  R    R  N    N  II  N    N   GGGG   !!!           |
|                                                                             |
|     You use a magnetic or noncollinear calculation, but did not specify     |
|     the initial magnetic moment with the MAGMOM tag. Note that a            |
|     default of 1 will be used for all atoms. This ferromagnetic setup       |
|     may break the symmetry of the crystal, in particular it may rule        |
|     out finding an antiferromagnetic solution. Thence, we recommend         |
|     setting the initial magnetic moment manually or verifying carefully     |
|     that this magnetic setup is desired.                                    |
|                                                                             |
 -----------------------------------------------------------------------------

 scaLAPACK will be used
 Reading from existing POTCAR
 -----------------------------------------------------------------------------
|                                                                             |
|               ----> ADVICE to this user running VASP <----                  |
|                                                                             |
|     You have a (more or less) 'large supercell' and for larger cells it     |
|     might be more efficient to use real-space projection operators.         |
|     Therefore, try LREAL= Auto in the INCAR file.                           |
|     Mind: If you want to do very accurate calculations, keep the            |
|     reciprocal projection scheme (i.e. LREAL=.FALSE.).                      |
|                                                                             |
 -----------------------------------------------------------------------------

 LDA part: xc-table for Pade appr. of Perdew
 POSCAR, INCAR and KPOINTS ok, starting setup
 FFT: planning ... GRIDC
 FFT: planning ... GRID_SOFT
 FFT: planning ... GRID
 WAVECAR not read
 WARNING: random wavefunctions but no delay for mixing, default for NELMDL
 entering main loop
       N       E                     dE             d eps       ncg     rms          rms(c)
DAV:   1     0.131399288535E+05    0.13140E+05   -0.44845E+05  9088   0.922E+02
DAV:   2     0.200356605703E+03   -0.12940E+05   -0.12152E+05 10624   0.238E+02
DAV:   3    -0.320300189583E+04   -0.34034E+04   -0.33579E+04  9024   0.130E+02
DAV:   4    -0.338787003740E+04   -0.18487E+03   -0.18182E+03  8768   0.387E+01
DAV:   5    -0.339285631864E+04   -0.49863E+01   -0.49287E+01  9600   0.565E+00    0.116E+02
DAV:   6    -0.229856715512E+04    0.10943E+04   -0.17210E+03  7488   0.355E+01    0.643E+01
DAV:   7    -0.249977795035E+04   -0.20121E+03   -0.20060E+02  7872   0.134E+01    0.422E+01
DAV:   8    -0.263799803735E+04   -0.13822E+03   -0.92043E+01  7840   0.865E+00    0.317E+01
DAV:   9    -0.279335072922E+04   -0.15535E+03   -0.37945E+01  8096   0.602E+00    0.264E+01
DAV:  10    -0.301717811132E+04   -0.22383E+03   -0.17117E+02  7680   0.105E+01    0.191E+01
DAV:  11    -0.315311831648E+04   -0.13594E+03   -0.10020E+02  7744   0.750E+00    0.153E+01
DAV:  12    -0.322942326747E+04   -0.76305E+02   -0.31569E+01  7904   0.432E+00    0.130E+01
DAV:  13    -0.327127010717E+04   -0.41847E+02   -0.15544E+01  7712   0.306E+00    0.102E+01
DAV:  14    -0.327694352496E+04   -0.56734E+01   -0.29378E+00  7616   0.154E+00    0.862E+00
DAV:  15    -0.329277810098E+04   -0.15835E+02   -0.44787E+00  7712   0.158E+00    0.631E+00
DAV:  16    -0.330312810511E+04   -0.10350E+02   -0.29344E+00  7872   0.114E+00    0.466E+00
DAV:  17    -0.329982045388E+04    0.33077E+01   -0.54351E-01  7520   0.871E-01    0.349E+00
DAV:  18    -0.330011087268E+04   -0.29042E+00   -0.70577E-01  7712   0.873E-01    0.207E+00
DAV:  19    -0.330186579694E+04   -0.17549E+01   -0.47364E-01  7584   0.796E-01    0.117E+00
DAV:  20    -0.330432081062E+04   -0.24550E+01   -0.16910E-01  7552   0.527E-01    0.791E-01
DAV:  21    -0.330738083997E+04   -0.30600E+01   -0.10169E-01  7488   0.391E-01    0.482E-01
DAV:  22    -0.330883362404E+04   -0.14528E+01   -0.71058E-02  7648   0.278E-01    0.295E-01
DAV:  23    -0.331000642339E+04   -0.11728E+01   -0.47611E-02  7936   0.183E-01    0.175E-01
DAV:  24    -0.331077421148E+04   -0.76779E+00   -0.20914E-02  8288   0.127E-01    0.876E-02
DAV:  25    -0.331099385944E+04   -0.21965E+00   -0.58486E-03  8352   0.718E-02    0.469E-02
DAV:  26    -0.331109230443E+04   -0.98445E-01   -0.12110E-03  8352   0.361E-02    0.241E-02
DAV:  27    -0.331112016396E+04   -0.27860E-01   -0.30268E-04  8192   0.206E-02    0.130E-02
DAV:  28    -0.331112948064E+04   -0.93167E-02   -0.10931E-04  8128   0.120E-02    0.758E-03
DAV:  29    -0.331113401044E+04   -0.45298E-02   -0.49823E-05  7936   0.740E-03    0.439E-03
DAV:  30    -0.331113623143E+04   -0.22210E-02   -0.23169E-05  6816   0.464E-03    0.266E-03
DAV:  31    -0.331113730714E+04   -0.10757E-02   -0.12216E-05  6848   0.296E-03    0.154E-03
DAV:  32    -0.331113762343E+04   -0.31629E-03   -0.40360E-06  6752   0.179E-03    0.768E-04
DAV:  33    -0.331113767061E+04   -0.47174E-04    0.18506E-07  5440   0.854E-04    0.517E-04
DAV:  34    -0.331113769885E+04   -0.28244E-04    0.55240E-07  5248   0.474E-04    0.339E-04
DAV:  35    -0.331113772707E+04   -0.28219E-04    0.60133E-07  5024   0.371E-04    0.190E-04
DAV:  36    -0.331113774602E+04   -0.18946E-04    0.68259E-07  5088   0.262E-04    0.133E-04
DAV:  37    -0.331113775836E+04   -0.12347E-04    0.70961E-07  4960   0.219E-04    0.810E-05
DAV:  38    -0.331113776526E+04   -0.69022E-05    0.71468E-07  4864   0.198E-04    0.582E-05
DAV:  39    -0.331113776626E+04   -0.99343E-06    0.73971E-07  4608   0.101E-04
   1 F= -.33251111E+04 E0= -.33251111E+04  d E =-.693816E-13  mag=     1.0000
 writing wavefunctions
 PROFILE, used timers:     317
