 running  128 mpi-ranks, with    1 threads/rank, on    2 nodes
 distrk:  each k-point on   64 cores,    2 groups
 distr:  one band on    4 cores,   16 groups
 vasp.6.4.2 20Jul23 (build Oct 12 2023 10:31:02) complex                         
 POSCAR found type information on POSCAR GeSe
 POSCAR found :  2 types and       8 ions
 Reading from existing POTCAR
 scaLAPACK will be used
 Reading from existing POTCAR
 LDA part: xc-table for Pade appr. of Perdew
 POSCAR, INCAR and KPOINTS ok, starting setup
 FFT: planning ... GRIDC
 FFT: planning ... GRID_SOFT
 FFT: planning ... GRID
 WAVECAR not read
 entering main loop
       N       E                     dE             d eps       ncg     rms          rms(c)
DAV:   1     0.136893189180E+03    0.13689E+03   -0.12531E+04  2560   0.760E+02
DAV:   2    -0.234518861278E+02   -0.16035E+03   -0.15542E+03  3728   0.136E+02
DAV:   3    -0.336204453249E+02   -0.10169E+02   -0.10143E+02  3152   0.400E+01
DAV:   4    -0.337018656781E+02   -0.81420E-01   -0.81412E-01  3136   0.414E+00
DAV:   5    -0.337024183873E+02   -0.55271E-03   -0.55271E-03  3136   0.335E-01    0.603E+00
DAV:   6    -0.330233311135E+02    0.67909E+00   -0.15781E+00  2816   0.401E+00    0.367E+00
DAV:   7    -0.330166876191E+02    0.66435E-02   -0.29717E-01  3008   0.191E+00    0.170E+00
DAV:   8    -0.330165626468E+02    0.12497E-03   -0.31155E-02  2880   0.699E-01    0.188E-01
DAV:   9    -0.330162557905E+02    0.30686E-03   -0.62542E-03  3104   0.315E-01    0.808E-02
DAV:  10    -0.330165017192E+02   -0.24593E-03   -0.72952E-04  2784   0.116E-01    0.283E-02
DAV:  11    -0.330165409033E+02   -0.39184E-04   -0.56952E-05  3152   0.342E-02    0.158E-02
DAV:  12    -0.330165424132E+02   -0.15100E-05   -0.15368E-05  2912   0.159E-02    0.359E-03
DAV:  13    -0.330165433078E+02   -0.89460E-06   -0.18122E-06  2320   0.496E-03
   1 F= -.33016543E+02 E0= -.33016543E+02  d E =-.201181E-13
