 vasp.6.4.2 20Jul23 (build Oct 12 2023 10:31:02) complex                         
 executed on              LinuxNV date 2025.05.19  07:22:54
 running  160 mpi-ranks, with    1 threads/rank, on   10 nodes
 distrk:  each k-point on   80 cores,    2 groups
 distr:  one band on NCORE=   5 cores,   16 groups


--------------------------------------------------------------------------------------------------------


 INCAR:
   ENCUT = 360.000000
   SIGMA = 0.050000
   EDIFF = 1.00e-06
   ALGO = Normal
   GGA = PE
   PREC = Normal
   SYSTEM = ./
   ICHARG = 2
   ISMEAR = 0
   ISPIN = 1
   ISTART = 0
   ISYM = 0
   KPAR = 2
   LMAXMIX = 4
   NELM = 100
   NPAR = 16
   LASPH = .TRUE.
   LCHARG = .FALSE.
   LWAVE = .FALSE.

 POTCAR:    PAW_PBE Ge 05Jan2001                  
 POTCAR:    PAW_PBE Se 06Sep2000                  
 POTCAR:    PAW_PBE Ge 05Jan2001                  
   VRHFIN =Ge: s2p2                                                                                 
   LEXCH  = PE                                                                                      
   EATOM  =   104.9960 eV,    7.7170 Ry                                                             
                                                                                                    
   TITEL  = PAW_PBE Ge 05Jan2001                                                                    
   LULTRA =        F    use ultrasoft PP ?                                                          
   IUNSCR =        1    unscreen: 0-lin 1-nonlin 2-no                                               
   RPACOR =    2.170    partial core radius                                                         
   POMASS =   72.610; ZVAL   =    4.000    mass and valenz                                          
   RCORE  =    2.300    outmost cutoff radius                                                       
   RWIGS  =    2.300; RWIGS  =    1.217    wigner-seitz radius (au A)                               
   ENMAX  =  173.807; ENMIN  =  130.355 eV                                                          
   ICORE  =        3    local potential                                                             
   LCOR   =        T    correct aug charges                                                         
   LPAW   =        T    paw PP                                                                      
   EAUG   =  385.843                                                                                
   DEXC   =    0.000                                                                                
   RMAX   =    2.342    core radius for proj-oper                                                   
   RAUG   =    1.300    factor for augmentation sphere                                              
   RDEP   =    2.318    radius for radial grids                                                     
   RDEPT  =    2.103    core radius for aug-charge                                                  
                                                                                                    
   Atomic configuration                                                                             
   10 entries                                                                                       
     n  l   j            E        occ.                                                              
     1  0  0.50    -10959.8463   2.0000                                                             
     2  0  0.50     -1371.6056   2.0000                                                             
     2  1  1.50     -1198.4791   6.0000                                                             
     3  0  0.50      -168.4733   2.0000                                                             
     3  1  1.50      -115.6019   6.0000                                                             
     3  2  2.50       -29.3106  10.0000                                                             
     4  0  0.50       -11.7309   2.0000                                                             
     4  1  0.50        -3.8952   2.0000                                                             
     4  2  1.50        -4.0817   0.0000                                                             
     4  3  2.50        -4.0817   0.0000                                                             
   Description                                                                                      
     l       E           TYP  RCUT    TYP  RCUT                                                     
     0    -11.7309493     23  2.300                                                                 
     0     -7.4578696     23  2.300                                                                 
     1     -3.8952261     23  2.300                                                                 
     1      6.1178114     23  2.300                                                                 
     2     -4.0817478     23  2.300                                                                 
     3     -1.3605826      7  2.300                                                                 
  local pseudopotential read in
  partial core-charges read in
  partial kinetic energy density read in
  atomic valenz-charges read in
  non local Contribution for L=            0  read in
    real space projection operators read in
  non local Contribution for L=            0  read in
    real space projection operators read in
  non local Contribution for L=            1  read in
    real space projection operators read in
  non local Contribution for L=            1  read in
    real space projection operators read in
  non local Contribution for L=            2  read in
    real space projection operators read in
    PAW grid and wavefunctions read in
 
   number of l-projection  operators is LMAX  =            5
   number of lm-projection operators is LMMAX =           13
 
 POTCAR:    PAW_PBE Se 06Sep2000                  
   VRHFIN =Se: s2p4                                                                                 
   LEXCH  = PE                                                                                      
   EATOM  =   257.1286 eV,   18.8984 Ry                                                             
                                                                                                    
   TITEL  = PAW_PBE Se 06Sep2000                                                                    
   LULTRA =        F    use ultrasoft PP ?                                                          
   IUNSCR =        1    unscreen: 0-lin 1-nonlin 2-no                                               
   RPACOR =    1.900    partial core radius                                                         
   POMASS =   78.960; ZVAL   =    6.000    mass and valenz                                          
   RCORE  =    2.100    outmost cutoff radius                                                       
   RWIGS  =    2.200; RWIGS  =    1.164    wigner-seitz radius (au A)                               
   ENMAX  =  211.555; ENMIN  =  158.666 eV                                                          
   ICORE  =        3    local potential                                                             
   LCOR   =        T    correct aug charges                                                         
   LPAW   =        T    paw PP                                                                      
   EAUG   =  446.842                                                                                
   DEXC   =    0.000                                                                                
   RMAX   =    2.147    core radius for proj-oper                                                   
   RAUG   =    1.300    factor for augmentation sphere                                              
   RDEP   =    2.177    radius for radial grids                                                     
   RDEPT  =    1.928    core radius for aug-charge                                                  
                                                                                                    
   Atomic configuration                                                                             
   10 entries                                                                                       
     n  l   j            E        occ.                                                              
     1  0  0.50    -12503.4787   2.0000                                                             
     2  0  0.50     -1606.9547   2.0000                                                             
     2  1  1.50     -1413.3140   6.0000                                                             
     3  0  0.50      -213.4885   2.0000                                                             
     3  1  1.50      -152.9538   6.0000                                                             
     3  2  2.50       -53.1221  10.0000                                                             
     4  0  0.50       -17.2865   2.0000                                                             
     4  1  0.50        -6.5110   4.0000                                                             
     4  2  2.50        -6.8029   0.0000                                                             
     4  3  2.50        -6.8029   0.0000                                                             
   Description                                                                                      
     l       E           TYP  RCUT    TYP  RCUT                                                     
     0    -17.2865377     23  2.100                                                                 
     0    -15.3094411     23  2.100                                                                 
     1     -6.5110275     23  2.100                                                                 
     1     -0.0695192     23  2.100                                                                 
     2     -6.8029130     23  2.100                                                                 
     3     -1.3605826      7  2.100                                                                 
  local pseudopotential read in
  partial core-charges read in
  partial kinetic energy density read in
  atomic valenz-charges read in
  non local Contribution for L=            0  read in
    real space projection operators read in
  non local Contribution for L=            0  read in
    real space projection operators read in
  non local Contribution for L=            1  read in
    real space projection operators read in
  non local Contribution for L=            1  read in
    real space projection operators read in
  non local Contribution for L=            2  read in
    real space projection operators read in
    PAW grid and wavefunctions read in
 
   number of l-projection  operators is LMAX  =            5
   number of lm-projection operators is LMMAX =           13
 
  PAW_PBE Ge 05Jan2001                  :
 energy of atom  1       EATOM= -104.9960
 kinetic energy error for atom=    0.0005 (will be added to EATOM!!)
  PAW_PBE Se 06Sep2000                  :
 energy of atom  2       EATOM= -257.1286
 kinetic energy error for atom=    0.0030 (will be added to EATOM!!)
 
 
 POSCAR: Ge Se
  positions in cartesian coordinates
  No initial velocities read in
 exchange correlation table for  LEXCH =        8
   RHO(1)=    0.500       N(1)  =     2000
   RHO(2)=  100.500       N(2)  =     4000
 


--------------------------------------------------------------------------------------------------------


 ion  position               nearest neighbor table
   1  0.612  0.980  0.132-   5 2.59   6 2.60   6 2.60
   2  0.112  0.480  0.368-   6 2.59   5 2.60   5 2.60
   3  0.750  0.904  0.868-   7 2.59   8 2.60   8 2.60
   4  0.250  0.404  0.632-   8 2.59   7 2.60   7 2.60
   5  0.612  0.864  0.351-   1 2.59   2 2.60   2 2.60
   6  0.112  0.364  0.149-   2 2.59   1 2.60   1 2.60
   7  0.750  0.021  0.649-   3 2.59   4 2.60   4 2.60
   8  0.250  0.521  0.851-   4 2.59   3 2.60   3 2.60
 

IMPORTANT INFORMATION: All symmetrisations will be switched off!
NOSYMM: (Re-)initialisation of all symmetry stuff for point group C_1.


----------------------------------------------------------------------------------------

                                     Primitive cell                                     

  volume of cell :     202.3233

  direct lattice vectors                    reciprocal lattice vectors
     3.858100176  0.000000000  0.000000000     0.259194929  0.000000000  0.000000000
     0.000000000  4.526575088  0.000000000     0.000000000  0.220917577  0.000000000
     0.000000000  0.000000000 11.585176468     0.000000000  0.000000000  0.086317200

  length of vectors
     3.858100176  4.526575088 11.585176468     0.259194929  0.220917577  0.086317200

  position of ions in fractional coordinates (direct lattice)
     0.612318844  0.980301328  0.131971745
     0.112318808  0.480301316  0.368028228
     0.749999855  0.903756548  0.868028249
     0.249999781  0.403756501  0.631971759
     0.612318828  0.863523676  0.351109927
     0.112318844  0.363523696  0.148890049
     0.749999761  0.020534152  0.648890076
     0.249999838  0.520534176  0.851109946

  ion indices of the primitive-cell ions
   primitive index   ion index
                 1           1
                 2           2
                 3           3
                 4           4
                 5           5
                 6           6
                 7           7
                 8           8

----------------------------------------------------------------------------------------

 
 
 KPOINTS: KPOINTS created by Atomic Simulation Env

Automatic generation of k-mesh.
 Grid dimensions read from file:
 generate k-points for:    6    6    2

 Generating k-lattice:

  Cartesian coordinates                     Fractional coordinates (reciprocal lattice)
     0.043199155  0.000000000  0.000000000     0.166666667  0.000000000  0.000000000
     0.000000000  0.036819596  0.000000000     0.000000000  0.166666667  0.000000000
     0.000000000  0.000000000  0.043158600     0.000000000  0.000000000  0.500000000

  Length of vectors
     0.043199155  0.036819596  0.043158600

  Shift w.r.t. Gamma in fractional coordinates (k-lattice)
     0.000000000  0.000000000  0.000000000

 
 Subroutine IBZKPT returns following result:
 ===========================================
 
 Found     40 irreducible k-points:
 
 Following reciprocal coordinates:
            Coordinates               Weight
  0.000000  0.000000  0.000000      1.000000
  0.166667  0.000000  0.000000      2.000000
  0.333333  0.000000  0.000000      2.000000
  0.500000  0.000000  0.000000      1.000000
  0.000000  0.166667  0.000000      2.000000
  0.166667  0.166667  0.000000      2.000000
  0.166667 -0.166667  0.000000      2.000000
  0.333333  0.166667  0.000000      2.000000
  0.333333 -0.166667  0.000000      2.000000
  0.500000  0.166667  0.000000      2.000000
  0.000000  0.333333  0.000000      2.000000
  0.166667  0.333333  0.000000      2.000000
  0.166667 -0.333333  0.000000      2.000000
  0.333333  0.333333  0.000000      2.000000
  0.333333 -0.333333  0.000000      2.000000
  0.500000  0.333333  0.000000      2.000000
  0.000000  0.500000  0.000000      1.000000
  0.166667  0.500000  0.000000      2.000000
  0.333333  0.500000  0.000000      2.000000
  0.500000  0.500000  0.000000      1.000000
  0.000000  0.000000  0.500000      1.000000
  0.166667  0.000000  0.500000      2.000000
  0.333333  0.000000  0.500000      2.000000
  0.500000  0.000000  0.500000      1.000000
  0.000000  0.166667  0.500000      2.000000
  0.166667  0.166667  0.500000      2.000000
  0.166667 -0.166667  0.500000      2.000000
  0.333333  0.166667  0.500000      2.000000
  0.333333 -0.166667  0.500000      2.000000
  0.500000  0.166667  0.500000      2.000000
  0.000000  0.333333  0.500000      2.000000
  0.166667  0.333333  0.500000      2.000000
  0.166667 -0.333333  0.500000      2.000000
  0.333333  0.333333  0.500000      2.000000
  0.333333 -0.333333  0.500000      2.000000
  0.500000  0.333333  0.500000      2.000000
  0.000000  0.500000  0.500000      1.000000
  0.166667  0.500000  0.500000      2.000000
  0.333333  0.500000  0.500000      2.000000
  0.500000  0.500000  0.500000      1.000000
 
 Following cartesian coordinates:
            Coordinates               Weight
  0.000000  0.000000  0.000000      1.000000
  0.043199  0.000000  0.000000      2.000000
  0.086398  0.000000  0.000000      2.000000
  0.129597  0.000000  0.000000      1.000000
  0.000000  0.036820  0.000000      2.000000
  0.043199  0.036820  0.000000      2.000000
  0.043199 -0.036820  0.000000      2.000000
  0.086398  0.036820  0.000000      2.000000
  0.086398 -0.036820  0.000000      2.000000
  0.129597  0.036820  0.000000      2.000000
  0.000000  0.073639  0.000000      2.000000
  0.043199  0.073639  0.000000      2.000000
  0.043199 -0.073639  0.000000      2.000000
  0.086398  0.073639  0.000000      2.000000
  0.086398 -0.073639  0.000000      2.000000
  0.129597  0.073639  0.000000      2.000000
  0.000000  0.110459  0.000000      1.000000
  0.043199  0.110459  0.000000      2.000000
  0.086398  0.110459  0.000000      2.000000
  0.129597  0.110459  0.000000      1.000000
  0.000000  0.000000  0.043159      1.000000
  0.043199  0.000000  0.043159      2.000000
  0.086398  0.000000  0.043159      2.000000
  0.129597  0.000000  0.043159      1.000000
  0.000000  0.036820  0.043159      2.000000
  0.043199  0.036820  0.043159      2.000000
  0.043199 -0.036820  0.043159      2.000000
  0.086398  0.036820  0.043159      2.000000
  0.086398 -0.036820  0.043159      2.000000
  0.129597  0.036820  0.043159      2.000000
  0.000000  0.073639  0.043159      2.000000
  0.043199  0.073639  0.043159      2.000000
  0.043199 -0.073639  0.043159      2.000000
  0.086398  0.073639  0.043159      2.000000
  0.086398 -0.073639  0.043159      2.000000
  0.129597  0.073639  0.043159      2.000000
  0.000000  0.110459  0.043159      1.000000
  0.043199  0.110459  0.043159      2.000000
  0.086398  0.110459  0.043159      2.000000
  0.129597  0.110459  0.043159      1.000000
 


--------------------------------------------------------------------------------------------------------




 Dimension of arrays:
   k-points           NKPTS =     40   k-points in BZ     NKDIM =     40   number of bands    NBANDS=     32
   number of dos      NEDOS =    301   number of ions     NIONS =      8
   non local maximal  LDIM  =      5   non local SUM 2l+1 LMDIM =     13
   total plane-waves  NPLWV =  23328
   max r-space proj   IRMAX =      1   max aug-charges    IRDMAX=   6465
   dimension x,y,z NGX =    18 NGY =   24 NGZ =   54
   dimension x,y,z NGXF=    36 NGYF=   48 NGZF=  108
   support grid    NGXF=    36 NGYF=   48 NGZF=  108
   ions per type =               4   4
   NGX,Y,Z   is equivalent  to a cutoff of   7.76,  8.81,  7.75 a.u.
   NGXF,Y,Z  is equivalent  to a cutoff of  15.51, 17.63, 15.50 a.u.

 SYSTEM =  ./                                      
 POSCAR =  Ge Se                                   

 Startparameter for this run:
   NWRITE =      2    write-flag & timer
   PREC   = normal    normal or accurate (medium, high low for compatibility)
   ISTART =      0    job   : 0-new  1-cont  2-samecut
   ICHARG =      2    charge: 1-file 2-atom 10-const
   ISPIN  =      1    spin polarized calculation?
   LNONCOLLINEAR =      F non collinear calculations
   LSORBIT =      F    spin-orbit coupling
   INIWAV =      1    electr: 0-lowe 1-rand  2-diag
   LASPH  =      T    aspherical Exc in radial PAW
 Electronic Relaxation 1
   ENCUT  =  360.0 eV  26.46 Ry    5.14 a.u.   5.97  7.00 17.92*2*pi/ulx,y,z
   ENINI  =  360.0     initial cutoff
   ENAUG  =  446.8 eV  augmentation charge cutoff
   NELM   =    100;   NELMIN=  2; NELMDL= -5     # of ELM steps 
   EDIFF  = 0.1E-05   stopping-criterion for ELM
   LREAL  =      F    real-space projection
   NLSPLINE    = F    spline interpolate recip. space projectors
   LCOMPAT=      F    compatible to vasp.4.4
   GGA_COMPAT  = T    GGA compatible to vasp.4.4-vasp.4.6
   LMAXPAW     = -100 max onsite density
   LMAXMIX     =    4 max onsite mixed and CHGCAR
   VOSKOWN=      0    Vosko Wilk Nusair interpolation
   ROPT   =    0.00000   0.00000
 Ionic relaxation
   EDIFFG = 0.1E-04   stopping-criterion for IOM
   NSW    =      0    number of steps for IOM
   NBLOCK =      1;   KBLOCK =      1    inner block; outer block 
   IBRION =     -1    ionic relax: 0-MD 1-quasi-New 2-CG
   NFREE  =      0    steps in history (QN), initial steepest desc. (CG)
   ISIF   =      2    stress and relaxation
   IWAVPR =     10    prediction:  0-non 1-charg 2-wave 3-comb
   ISYM   =      0    0-nonsym 1-usesym 2-fastsym
   LCORR  =      T    Harris-Foulkes like correction to forces

   POTIM  = 0.5000    time-step for ionic-motion
   TEIN   =    0.0    initial temperature
   TEBEG  =    0.0;   TEEND  =   0.0 temperature during run
   SMASS  =  -3.00    Nose mass-parameter (am)
   estimated Nose-frequenzy (Omega)   =  0.10E-29 period in steps = 0.13E+47 mass=  -0.340E-27a.u.
   SCALEE = 1.0000    scale energy and forces
   NPACO  =    256;   APACO  = 10.0  distance and # of slots for P.C.
   PSTRESS=    0.0 pullay stress

  Mass of Ions in am
   POMASS =  72.61 78.96
  Ionic Valenz
   ZVAL   =   4.00  6.00
  Atomic Wigner-Seitz radii
   RWIGS  =  -1.00 -1.00
  virtual crystal weights 
   VCA    =   1.00  1.00
   NELECT =      40.0000    total number of electrons
   NUPDOWN=      -1.0000    fix difference up-down

 DOS related values:
   EMIN   =  10.00;   EMAX   =-10.00  energy-range for DOS
   EFERMI =   0.00;   METHOD = LEGACY      
   ISMEAR =     0;   SIGMA  =   0.05  broadening in eV -4-tet -1-fermi 0-gaus

 Electronic relaxation 2 (details)
   IALGO  =     38    algorithm
   LDIAG  =      T    sub-space diagonalisation (order eigenvalues)
   LSUBROT=      F    optimize rotation matrix (better conditioning)
   TURBO    =      0    0=normal 1=particle mesh
   IRESTART =      0    0=no restart 2=restart with 2 vectors
   NREBOOT  =      0    no. of reboots
   NMIN     =      0    reboot dimension
   EREF     =   0.00    reference energy to select bands
   IMIX   =      4    mixing-type and parameters
     AMIX     =   0.40;   BMIX     =  1.00
     AMIX_MAG =   1.60;   BMIX_MAG =  1.00
     AMIN     =   0.10
     WC   =   100.;   INIMIX=   1;  MIXPRE=   1;  MAXMIX= -45

 Intra band minimization:
   WEIMIN = 0.0000     energy-eigenvalue tresh-hold
   EBREAK =  0.78E-08  absolut break condition
   DEPER  =   0.30     relativ break condition  

   TIME   =   0.40     timestep for ELM

  volume/ion in A,a.u.               =      25.29       170.67
  Fermi-wavevector in a.u.,A,eV,Ry     =   0.953702  1.802236 12.375155  0.909548
  Thomas-Fermi vector in A             =   2.082382
 
 Write flags
   LWAVE        =      F    write WAVECAR
   LDOWNSAMPLE  =      F    k-point downsampling of WAVECAR
   LCHARG       =      F    write CHGCAR
   LVTOT        =      F    write LOCPOT, total local potential
   LVHAR        =      F    write LOCPOT, Hartree potential only
   LELF         =      F    write electronic localiz. function (ELF)
   LORBIT       =      0    0 simple, 1 ext, 2 COOP (PROOUT), +10 PAW based schemes


 Dipole corrections
   LMONO  =      F    monopole corrections only (constant potential shift)
   LDIPOL =      F    correct potential (dipole corrections)
   IDIPOL =      0    1-x, 2-y, 3-z, 4-all directions 
   EPSILON=  1.0000000 bulk dielectric constant

 Exchange correlation treatment:
   GGA     =    PE    GGA type
   LEXCH   =     8    internal setting for exchange type
   LIBXC   =     F    Libxc                    
   VOSKOWN =     0    Vosko Wilk Nusair interpolation
   LHFCALC =     F    Hartree Fock is set to
   LHFONE  =     F    Hartree Fock one center treatment
   AEXX    =    0.0000 exact exchange contribution

 Linear response parameters
   LEPSILON=     F    determine dielectric tensor
   LRPA    =     F    only Hartree local field effects (RPA)
   LNABLA  =     F    use nabla operator in PAW spheres
   LVEL    =     F    velocity operator in full k-point grid
   CSHIFT  =0.1000    complex shift for real part using Kramers Kronig
   OMEGAMAX=  -1.0    maximum frequency
   DEG_THRESHOLD= 0.2000000E-02 threshold for treating states as degnerate
   RTIME   =   -0.100 relaxation time in fs
  (WPLASMAI=    0.000 imaginary part of plasma frequency in eV, 0.658/RTIME)
   DFIELD  = 0.0000000 0.0000000 0.0000000 field for delta impulse in time
 
  Optional k-point grid parameters
   LKPOINTS_OPT  =     F    use optional k-point grid
   KPOINTS_OPT_MODE=     1    mode for optional k-point grid
 
 Orbital magnetization related:
   ORBITALMAG=     F  switch on orbital magnetization
   LCHIMAG   =     F  perturbation theory with respect to B field
   DQ        =  0.001000  dq finite difference perturbation B field
   LLRAUG    =     F  two centre corrections for induced B field
   LBONE     =     F  B-component reconstruction in AE one-centre
   LVGVCALC  =     T  calculate vGv susceptibility
   LVGVAPPL  =     F  apply vGv susceptibility instead of pGv for G=0

 Random number generation:
   RANDOM_GENERATOR = DEFAULT
   PCG_SEED         = not used


--------------------------------------------------------------------------------------------------------


 Static calculation
 charge density and potential will be updated during run
 non-spin polarized calculation
 Variant of blocked Davidson
 Davidson routine will perform the subspace rotation
 perform sub-space diagonalisation
    after iterative eigenvector-optimisation
 modified Broyden-mixing scheme, WC =      100.0
 initial mixing is a Kerker type mixing with AMIX =  0.4000 and BMIX =      1.0000
 Hartree-type preconditioning will be used
 using additional bands            12
 reciprocal scheme for non local part
 use partial core corrections
 calculate Harris-corrections to forces 
   (improved forces if not selfconsistent)
 use gradient corrections 
 use of overlap-Matrix (Vanderbilt PP)
 Gauss-broadening in eV      SIGMA  =   0.05


--------------------------------------------------------------------------------------------------------


  energy-cutoff  :      360.00
  volume of cell :      202.32
      direct lattice vectors                 reciprocal lattice vectors
     3.858100176  0.000000000  0.000000000     0.259194929  0.000000000  0.000000000
     0.000000000  4.526575088  0.000000000     0.000000000  0.220917577  0.000000000
     0.000000000  0.000000000 11.585176468     0.000000000  0.000000000  0.086317200

  length of vectors
     3.858100176  4.526575088 11.585176468     0.259194929  0.220917577  0.086317200


 
 k-points in units of 2pi/SCALE and weight: KPOINTS created by Atomic Simulation Env
   0.00000000  0.00000000  0.00000000       0.014
   0.04319915  0.00000000  0.00000000       0.028
   0.08639831  0.00000000  0.00000000       0.028
   0.12959746  0.00000000  0.00000000       0.014
   0.00000000  0.03681960  0.00000000       0.028
   0.04319915  0.03681960  0.00000000       0.028
   0.04319915 -0.03681960  0.00000000       0.028
   0.08639831  0.03681960  0.00000000       0.028
   0.08639831 -0.03681960  0.00000000       0.028
   0.12959746  0.03681960  0.00000000       0.028
   0.00000000  0.07363919  0.00000000       0.028
   0.04319915  0.07363919  0.00000000       0.028
   0.04319915 -0.07363919  0.00000000       0.028
   0.08639831  0.07363919  0.00000000       0.028
   0.08639831 -0.07363919  0.00000000       0.028
   0.12959746  0.07363919  0.00000000       0.028
   0.00000000  0.11045879  0.00000000       0.014
   0.04319915  0.11045879  0.00000000       0.028
   0.08639831  0.11045879  0.00000000       0.028
   0.12959746  0.11045879  0.00000000       0.014
   0.00000000  0.00000000  0.04315860       0.014
   0.04319915  0.00000000  0.04315860       0.028
   0.08639831  0.00000000  0.04315860       0.028
   0.12959746  0.00000000  0.04315860       0.014
   0.00000000  0.03681960  0.04315860       0.028
   0.04319915  0.03681960  0.04315860       0.028
   0.04319915 -0.03681960  0.04315860       0.028
   0.08639831  0.03681960  0.04315860       0.028
   0.08639831 -0.03681960  0.04315860       0.028
   0.12959746  0.03681960  0.04315860       0.028
   0.00000000  0.07363919  0.04315860       0.028
   0.04319915  0.07363919  0.04315860       0.028
   0.04319915 -0.07363919  0.04315860       0.028
   0.08639831  0.07363919  0.04315860       0.028
   0.08639831 -0.07363919  0.04315860       0.028
   0.12959746  0.07363919  0.04315860       0.028
   0.00000000  0.11045879  0.04315860       0.014
   0.04319915  0.11045879  0.04315860       0.028
   0.08639831  0.11045879  0.04315860       0.028
   0.12959746  0.11045879  0.04315860       0.014
 
 k-points in reciprocal lattice and weights: KPOINTS created by Atomic Simulation Env
   0.00000000  0.00000000  0.00000000       0.014
   0.16666667  0.00000000  0.00000000       0.028
   0.33333333  0.00000000  0.00000000       0.028
   0.50000000  0.00000000  0.00000000       0.014
   0.00000000  0.16666667  0.00000000       0.028
   0.16666667  0.16666667  0.00000000       0.028
   0.16666667 -0.16666667  0.00000000       0.028
   0.33333333  0.16666667  0.00000000       0.028
   0.33333333 -0.16666667  0.00000000       0.028
   0.50000000  0.16666667  0.00000000       0.028
   0.00000000  0.33333333  0.00000000       0.028
   0.16666667  0.33333333  0.00000000       0.028
   0.16666667 -0.33333333  0.00000000       0.028
   0.33333333  0.33333333  0.00000000       0.028
   0.33333333 -0.33333333  0.00000000       0.028
   0.50000000  0.33333333  0.00000000       0.028
   0.00000000  0.50000000  0.00000000       0.014
   0.16666667  0.50000000  0.00000000       0.028
   0.33333333  0.50000000  0.00000000       0.028
   0.50000000  0.50000000  0.00000000       0.014
   0.00000000  0.00000000  0.50000000       0.014
   0.16666667  0.00000000  0.50000000       0.028
   0.33333333  0.00000000  0.50000000       0.028
   0.50000000  0.00000000  0.50000000       0.014
   0.00000000  0.16666667  0.50000000       0.028
   0.16666667  0.16666667  0.50000000       0.028
   0.16666667 -0.16666667  0.50000000       0.028
   0.33333333  0.16666667  0.50000000       0.028
   0.33333333 -0.16666667  0.50000000       0.028
   0.50000000  0.16666667  0.50000000       0.028
   0.00000000  0.33333333  0.50000000       0.028
   0.16666667  0.33333333  0.50000000       0.028
   0.16666667 -0.33333333  0.50000000       0.028
   0.33333333  0.33333333  0.50000000       0.028
   0.33333333 -0.33333333  0.50000000       0.028
   0.50000000  0.33333333  0.50000000       0.028
   0.00000000  0.50000000  0.50000000       0.014
   0.16666667  0.50000000  0.50000000       0.028
   0.33333333  0.50000000  0.50000000       0.028
   0.50000000  0.50000000  0.50000000       0.014
 
 position of ions in fractional coordinates (direct lattice) 
   0.61231884  0.98030133  0.13197174
   0.11231881  0.48030132  0.36802823
   0.74999985  0.90375655  0.86802825
   0.24999978  0.40375650  0.63197176
   0.61231883  0.86352368  0.35110993
   0.11231884  0.36352370  0.14889005
   0.74999976  0.02053415  0.64889008
   0.24999984  0.52053418  0.85110995
 
 position of ions in cartesian coordinates  (Angst):
   2.36238744  4.43740757  1.52891595
   0.43333721  2.17411997  4.26367197
   2.89357457  4.09092188 10.05626045
   0.96452420  1.82763412  7.32150435
   2.36238738  3.90880476  4.06767047
   0.43333735  1.64551731  1.72491749
   2.89357421  0.09294938  7.51750603
   0.96452442  2.35623703  9.86025892
 


--------------------------------------------------------------------------------------------------------


 k-point   1 :   0.0000 0.0000 0.0000  plane waves:    3119
 k-point   2 :   0.1667 0.0000 0.0000  plane waves:    3116
 k-point   3 :   0.3333 0.0000 0.0000  plane waves:    3142
 k-point   4 :   0.5000 0.0000 0.0000  plane waves:    3148
 k-point   5 :   0.0000 0.1667 0.0000  plane waves:    3108
 k-point   6 :   0.1667 0.1667 0.0000  plane waves:    3123
 k-point   7 :   0.1667-0.1667 0.0000  plane waves:    3123
 k-point   8 :   0.3333 0.1667 0.0000  plane waves:    3135
 k-point   9 :   0.3333-0.1667 0.0000  plane waves:    3135
 k-point  10 :   0.5000 0.1667 0.0000  plane waves:    3138
 k-point  11 :   0.0000 0.3333 0.0000  plane waves:    3116
 k-point  12 :   0.1667 0.3333 0.0000  plane waves:    3133
 k-point  13 :   0.1667-0.3333 0.0000  plane waves:    3133
 k-point  14 :   0.3333 0.3333 0.0000  plane waves:    3155
 k-point  15 :   0.3333-0.3333 0.0000  plane waves:    3155
 k-point  16 :   0.5000 0.3333 0.0000  plane waves:    3152
 k-point  17 :   0.0000 0.5000 0.0000  plane waves:    3134
 k-point  18 :   0.1667 0.5000 0.0000  plane waves:    3140
 k-point  19 :   0.3333 0.5000 0.0000  plane waves:    3144
 k-point  20 :   0.5000 0.5000 0.0000  plane waves:    3144
 k-point  21 :   0.0000 0.0000 0.5000  plane waves:    3092
 k-point  22 :   0.1667 0.0000 0.5000  plane waves:    3124
 k-point  23 :   0.3333 0.0000 0.5000  plane waves:    3140
 k-point  24 :   0.5000 0.0000 0.5000  plane waves:    3132
 k-point  25 :   0.0000 0.1667 0.5000  plane waves:    3112
 k-point  26 :   0.1667 0.1667 0.5000  plane waves:    3140
 k-point  27 :   0.1667-0.1667 0.5000  plane waves:    3140
 k-point  28 :   0.3333 0.1667 0.5000  plane waves:    3134
 k-point  29 :   0.3333-0.1667 0.5000  plane waves:    3134
 k-point  30 :   0.5000 0.1667 0.5000  plane waves:    3144
 k-point  31 :   0.0000 0.3333 0.5000  plane waves:    3130
 k-point  32 :   0.1667 0.3333 0.5000  plane waves:    3148
 k-point  33 :   0.1667-0.3333 0.5000  plane waves:    3148
 k-point  34 :   0.3333 0.3333 0.5000  plane waves:    3142
 k-point  35 :   0.3333-0.3333 0.5000  plane waves:    3142
 k-point  36 :   0.5000 0.3333 0.5000  plane waves:    3152
 k-point  37 :   0.0000 0.5000 0.5000  plane waves:    3132
 k-point  38 :   0.1667 0.5000 0.5000  plane waves:    3148
 k-point  39 :   0.3333 0.5000 0.5000  plane waves:    3140
 k-point  40 :   0.5000 0.5000 0.5000  plane waves:    3160

 maximum and minimum number of plane-waves per node :       659      606

 maximum number of plane-waves:      3160
 maximum index in each direction: 
   IXMAX=    5   IYMAX=    7   IZMAX=   17
   IXMIN=   -6   IYMIN=   -7   IZMIN=  -18


 parallel 3D FFT for wavefunctions:
    minimum data exchange during FFTs selected (reduces bandwidth)
 parallel 3D FFT for charge:
    minimum data exchange during FFTs selected (reduces bandwidth)


 total amount of memory used by VASP MPI-rank0    37119. kBytes
=======================================================================

   base      :      30000. kBytes
   nonl-proj :       5406. kBytes
   fftplans  :        334. kBytes
   grid      :        503. kBytes
   one-center:         16. kBytes
   wavefun   :        860. kBytes
 
     INWAV:  cpu time      0.0000: real time      0.0001
 Broyden mixing: mesh for mixing (old mesh)
   NGX = 11   NGY = 15   NGZ = 35
  (NGX  = 36   NGY  = 48   NGZ  =108)
  gives a total of   5775 points

 initial charge density was supplied:
 charge density of overlapping atoms calculated
 number of electron      40.0000000 magnetization 
 keeping initial charge density in first step


--------------------------------------------------------------------------------------------------------


 Maximum index for augmentation-charges           362 (set IRDMAX)


--------------------------------------------------------------------------------------------------------


 First call to EWALD:  gamma=   0.302
 Maximum number of real-space cells 4x 3x 2
 Maximum number of reciprocal cells 2x 2x 5

    FEWALD:  cpu time      0.0010: real time      0.0011


--------------------------------------- Ionic step        1  -------------------------------------------




--------------------------------------- Iteration      1(   1)  ---------------------------------------


    POTLOK:  cpu time      0.0105: real time      0.0106
    SETDIJ:  cpu time      0.2146: real time      0.2151
     EDDAV:  cpu time      0.3050: real time      0.3065
       DOS:  cpu time      0.0011: real time      0.0011
    --------------------------------------------
      LOOP:  cpu time      0.5312: real time      0.5333

 eigenvalue-minimisations  :  2560
 total energy-change (2. order) : 0.1327072E+03  (-0.1287296E+04)
 number of electron      40.0000000 magnetization 
 augmentation part       40.0000000 magnetization 

 Free energy of the ion-electron system (eV)
  ---------------------------------------------------
  alpha Z        PSCENC =        83.74935623
  Ewald energy   TEWEN  =     -1382.94902785
  -Hartree energ DENC   =      -146.19094059
  -exchange      EXHF   =         0.00000000
  -V(xc)+E(xc)   XCENC  =       -33.72169294
  PAW double counting   =      1193.78262552    -1080.73714043
  entropy T*S    EENTRO =        -0.00429022
  eigenvalues    EBANDS =        50.29369340
  atomic energy  EATOM  =      1448.48460880
  Solvation  Ediel_sol  =         0.00000000
  ---------------------------------------------------
  free energy    TOTEN  =       132.70719191 eV

  energy without entropy =      132.71148214  energy(sigma->0) =      132.70933703


--------------------------------------------------------------------------------------------------------




--------------------------------------- Iteration      1(   2)  ---------------------------------------


     EDDAV:  cpu time      0.4372: real time      0.4402
       DOS:  cpu time      0.0009: real time      0.0009
    --------------------------------------------
      LOOP:  cpu time      0.4382: real time      0.4412

 eigenvalue-minimisations  :  3712
 total energy-change (2. order) :-0.1577486E+03  (-0.1532704E+03)
 number of electron      40.0000000 magnetization 
 augmentation part       40.0000000 magnetization 

 Free energy of the ion-electron system (eV)
  ---------------------------------------------------
  alpha Z        PSCENC =        83.74935623
  Ewald energy   TEWEN  =     -1382.94902785
  -Hartree energ DENC   =      -146.19094059
  -exchange      EXHF   =         0.00000000
  -V(xc)+E(xc)   XCENC  =       -33.72169294
  PAW double counting   =      1193.78262552    -1080.73714043
  entropy T*S    EENTRO =        -0.00001770
  eigenvalues    EBANDS =      -107.45917747
  atomic energy  EATOM  =      1448.48460880
  Solvation  Ediel_sol  =         0.00000000
  ---------------------------------------------------
  free energy    TOTEN  =       -25.04140643 eV

  energy without entropy =      -25.04138873  energy(sigma->0) =      -25.04139758


--------------------------------------------------------------------------------------------------------




--------------------------------------- Iteration      1(   3)  ---------------------------------------


     EDDAV:  cpu time      0.3680: real time      0.3697
       DOS:  cpu time      0.0006: real time      0.0006
    --------------------------------------------
      LOOP:  cpu time      0.3686: real time      0.3704

 eigenvalue-minimisations  :  3200
 total energy-change (2. order) :-0.8971415E+01  (-0.8951943E+01)
 number of electron      40.0000000 magnetization 
 augmentation part       40.0000000 magnetization 

 Free energy of the ion-electron system (eV)
  ---------------------------------------------------
  alpha Z        PSCENC =        83.74935623
  Ewald energy   TEWEN  =     -1382.94902785
  -Hartree energ DENC   =      -146.19094059
  -exchange      EXHF   =         0.00000000
  -V(xc)+E(xc)   XCENC  =       -33.72169294
  PAW double counting   =      1193.78262552    -1080.73714043
  entropy T*S    EENTRO =        -0.00000000
  eigenvalues    EBANDS =      -116.43060998
  atomic energy  EATOM  =      1448.48460880
  Solvation  Ediel_sol  =         0.00000000
  ---------------------------------------------------
  free energy    TOTEN  =       -34.01282125 eV

  energy without entropy =      -34.01282125  energy(sigma->0) =      -34.01282125


--------------------------------------------------------------------------------------------------------




--------------------------------------- Iteration      1(   4)  ---------------------------------------


     EDDAV:  cpu time      0.3945: real time      0.3960
       DOS:  cpu time      0.0026: real time      0.0026
    --------------------------------------------
      LOOP:  cpu time      0.3970: real time      0.3986

 eigenvalue-minimisations  :  3376
 total energy-change (2. order) :-0.6576036E-01  (-0.6574523E-01)
 number of electron      40.0000000 magnetization 
 augmentation part       40.0000000 magnetization 

 Free energy of the ion-electron system (eV)
  ---------------------------------------------------
  alpha Z        PSCENC =        83.74935623
  Ewald energy   TEWEN  =     -1382.94902785
  -Hartree energ DENC   =      -146.19094059
  -exchange      EXHF   =         0.00000000
  -V(xc)+E(xc)   XCENC  =       -33.72169294
  PAW double counting   =      1193.78262552    -1080.73714043
  entropy T*S    EENTRO =        -0.00000000
  eigenvalues    EBANDS =      -116.49637034
  atomic energy  EATOM  =      1448.48460880
  Solvation  Ediel_sol  =         0.00000000
  ---------------------------------------------------
  free energy    TOTEN  =       -34.07858160 eV

  energy without entropy =      -34.07858160  energy(sigma->0) =      -34.07858160


--------------------------------------------------------------------------------------------------------




--------------------------------------- Iteration      1(   5)  ---------------------------------------


     EDDAV:  cpu time      0.3653: real time      0.3674
       DOS:  cpu time      0.0006: real time      0.0006
    CHARGE:  cpu time      0.0055: real time      0.0056
    MIXING:  cpu time      0.0004: real time      0.0004
    --------------------------------------------
      LOOP:  cpu time      0.3718: real time      0.3740

 eigenvalue-minimisations  :  3168
 total energy-change (2. order) :-0.4724819E-03  (-0.4724723E-03)
 number of electron      39.9999966 magnetization 
 augmentation part       -7.4130875 magnetization 

 Broyden mixing:
  rms(total) = 0.65101E+00    rms(broyden)= 0.65100E+00
  rms(prec ) = 0.72844E+00
  weight for this iteration     100.00

 Free energy of the ion-electron system (eV)
  ---------------------------------------------------
  alpha Z        PSCENC =        83.74935623
  Ewald energy   TEWEN  =     -1382.94902785
  -Hartree energ DENC   =      -146.19094059
  -exchange      EXHF   =         0.00000000
  -V(xc)+E(xc)   XCENC  =       -33.72169294
  PAW double counting   =      1193.78262552    -1080.73714043
  entropy T*S    EENTRO =        -0.00000000
  eigenvalues    EBANDS =      -116.49684282
  atomic energy  EATOM  =      1448.48460880
  Solvation  Ediel_sol  =         0.00000000
  ---------------------------------------------------
  free energy    TOTEN  =       -34.07905408 eV

  energy without entropy =      -34.07905408  energy(sigma->0) =      -34.07905408


--------------------------------------------------------------------------------------------------------




--------------------------------------- Iteration      1(   6)  ---------------------------------------


    POTLOK:  cpu time      0.0076: real time      0.0077
    SETDIJ:  cpu time      0.2162: real time      0.2166
     EDDAV:  cpu time      0.3593: real time      0.3611
       DOS:  cpu time      0.0010: real time      0.0010
    CHARGE:  cpu time      0.0053: real time      0.0054
    MIXING:  cpu time      0.0005: real time      0.0005
    --------------------------------------------
      LOOP:  cpu time      0.5899: real time      0.5923

 eigenvalue-minimisations  :  3104
 total energy-change (2. order) : 0.3691393E+00  (-0.7946999E-01)
 number of electron      39.9999967 magnetization 
 augmentation part       -7.3550064 magnetization 

 Broyden mixing:
  rms(total) = 0.41040E+00    rms(broyden)= 0.41040E+00
  rms(prec ) = 0.43068E+00
  weight for this iteration     100.00

 eigenvalues of (default mixing * dielectric matrix)
  average eigenvalue GAMMA=   2.2001
  2.2001

 Free energy of the ion-electron system (eV)
  ---------------------------------------------------
  alpha Z        PSCENC =        83.74935623
  Ewald energy   TEWEN  =     -1382.94902785
  -Hartree energ DENC   =      -152.44011913
  -exchange      EXHF   =         0.00000000
  -V(xc)+E(xc)   XCENC  =       -33.09611753
  PAW double counting   =      1457.92910565    -1345.20011405
  entropy T*S    EENTRO =        -0.00028434
  eigenvalues    EBANDS =      -110.18732252
  atomic energy  EATOM  =      1448.48460880
  Solvation  Ediel_sol  =         0.00000000
  ---------------------------------------------------
  free energy    TOTEN  =       -33.70991474 eV

  energy without entropy =      -33.70963040  energy(sigma->0) =      -33.70977257


--------------------------------------------------------------------------------------------------------




--------------------------------------- Iteration      1(   7)  ---------------------------------------


    POTLOK:  cpu time      0.0077: real time      0.0078
    SETDIJ:  cpu time      0.2154: real time      0.2161
     EDDAV:  cpu time      0.3596: real time      0.3611
       DOS:  cpu time      0.0010: real time      0.0010
    CHARGE:  cpu time      0.0054: real time      0.0054
    MIXING:  cpu time      0.0005: real time      0.0005
    --------------------------------------------
      LOOP:  cpu time      0.5895: real time      0.5919

 eigenvalue-minimisations  :  3072
 total energy-change (2. order) : 0.8828902E-02  (-0.2207500E-01)
 number of electron      39.9999967 magnetization 
 augmentation part       -7.3378715 magnetization 

 Broyden mixing:
  rms(total) = 0.12699E+00    rms(broyden)= 0.12699E+00
  rms(prec ) = 0.13537E+00
  weight for this iteration     100.00

 eigenvalues of (default mixing * dielectric matrix)
  average eigenvalue GAMMA=   1.7732
  1.1755  2.3709

 Free energy of the ion-electron system (eV)
  ---------------------------------------------------
  alpha Z        PSCENC =        83.74935623
  Ewald energy   TEWEN  =     -1382.94902785
  -Hartree energ DENC   =      -155.44487128
  -exchange      EXHF   =         0.00000000
  -V(xc)+E(xc)   XCENC  =       -32.60036998
  PAW double counting   =      1786.00952223    -1673.51560257
  entropy T*S    EENTRO =        -0.00070305
  eigenvalues    EBANDS =      -107.43399836
  atomic energy  EATOM  =      1448.48460880
  Solvation  Ediel_sol  =         0.00000000
  ---------------------------------------------------
  free energy    TOTEN  =       -33.70108584 eV

  energy without entropy =      -33.70038279  energy(sigma->0) =      -33.70073431


--------------------------------------------------------------------------------------------------------




--------------------------------------- Iteration      1(   8)  ---------------------------------------


    POTLOK:  cpu time      0.0076: real time      0.0077
    SETDIJ:  cpu time      0.2156: real time      0.2161
     EDDAV:  cpu time      0.4065: real time      0.4090
       DOS:  cpu time      0.0010: real time      0.0010
    CHARGE:  cpu time      0.0055: real time      0.0056
    MIXING:  cpu time      0.0005: real time      0.0005
    --------------------------------------------
      LOOP:  cpu time      0.6367: real time      0.6399

 eigenvalue-minimisations  :  3232
 total energy-change (2. order) : 0.2995957E-03  (-0.2117081E-02)
 number of electron      39.9999967 magnetization 
 augmentation part       -7.3451648 magnetization 

 Broyden mixing:
  rms(total) = 0.18808E-01    rms(broyden)= 0.18808E-01
  rms(prec ) = 0.23011E-01
  weight for this iteration     100.00

 eigenvalues of (default mixing * dielectric matrix)
  average eigenvalue GAMMA=   1.6902
  2.5244  1.2731  1.2731

 Free energy of the ion-electron system (eV)
  ---------------------------------------------------
  alpha Z        PSCENC =        83.74935623
  Ewald energy   TEWEN  =     -1382.94902785
  -Hartree energ DENC   =      -155.71293726
  -exchange      EXHF   =         0.00000000
  -V(xc)+E(xc)   XCENC  =       -32.45123331
  PAW double counting   =      1921.29540480    -1808.85944480
  entropy T*S    EENTRO =        -0.00048509
  eigenvalues    EBANDS =      -107.25702776
  atomic energy  EATOM  =      1448.48460880
  Solvation  Ediel_sol  =         0.00000000
  ---------------------------------------------------
  free energy    TOTEN  =       -33.70078624 eV

  energy without entropy =      -33.70030115  energy(sigma->0) =      -33.70054370


--------------------------------------------------------------------------------------------------------




--------------------------------------- Iteration      1(   9)  ---------------------------------------


    POTLOK:  cpu time      0.0077: real time      0.0078
    SETDIJ:  cpu time      0.2162: real time      0.2167
     EDDAV:  cpu time      0.3993: real time      0.4013
       DOS:  cpu time      0.0010: real time      0.0010
    CHARGE:  cpu time      0.0054: real time      0.0054
    MIXING:  cpu time      0.0005: real time      0.0005
    --------------------------------------------
      LOOP:  cpu time      0.6300: real time      0.6326

 eigenvalue-minimisations  :  3408
 total energy-change (2. order) :-0.5214191E-03  (-0.3798591E-03)
 number of electron      39.9999967 magnetization 
 augmentation part       -7.3433155 magnetization 

 Broyden mixing:
  rms(total) = 0.72032E-02    rms(broyden)= 0.72032E-02
  rms(prec ) = 0.81114E-02
  weight for this iteration     100.00

 eigenvalues of (default mixing * dielectric matrix)
  average eigenvalue GAMMA=   1.7370
  2.3184  2.3184  1.1556  1.1556

 Free energy of the ion-electron system (eV)
  ---------------------------------------------------
  alpha Z        PSCENC =        83.74935623
  Ewald energy   TEWEN  =     -1382.94902785
  -Hartree energ DENC   =      -156.13266641
  -exchange      EXHF   =         0.00000000
  -V(xc)+E(xc)   XCENC  =       -32.40246840
  PAW double counting   =      1938.15181686    -1825.72654009
  entropy T*S    EENTRO =        -0.00055038
  eigenvalues    EBANDS =      -106.87583642
  atomic energy  EATOM  =      1448.48460880
  Solvation  Ediel_sol  =         0.00000000
  ---------------------------------------------------
  free energy    TOTEN  =       -33.70130766 eV

  energy without entropy =      -33.70075729  energy(sigma->0) =      -33.70103247


--------------------------------------------------------------------------------------------------------




--------------------------------------- Iteration      1(  10)  ---------------------------------------


    POTLOK:  cpu time      0.0077: real time      0.0079
    SETDIJ:  cpu time      0.2157: real time      0.2162
     EDDAV:  cpu time      0.3737: real time      0.3754
       DOS:  cpu time      0.0010: real time      0.0010
    CHARGE:  cpu time      0.0053: real time      0.0053
    MIXING:  cpu time      0.0005: real time      0.0005
    --------------------------------------------
      LOOP:  cpu time      0.6039: real time      0.6063

 eigenvalue-minimisations  :  3200
 total energy-change (2. order) :-0.1782061E-03  (-0.3623025E-04)
 number of electron      39.9999967 magnetization 
 augmentation part       -7.3433823 magnetization 

 Broyden mixing:
  rms(total) = 0.26074E-02    rms(broyden)= 0.26074E-02
  rms(prec ) = 0.31904E-02
  weight for this iteration     100.00

 eigenvalues of (default mixing * dielectric matrix)
  average eigenvalue GAMMA=   1.7585
  2.7613  2.5055  1.0902  1.2178  1.2178

 Free energy of the ion-electron system (eV)
  ---------------------------------------------------
  alpha Z        PSCENC =        83.74935623
  Ewald energy   TEWEN  =     -1382.94902785
  -Hartree energ DENC   =      -156.16263327
  -exchange      EXHF   =         0.00000000
  -V(xc)+E(xc)   XCENC  =       -32.39927332
  PAW double counting   =      1930.31081308    -1817.87900993
  entropy T*S    EENTRO =        -0.00053077
  eigenvalues    EBANDS =      -106.85578883
  atomic energy  EATOM  =      1448.48460880
  Solvation  Ediel_sol  =         0.00000000
  ---------------------------------------------------
  free energy    TOTEN  =       -33.70148587 eV

  energy without entropy =      -33.70095509  energy(sigma->0) =      -33.70122048


--------------------------------------------------------------------------------------------------------




--------------------------------------- Iteration      1(  11)  ---------------------------------------


    POTLOK:  cpu time      0.0076: real time      0.0078
    SETDIJ:  cpu time      0.2154: real time      0.2157
     EDDAV:  cpu time      0.3909: real time      0.3925
       DOS:  cpu time      0.0010: real time      0.0010
    CHARGE:  cpu time      0.0053: real time      0.0053
    MIXING:  cpu time      0.0005: real time      0.0005
    --------------------------------------------
      LOOP:  cpu time      0.6208: real time      0.6228

 eigenvalue-minimisations  :  3296
 total energy-change (2. order) :-0.5158758E-04  (-0.5878247E-05)
 number of electron      39.9999967 magnetization 
 augmentation part       -7.3434673 magnetization 

 Broyden mixing:
  rms(total) = 0.12611E-02    rms(broyden)= 0.12611E-02
  rms(prec ) = 0.14338E-02
  weight for this iteration     100.00

 eigenvalues of (default mixing * dielectric matrix)
  average eigenvalue GAMMA=   1.7254
  2.5601  2.5601  1.9996  1.1485  1.1485  0.9355

 Free energy of the ion-electron system (eV)
  ---------------------------------------------------
  alpha Z        PSCENC =        83.74935623
  Ewald energy   TEWEN  =     -1382.94902785
  -Hartree energ DENC   =      -156.21173625
  -exchange      EXHF   =         0.00000000
  -V(xc)+E(xc)   XCENC  =       -32.39075344
  PAW double counting   =      1932.01744202    -1819.58608739
  entropy T*S    EENTRO =        -0.00052522
  eigenvalues    EBANDS =      -106.81481435
  atomic energy  EATOM  =      1448.48460880
  Solvation  Ediel_sol  =         0.00000000
  ---------------------------------------------------
  free energy    TOTEN  =       -33.70153745 eV

  energy without entropy =      -33.70101224  energy(sigma->0) =      -33.70127485


--------------------------------------------------------------------------------------------------------




--------------------------------------- Iteration      1(  12)  ---------------------------------------


    POTLOK:  cpu time      0.0075: real time      0.0077
    SETDIJ:  cpu time      0.2150: real time      0.2156
     EDDAV:  cpu time      0.4010: real time      0.4027
       DOS:  cpu time      0.0010: real time      0.0011
    CHARGE:  cpu time      0.0056: real time      0.0056
    MIXING:  cpu time      0.0006: real time      0.0006
    --------------------------------------------
      LOOP:  cpu time      0.6307: real time      0.6332

 eigenvalue-minimisations  :  3344
 total energy-change (2. order) :-0.1849245E-05  (-0.8032099E-06)
 number of electron      39.9999967 magnetization 
 augmentation part       -7.3433236 magnetization 

 Broyden mixing:
  rms(total) = 0.28480E-03    rms(broyden)= 0.28480E-03
  rms(prec ) = 0.36098E-03
  weight for this iteration     100.00

 eigenvalues of (default mixing * dielectric matrix)
  average eigenvalue GAMMA=   1.7095
  2.9962  2.4673  1.9232  0.9631  1.3520  1.1323  1.1323

 Free energy of the ion-electron system (eV)
  ---------------------------------------------------
  alpha Z        PSCENC =        83.74935623
  Ewald energy   TEWEN  =     -1382.94902785
  -Hartree energ DENC   =      -156.22918900
  -exchange      EXHF   =         0.00000000
  -V(xc)+E(xc)   XCENC  =       -32.38956275
  PAW double counting   =      1931.27539353    -1818.84397259
  entropy T*S    EENTRO =        -0.00052853
  eigenvalues    EBANDS =      -106.79861714
  atomic energy  EATOM  =      1448.48460880
  Solvation  Ediel_sol  =         0.00000000
  ---------------------------------------------------
  free energy    TOTEN  =       -33.70153930 eV

  energy without entropy =      -33.70101077  energy(sigma->0) =      -33.70127504


--------------------------------------------------------------------------------------------------------




--------------------------------------- Iteration      1(  13)  ---------------------------------------


    POTLOK:  cpu time      0.0076: real time      0.0077
    SETDIJ:  cpu time      0.2152: real time      0.2157
     EDDAV:  cpu time      0.3110: real time      0.3127
       DOS:  cpu time      0.0010: real time      0.0010
    CHARGE:  cpu time      0.0053: real time      0.0054
    MIXING:  cpu time      0.0006: real time      0.0006
    --------------------------------------------
      LOOP:  cpu time      0.5407: real time      0.5431

 eigenvalue-minimisations  :  2416
 total energy-change (2. order) :-0.1077918E-05  (-0.1742615E-06)
 number of electron      39.9999967 magnetization 
 augmentation part       -7.3433005 magnetization 

 Broyden mixing:
  rms(total) = 0.11473E-03    rms(broyden)= 0.11473E-03
  rms(prec ) = 0.13927E-03
  weight for this iteration     100.00

 eigenvalues of (default mixing * dielectric matrix)
  average eigenvalue GAMMA=   1.7235
  3.0778  2.4524  1.9795  1.9795  1.1322  1.1322  0.9532  1.0809

 Free energy of the ion-electron system (eV)
  ---------------------------------------------------
  alpha Z        PSCENC =        83.74935623
  Ewald energy   TEWEN  =     -1382.94902785
  -Hartree energ DENC   =      -156.23422010
  -exchange      EXHF   =         0.00000000
  -V(xc)+E(xc)   XCENC  =       -32.38887518
  PAW double counting   =      1931.28555383    -1818.85403541
  entropy T*S    EENTRO =        -0.00052709
  eigenvalues    EBANDS =      -106.79437361
  atomic energy  EATOM  =      1448.48460880
  Solvation  Ediel_sol  =         0.00000000
  ---------------------------------------------------
  free energy    TOTEN  =       -33.70154038 eV

  energy without entropy =      -33.70101329  energy(sigma->0) =      -33.70127683


--------------------------------------------------------------------------------------------------------




--------------------------------------- Iteration      1(  14)  ---------------------------------------


    POTLOK:  cpu time      0.0075: real time      0.0076
    SETDIJ:  cpu time      0.2220: real time      0.2225
     EDDAV:  cpu time      0.2605: real time      0.2616
       DOS:  cpu time      0.0010: real time      0.0010
    --------------------------------------------
      LOOP:  cpu time      0.4910: real time      0.4927

 eigenvalue-minimisations  :  1728
 total energy-change (2. order) :-0.2222862E-06  (-0.2205612E-07)
 number of electron      39.9999967 magnetization 
 augmentation part       -7.3433005 magnetization 

 Free energy of the ion-electron system (eV)
  ---------------------------------------------------
  alpha Z        PSCENC =        83.74935623
  Ewald energy   TEWEN  =     -1382.94902785
  -Hartree energ DENC   =      -156.23651798
  -exchange      EXHF   =         0.00000000
  -V(xc)+E(xc)   XCENC  =       -32.38874175
  PAW double counting   =      1931.29353198    -1818.86204736
  entropy T*S    EENTRO =        -0.00052732
  eigenvalues    EBANDS =      -106.79217536
  atomic energy  EATOM  =      1448.48460880
  Solvation  Ediel_sol  =         0.00000000
  ---------------------------------------------------
  free energy    TOTEN  =       -33.70154060 eV

  energy without entropy =      -33.70101328  energy(sigma->0) =      -33.70127694


--------------------------------------------------------------------------------------------------------




 average (electrostatic) potential at core
  the test charge radii are     1.1631  1.0808
  (the norm of the test charge is              1.0000)
       1 -33.7896       2 -33.7896       3 -33.7896       4 -33.7896       5 -55.3096
       6 -55.3096       7 -55.3097       8 -55.3097
 
 
 
 E-fermi :   3.2990     XC(G=0):  -9.0485     alpha+bet : -8.3433

 Fermi energy:         3.2989723401

 k-point     1 :       0.0000    0.0000    0.0000
  band No.  band energies     occupation 
      1     -11.2171      2.00000
      2     -10.9962      2.00000
      3      -9.9567      2.00000
      4      -9.6210      2.00000
      5      -5.0804      2.00000
      6      -4.3933      2.00000
      7      -3.2356      2.00000
      8      -2.3628      2.00000
      9      -2.0580      2.00000
     10      -0.6892      2.00000
     11      -0.5823      2.00000
     12      -0.4205      2.00000
     13      -0.0455      2.00000
     14       0.1099      2.00000
     15       1.1010      2.00000
     16       1.2016      2.00000
     17       1.4398      2.00000
     18       1.6970      2.00000
     19       1.8631      2.00000
     20       3.2675      1.62671
     21       3.3304      0.37335
     22       5.4356      0.00000
     23       5.4615      0.00000
     24       5.8571      0.00000
     25       5.9586      0.00000
     26       6.5705      0.00000
     27       6.6283      0.00000
     28       6.7656      0.00000
     29       7.2531      0.00000
     30       8.0323      0.00000
     31       8.5349      0.00000
     32       9.7088      0.00000

 k-point     2 :       0.1667    0.0000    0.0000
  band No.  band energies     occupation 
      1     -11.0331      2.00000
      2     -10.8169      2.00000
      3      -9.8569      2.00000
      4      -9.5470      2.00000
      5      -5.3006      2.00000
      6      -4.6201      2.00000
      7      -3.6535      2.00000
      8      -2.8535      2.00000
      9      -1.8700      2.00000
     10      -0.5587      2.00000
     11      -0.4268      2.00000
     12      -0.4123      2.00000
     13      -0.2753      2.00000
     14       0.0731      2.00000
     15       0.8035      2.00000
     16       1.1595      2.00000
     17       1.3806      2.00000
     18       1.6500      2.00000
     19       2.0320      2.00000
     20       3.1501      1.99997
     21       3.5604      0.00000
     22       5.1625      0.00000
     23       5.5073      0.00000
     24       6.0442      0.00000
     25       6.1325      0.00000
     26       6.2804      0.00000
     27       6.3583      0.00000
     28       6.8399      0.00000
     29       7.1754      0.00000
     30       7.2280      0.00000
     31       7.7856      0.00000
     32       8.9131      0.00000

 k-point     3 :       0.3333    0.0000    0.0000
  band No.  band energies     occupation 
      1     -10.5370      2.00000
      2     -10.3352      2.00000
      3      -9.7199      2.00000
      4      -9.4829      2.00000
      5      -5.7268      2.00000
      6      -5.0348      2.00000
      7      -4.6939      2.00000
      8      -3.9591      2.00000
      9      -1.2891      2.00000
     10      -0.4900      2.00000
     11      -0.3171      2.00000
     12       0.0132      2.00000
     13       0.1501      2.00000
     14       0.5198      2.00000
     15       0.7125      2.00000
     16       1.0455      2.00000
     17       1.1019      2.00000
     18       1.4297      2.00000
     19       2.3940      2.00000
     20       2.7407      2.00000
     21       3.9097      0.00000
     22       4.1032      0.00000
     23       4.3778      0.00000
     24       5.0467      0.00000
     25       5.1397      0.00000
     26       5.3384      0.00000
     27       5.7558      0.00000
     28       5.9965      0.00000
     29       6.5467      0.00000
     30       6.5470      0.00000
     31       7.2046      0.00000
     32       8.8569      0.00000

 k-point     4 :       0.5000    0.0000    0.0000
  band No.  band energies     occupation 
      1      -9.9558      2.00000
      2      -9.9558      2.00000
      3      -9.7662      2.00000
      4      -9.7662      2.00000
      5      -5.5989      2.00000
      6      -5.5989      2.00000
      7      -4.8803      2.00000
      8      -4.8803      2.00000
      9      -0.5169      2.00000
     10      -0.5169      2.00000
     11       0.1136      2.00000
     12       0.1136      2.00000
     13       0.4778      2.00000
     14       0.4778      2.00000
     15       1.0001      2.00000
     16       1.0001      2.00000
     17       1.0275      2.00000
     18       1.0275      2.00000
     19       2.3590      2.00000
     20       2.3590      2.00000
     21       3.8343      0.00000
     22       3.8343      0.00000
     23       4.6171      0.00000
     24       4.6171      0.00000
     25       4.8421      0.00000
     26       4.8421      0.00000
     27       5.1948      0.00000
     28       5.1948      0.00000
     29       5.5690      0.00000
     30       5.5690      0.00000
     31       7.8676      0.00000
     32       7.8676      0.00000

 k-point     5 :       0.0000    0.1667    0.0000
  band No.  band energies     occupation 
      1     -11.1018      2.00000
      2     -10.8896      2.00000
      3      -9.9665      2.00000
      4      -9.6761      2.00000
      5      -5.3191      2.00000
      6      -4.6131      2.00000
      7      -3.8045      2.00000
      8      -2.9558      2.00000
      9      -1.8459      2.00000
     10      -0.3136      2.00000
     11      -0.1057      2.00000
     12       0.0843      2.00000
     13       0.1139      2.00000
     14       0.2436      2.00000
     15       1.2230      2.00000
     16       1.4237      2.00000
     17       1.4321      2.00000
     18       1.6600      2.00000
     19       2.1020      2.00000
     20       2.8984      2.00000
     21       3.7568      0.00000
     22       5.0773      0.00000
     23       5.5283      0.00000
     24       5.5913      0.00000
     25       5.6345      0.00000
     26       6.1316      0.00000
     27       6.4508      0.00000
     28       6.8412      0.00000
     29       6.9880      0.00000
     30       7.4584      0.00000
     31       7.9103      0.00000
     32       9.4513      0.00000

 k-point     6 :       0.1667    0.1667    0.0000
  band No.  band energies     occupation 
      1     -10.9228      2.00000
      2     -10.7167      2.00000
      3      -9.8661      2.00000
      4      -9.5990      2.00000
      5      -5.3997      2.00000
      6      -4.7240      2.00000
      7      -4.0136      2.00000
      8      -3.1960      2.00000
      9      -1.6808      2.00000
     10      -1.0102      2.00000
     11      -0.8270      2.00000
     12      -0.3128      2.00000
     13       0.5480      2.00000
     14       0.5948      2.00000
     15       0.8256      2.00000
     16       0.8990      2.00000
     17       1.3877      2.00000
     18       1.8683      2.00000
     19       2.3007      2.00000
     20       2.9431      2.00000
     21       3.9474      0.00000
     22       4.8102      0.00000
     23       5.1704      0.00000
     24       5.5144      0.00000
     25       5.9400      0.00000
     26       6.3640      0.00000
     27       6.4929      0.00000
     28       6.5225      0.00000
     29       7.2806      0.00000
     30       7.3524      0.00000
     31       7.5449      0.00000
     32       9.3038      0.00000

 k-point     7 :       0.1667   -0.1667    0.0000
  band No.  band energies     occupation 
      1     -10.9244      2.00000
      2     -10.7150      2.00000
      3      -9.8694      2.00000
      4      -9.5943      2.00000
      5      -5.4249      2.00000
      6      -4.6985      2.00000
      7      -3.9982      2.00000
      8      -3.2188      2.00000
      9      -1.6843      2.00000
     10      -0.9418      2.00000
     11      -0.9020      2.00000
     12      -0.3050      2.00000
     13       0.5697      2.00000
     14       0.6147      2.00000
     15       0.8229      2.00000
     16       0.9209      2.00000
     17       1.4014      2.00000
     18       1.7830      2.00000
     19       2.3983      2.00000
     20       2.8691      2.00000
     21       3.8752      0.00000
     22       4.6751      0.00000
     23       5.2945      0.00000
     24       5.3158      0.00000
     25       6.0910      0.00000
     26       6.5064      0.00000
     27       6.5930      0.00000
     28       6.9192      0.00000
     29       6.9840      0.00000
     30       7.3630      0.00000
     31       7.4575      0.00000
     32       9.1938      0.00000

 k-point     8 :       0.3333    0.1667    0.0000
  band No.  band energies     occupation 
      1     -10.4475      2.00000
      2     -10.2566      2.00000
      3      -9.7205      2.00000
      4      -9.5082      2.00000
      5      -5.6355      2.00000
      6      -4.9813      2.00000
      7      -4.7380      2.00000
      8      -4.0129      2.00000
      9      -1.2046      2.00000
     10      -1.1683      2.00000
     11      -1.1506      2.00000
     12      -0.3962      2.00000
     13       0.3740      2.00000
     14       0.5175      2.00000
     15       0.5550      2.00000
     16       0.9766      2.00000
     17       1.0107      2.00000
     18       1.4189      2.00000
     19       2.0140      2.00000
     20       2.8631      2.00000
     21       3.9661      0.00000
     22       4.7690      0.00000
     23       4.7895      0.00000
     24       5.0359      0.00000
     25       5.1222      0.00000
     26       5.8703      0.00000
     27       6.2362      0.00000
     28       6.2683      0.00000
     29       6.7684      0.00000
     30       7.5307      0.00000
     31       7.9814      0.00000
     32       8.5428      0.00000

 k-point     9 :       0.3333   -0.1667    0.0000
  band No.  band energies     occupation 
      1     -10.4511      2.00000
      2     -10.2528      2.00000
      3      -9.7252      2.00000
      4      -9.5015      2.00000
      5      -5.6696      2.00000
      6      -4.9470      2.00000
      7      -4.7267      2.00000
      8      -4.0234      2.00000
      9      -1.2635      2.00000
     10      -1.1781      2.00000
     11      -1.0924      2.00000
     12      -0.3821      2.00000
     13       0.2686      2.00000
     14       0.5915      2.00000
     15       0.5974      2.00000
     16       0.9599      2.00000
     17       1.0279      2.00000
     18       1.4425      2.00000
     19       2.1166      2.00000
     20       2.6933      2.00000
     21       3.9077      0.00000
     22       4.6412      0.00000
     23       4.6439      0.00000
     24       5.1750      0.00000
     25       5.3597      0.00000
     26       5.5785      0.00000
     27       6.3980      0.00000
     28       6.6693      0.00000
     29       6.7591      0.00000
     30       7.5775      0.00000
     31       7.9669      0.00000
     32       8.3258      0.00000

 k-point    10 :       0.5000    0.1667    0.0000
  band No.  band energies     occupation 
      1      -9.9157      2.00000
      2      -9.9137      2.00000
      3      -9.7317      2.00000
      4      -9.7301      2.00000
      5      -5.5168      2.00000
      6      -5.4999      2.00000
      7      -4.8243      2.00000
      8      -4.8093      2.00000
      9      -0.7907      2.00000
     10      -0.6940      2.00000
     11      -0.5718      2.00000
     12      -0.4215      2.00000
     13      -0.0341      2.00000
     14      -0.0132      2.00000
     15       0.2845      2.00000
     16       0.3450      2.00000
     17       1.1696      2.00000
     18       1.2066      2.00000
     19       2.3243      2.00000
     20       2.4602      2.00000
     21       4.0667      0.00000
     22       4.0912      0.00000
     23       4.9588      0.00000
     24       5.0272      0.00000
     25       5.5799      0.00000
     26       5.6728      0.00000
     27       5.9510      0.00000
     28       6.0131      0.00000
     29       6.6910      0.00000
     30       6.7232      0.00000
     31       7.2801      0.00000
     32       7.6442      0.00000

 k-point    11 :       0.0000    0.3333    0.0000
  band No.  band energies     occupation 
      1     -10.7853      2.00000
      2     -10.6007      2.00000
      3     -10.0678      2.00000
      4      -9.8796      2.00000
      5      -5.6040      2.00000
      6      -4.8443      2.00000
      7      -4.7519      2.00000
      8      -3.9057      2.00000
      9      -1.3580      2.00000
     10       0.1754      2.00000
     11       0.4665      2.00000
     12       0.5796      2.00000
     13       0.6398      2.00000
     14       0.9421      2.00000
     15       1.1574      2.00000
     16       1.2291      2.00000
     17       1.3310      2.00000
     18       2.4533      2.00000
     19       2.4575      2.00000
     20       2.9272      2.00000
     21       4.1051      0.00000
     22       4.2901      0.00000
     23       4.5979      0.00000
     24       5.2851      0.00000
     25       5.5601      0.00000
     26       5.6170      0.00000
     27       5.8701      0.00000
     28       6.2581      0.00000
     29       6.3679      0.00000
     30       6.8381      0.00000
     31       7.5422      0.00000
     32       9.1419      0.00000

 k-point    12 :       0.1667    0.3333    0.0000
  band No.  band energies     occupation 
      1     -10.6241      2.00000
      2     -10.4453      2.00000
      3      -9.9627      2.00000
      4      -9.7813      2.00000
      5      -5.5302      2.00000
      6      -4.7965      2.00000
      7      -4.7373      2.00000
      8      -3.9222      2.00000
      9      -1.1978      2.00000
     10      -1.0252      2.00000
     11      -0.7310      2.00000
     12      -0.1469      2.00000
     13       0.2427      2.00000
     14       0.3381      2.00000
     15       0.8073      2.00000
     16       1.4952      2.00000
     17       1.7633      2.00000
     18       1.7897      2.00000
     19       2.4470      2.00000
     20       2.7883      2.00000
     21       4.3116      0.00000
     22       5.0143      0.00000
     23       5.1979      0.00000
     24       5.2652      0.00000
     25       5.5953      0.00000
     26       5.7815      0.00000
     27       6.4340      0.00000
     28       6.7012      0.00000
     29       6.9473      0.00000
     30       7.5891      0.00000
     31       7.6985      0.00000
     32       8.7613      0.00000

 k-point    13 :       0.1667   -0.3333    0.0000
  band No.  band energies     occupation 
      1     -10.6272      2.00000
      2     -10.4421      2.00000
      3      -9.9659      2.00000
      4      -9.7769      2.00000
      5      -5.5493      2.00000
      6      -4.7815      2.00000
      7      -4.7289      2.00000
      8      -3.9285      2.00000
      9      -1.2044      2.00000
     10      -0.9130      2.00000
     11      -0.8575      2.00000
     12      -0.1449      2.00000
     13       0.1880      2.00000
     14       0.4473      2.00000
     15       0.7935      2.00000
     16       1.5760      2.00000
     17       1.6215      2.00000
     18       1.8794      2.00000
     19       2.4508      2.00000
     20       2.7299      2.00000
     21       4.2917      0.00000
     22       4.7761      0.00000
     23       5.1896      0.00000
     24       5.4449      0.00000
     25       5.5581      0.00000
     26       5.7794      0.00000
     27       6.6531      0.00000
     28       6.6909      0.00000
     29       7.1278      0.00000
     30       7.4918      0.00000
     31       7.6724      0.00000
     32       8.7195      0.00000

 k-point    14 :       0.3333    0.3333    0.0000
  band No.  band energies     occupation 
      1     -10.2170      2.00000
      2     -10.0487      2.00000
      3      -9.7742      2.00000
      4      -9.6019      2.00000
      5      -5.4363      2.00000
      6      -4.9078      2.00000
      7      -4.8002      2.00000
      8      -4.2132      2.00000
      9      -1.7650      2.00000
     10      -1.6340      2.00000
     11      -1.0411      2.00000
     12      -0.8587      2.00000
     13      -0.6167      2.00000
     14       0.0737      2.00000
     15       0.2291      2.00000
     16       0.5367      2.00000
     17       0.5550      2.00000
     18       1.4789      2.00000
     19       1.9342      2.00000
     20       2.7555      2.00000
     21       4.1875      0.00000
     22       5.5543      0.00000
     23       5.6624      0.00000
     24       5.7952      0.00000
     25       6.1443      0.00000
     26       6.4212      0.00000
     27       6.8509      0.00000
     28       7.3314      0.00000
     29       7.8222      0.00000
     30       7.8982      0.00000
     31       8.7156      0.00000
     32       9.0949      0.00000

 k-point    15 :       0.3333   -0.3333    0.0000
  band No.  band energies     occupation 
      1     -10.2234      2.00000
      2     -10.0422      2.00000
      3      -9.7775      2.00000
      4      -9.5966      2.00000
      5      -5.4812      2.00000
      6      -4.8914      2.00000
      7      -4.7574      2.00000
      8      -4.2229      2.00000
      9      -1.7500      2.00000
     10      -1.6494      2.00000
     11      -1.0647      2.00000
     12      -0.8695      2.00000
     13      -0.5916      2.00000
     14      -0.1046      2.00000
     15       0.2946      2.00000
     16       0.6684      2.00000
     17       0.6843      2.00000
     18       1.3470      2.00000
     19       2.0735      2.00000
     20       2.5372      2.00000
     21       4.1284      0.00000
     22       5.4872      0.00000
     23       5.6316      0.00000
     24       5.9442      0.00000
     25       6.1603      0.00000
     26       6.7477      0.00000
     27       7.0468      0.00000
     28       7.1995      0.00000
     29       7.6581      0.00000
     30       7.8375      0.00000
     31       8.5838      0.00000
     32       9.0761      0.00000

 k-point    16 :       0.5000    0.3333    0.0000
  band No.  band energies     occupation 
      1      -9.8305      2.00000
      2      -9.8262      2.00000
      3      -9.6599      2.00000
      4      -9.6564      2.00000
      5      -5.3209      2.00000
      6      -5.2843      2.00000
      7      -4.7064      2.00000
      8      -4.6743      2.00000
      9      -1.4270      2.00000
     10      -1.3794      2.00000
     11      -1.2526      2.00000
     12      -1.2007      2.00000
     13      -0.5883      2.00000
     14      -0.5338      2.00000
     15      -0.3063      2.00000
     16      -0.2548      2.00000
     17       0.6325      2.00000
     18       0.6412      2.00000
     19       2.1977      2.00000
     20       2.4579      2.00000
     21       4.8448      0.00000
     22       4.9173      0.00000
     23       5.9329      0.00000
     24       6.3573      0.00000
     25       6.5830      0.00000
     26       6.6656      0.00000
     27       6.7731      0.00000
     28       6.9585      0.00000
     29       8.1066      0.00000
     30       8.1352      0.00000
     31       8.6281      0.00000
     32       8.6625      0.00000

 k-point    17 :       0.0000    0.5000    0.0000
  band No.  band energies     occupation 
      1     -10.3731      2.00000
      2     -10.3731      2.00000
      3     -10.2238      2.00000
      4     -10.2238      2.00000
      5      -5.4344      2.00000
      6      -5.4344      2.00000
      7      -4.6165      2.00000
      8      -4.6165      2.00000
      9      -0.6132      2.00000
     10      -0.6132      2.00000
[...]
     32       7.9660      0.00000

 k-point    32 :       0.1667    0.3333    0.5000
  band No.  band energies     occupation 
      1     -10.5469      2.00000
      2     -10.5469      2.00000
      3      -9.8600      2.00000
      4      -9.8600      2.00000
      5      -5.2809      2.00000
      6      -5.2809      2.00000
      7      -4.2532      2.00000
      8      -4.2532      2.00000
      9      -1.0245      2.00000
     10      -1.0245      2.00000
     11      -0.2967      2.00000
     12      -0.2967      2.00000
     13       0.1741      2.00000
     14       0.1741      2.00000
     15       1.0227      2.00000
     16       1.0227      2.00000
     17       1.8012      2.00000
     18       1.8012      2.00000
     19       2.3849      2.00000
     20       2.3849      2.00000
     21       4.9380      0.00000
     22       4.9380      0.00000
     23       5.3111      0.00000
     24       5.3111      0.00000
     25       5.7803      0.00000
     26       5.7803      0.00000
     27       6.6583      0.00000
     28       6.6583      0.00000
     29       7.3726      0.00000
     30       7.3726      0.00000
     31       7.9110      0.00000
     32       7.9110      0.00000

 k-point    33 :       0.1667   -0.3333    0.5000
  band No.  band energies     occupation 
      1     -10.5478      2.00000
      2     -10.5478      2.00000
      3      -9.8584      2.00000
      4      -9.8584      2.00000
      5      -5.2913      2.00000
      6      -5.2913      2.00000
      7      -4.2404      2.00000
      8      -4.2404      2.00000
      9      -1.0150      2.00000
     10      -1.0150      2.00000
     11      -0.3113      2.00000
     12      -0.3113      2.00000
     13       0.1349      2.00000
     14       0.1349      2.00000
     15       1.1083      2.00000
     16       1.1083      2.00000
     17       1.7539      2.00000
     18       1.7539      2.00000
     19       2.4056      2.00000
     20       2.4056      2.00000
     21       4.8025      0.00000
     22       4.8025      0.00000
     23       5.3263      0.00000
     24       5.3263      0.00000
     25       5.9358      0.00000
     26       5.9358      0.00000
     27       6.5424      0.00000
     28       6.5424      0.00000
     29       7.4738      0.00000
     30       7.4738      0.00000
     31       7.9493      0.00000
     32       7.9493      0.00000

 k-point    34 :       0.3333    0.3333    0.5000
  band No.  band energies     occupation 
      1     -10.1479      2.00000
      2     -10.1479      2.00000
      3      -9.6735      2.00000
      4      -9.6735      2.00000
      5      -5.2346      2.00000
      6      -5.2346      2.00000
      7      -4.4646      2.00000
      8      -4.4646      2.00000
      9      -1.7783      2.00000
     10      -1.7783      2.00000
     11      -0.8643      2.00000
     12      -0.8643      2.00000
     13      -0.2278      2.00000
     14      -0.2278      2.00000
     15       0.5289      2.00000
     16       0.5289      2.00000
     17       0.9955      2.00000
     18       0.9955      2.00000
     19       1.8445      2.00000
     20       1.8445      2.00000
     21       5.1558      0.00000
     22       5.1558      0.00000
     23       5.8574      0.00000
     24       5.8574      0.00000
     25       6.6933      0.00000
     26       6.6933      0.00000
     27       7.0424      0.00000
     28       7.0424      0.00000
     29       7.6969      0.00000
     30       7.6969      0.00000
     31       8.9150      0.00000
     32       8.9151      0.00000

 k-point    35 :       0.3333   -0.3333    0.5000
  band No.  band energies     occupation 
      1     -10.1501      2.00000
      2     -10.1501      2.00000
      3      -9.6703      2.00000
      4      -9.6703      2.00000
      5      -5.2589      2.00000
      6      -5.2589      2.00000
      7      -4.4330      2.00000
      8      -4.4330      2.00000
      9      -1.7745      2.00000
     10      -1.7745      2.00000
     11      -0.9097      2.00000
     12      -0.9097      2.00000
     13      -0.2123      2.00000
     14      -0.2123      2.00000
     15       0.5374      2.00000
     16       0.5374      2.00000
     17       1.0195      2.00000
     18       1.0195      2.00000
     19       1.8531      2.00000
     20       1.8531      2.00000
     21       5.0241      0.00000
     22       5.0241      0.00000
     23       5.8320      0.00000
     24       5.8320      0.00000
     25       6.6648      0.00000
     26       6.6648      0.00000
     27       7.4681      0.00000
     28       7.4681      0.00000
     29       7.6887      0.00000
     30       7.6887      0.00000
     31       8.6378      0.00000
     32       8.6378      0.00000

 k-point    36 :       0.5000    0.3333    0.5000
  band No.  band energies     occupation 
      1      -9.8246      2.00000
      2      -9.8246      2.00000
      3      -9.6627      2.00000
      4      -9.6627      2.00000
      5      -5.2636      2.00000
      6      -5.2636      2.00000
      7      -4.7374      2.00000
      8      -4.7374      2.00000
      9      -1.4817      2.00000
     10      -1.4817      2.00000
     11      -1.2967      2.00000
     12      -1.2967      2.00000
     13      -0.4044      2.00000
     14      -0.4044      2.00000
     15      -0.1965      2.00000
     16      -0.1965      2.00000
     17       1.1153      2.00000
     18       1.1153      2.00000
     19       1.4442      2.00000
     20       1.4442      2.00000
     21       5.3474      0.00000
     22       5.3474      0.00000
     23       6.2390      0.00000
     24       6.2390      0.00000
     25       6.5339      0.00000
     26       6.5339      0.00000
     27       7.2194      0.00000
     28       7.2194      0.00000
     29       8.1382      0.00000
     30       8.1382      0.00000
     31       8.4202      0.00000
     32       8.4202      0.00000

 k-point    37 :       0.0000    0.5000    0.5000
  band No.  band energies     occupation 
      1     -10.3674      2.00000
      2     -10.3674      2.00000
      3     -10.2304      2.00000
      4     -10.2304      2.00000
      5      -5.3488      2.00000
      6      -5.3488      2.00000
      7      -4.7500      2.00000
      8      -4.7500      2.00000
      9       0.1469      2.00000
     10       0.1469      2.00000
     11       0.2159      2.00000
     12       0.2159      2.00000
     13       0.9671      2.00000
     14       0.9671      2.00000
     15       1.0101      2.00000
     16       1.0101      2.00000
     17       2.1457      2.00000
     18       2.1457      2.00000
     19       2.7391      2.00000
     20       2.7391      2.00000
     21       4.3652      0.00000
     22       4.3652      0.00000
     23       4.5635      0.00000
     24       4.5635      0.00000
     25       5.6456      0.00000
     26       5.6456      0.00000
     27       5.9615      0.00000
     28       5.9615      0.00000
     29       6.3117      0.00000
     30       6.3117      0.00000
     31       7.5793      0.00000
     32       7.5793      0.00000

 k-point    38 :       0.1667    0.5000    0.5000
  band No.  band energies     occupation 
      1     -10.2391      2.00000
      2     -10.2391      2.00000
      3     -10.0989      2.00000
      4     -10.0989      2.00000
      5      -5.2572      2.00000
      6      -5.2572      2.00000
      7      -4.6558      2.00000
      8      -4.6558      2.00000
      9      -0.5733      2.00000
     10      -0.5733      2.00000
     11      -0.4178      2.00000
     12      -0.4178      2.00000
     13       0.3670      2.00000
     14       0.3670      2.00000
     15       0.4541      2.00000
     16       0.4541      2.00000
     17       1.8782      2.00000
     18       1.8782      2.00000
     19       2.4162      2.00000
     20       2.4162      2.00000
     21       5.1502      0.00000
     22       5.1502      0.00000
     23       5.2686      0.00000
     24       5.2686      0.00000
     25       6.0090      0.00000
     26       6.0090      0.00000
     27       6.8599      0.00000
     28       6.8599      0.00000
     29       7.0653      0.00000
     30       7.0653      0.00000
     31       7.6547      0.00000
     32       7.6547      0.00000

 k-point    39 :       0.3333    0.5000    0.5000
  band No.  band energies     occupation 
      1      -9.9482      2.00000
      2      -9.9482      2.00000
      3      -9.7992      2.00000
      4      -9.7992      2.00000
      5      -5.1382      2.00000
      6      -5.1382      2.00000
      7      -4.5756      2.00000
      8      -4.5756      2.00000
      9      -1.6074      2.00000
     10      -1.6074      2.00000
     11      -1.5626      2.00000
     12      -1.5626      2.00000
     13       0.0410      2.00000
     14       0.0410      2.00000
     15       0.0563      2.00000
     16       0.0563      2.00000
     17       1.0794      2.00000
     18       1.0794      2.00000
     19       1.4766      2.00000
     20       1.4766      2.00000
     21       5.4836      0.00000
     22       5.4836      0.00000
     23       6.5900      0.00000
     24       6.5900      0.00000
     25       6.9889      0.00000
     26       6.9889      0.00000
     27       7.4142      0.00000
     28       7.4142      0.00000
     29       8.4406      0.00000
     30       8.4406      0.00000
     31       8.6472      0.00000
     32       8.6472      0.00000

 k-point    40 :       0.5000    0.5000    0.5000
  band No.  band energies     occupation 
      1      -9.7795      2.00000
      2      -9.7795      2.00000
      3      -9.6246      2.00000
      4      -9.6246      2.00000
      5      -5.1546      2.00000
      6      -5.1546      2.00000
      7      -4.6598      2.00000
      8      -4.6598      2.00000
      9      -1.7123      2.00000
     10      -1.7123      2.00000
     11      -1.6035      2.00000
     12      -1.6035      2.00000
     13      -0.6856      2.00000
     14      -0.6856      2.00000
     15      -0.6487      2.00000
     16      -0.6487      2.00000
     17       1.1444      2.00000
     18       1.1444      2.00000
     19       1.4219      2.00000
     20       1.4219      2.00000
     21       5.4127      0.00000
     22       5.4127      0.00000
     23       6.3918      0.00000
     24       6.3918      0.00000
     25       7.4398      0.00000
     26       7.4398      0.00000
     27       7.8385      0.00000
     28       7.8385      0.00000
     29       8.6902      0.00000
     30       8.6902      0.00000
     31       9.1625      0.00000
     32       9.1625      0.00000


--------------------------------------------------------------------------------------------------------


 soft charge-density along one line, spin component            1
         0         1         2         3         4         5         6         7         8         9
 total charge-density along one line
 
 pseudopotential strength for first ion, spin component:            1
 14.614  18.235   0.040   0.041   0.001   0.073   0.073   0.002
 18.235  22.770   0.051   0.051   0.001   0.092   0.093   0.002
  0.040   0.051   3.241  -0.002  -0.000   5.518  -0.004  -0.000
  0.041   0.051  -0.002   3.238   0.000  -0.004   5.514   0.000
  0.001   0.001  -0.000   0.000   3.242  -0.000   0.000   5.521
  0.073   0.092   5.518  -0.004  -0.000   9.454  -0.007  -0.000
  0.073   0.093  -0.004   5.514   0.000  -0.007   9.446   0.000
  0.002   0.002  -0.000   0.000   5.521  -0.000   0.000   9.459
 -0.000  -0.000   0.000  -0.000   0.006   0.001  -0.000   0.012
 -0.005  -0.006   0.010   0.013  -0.000   0.019   0.023  -0.000
 -0.004  -0.005  -0.003   0.011  -0.000  -0.006   0.019  -0.001
  0.000   0.000  -0.000   0.000   0.010  -0.000   0.000   0.019
  0.002   0.002  -0.012   0.000   0.000  -0.022   0.000   0.001
 total augmentation occupancy for first ion, spin component:            1
  2.766  -0.727   0.334   0.313   0.011  -0.062  -0.058  -0.002  -0.002  -0.011   0.005  -0.005   0.009
 -0.727   0.678  -0.428  -0.422  -0.013   0.067   0.067   0.002   0.002   0.008  -0.003   0.005  -0.004
  0.334  -0.428   1.240   0.053   0.000  -0.202   0.002   0.000   0.001   0.039  -0.099   0.000   0.001
  0.313  -0.422   0.053   1.374  -0.011   0.002  -0.224   0.003   0.003  -0.021   0.088   0.006  -0.004
  0.011  -0.013   0.000  -0.011   1.243   0.000   0.003  -0.214   0.145   0.000   0.003   0.034   0.000
 -0.062   0.067  -0.202   0.002   0.000   0.037  -0.002  -0.000  -0.000  -0.007   0.017  -0.000   0.000
 -0.058   0.067   0.002  -0.224   0.003  -0.002   0.041  -0.001  -0.000   0.004  -0.016  -0.001   0.001
 -0.002   0.002   0.000   0.003  -0.214  -0.000  -0.001   0.041  -0.025  -0.000  -0.001  -0.006  -0.000
 -0.002   0.002   0.001   0.003   0.145  -0.000  -0.000  -0.025   0.030   0.000  -0.001   0.002   0.000
 -0.011   0.008   0.039  -0.021   0.000  -0.007   0.004  -0.000   0.000   0.010  -0.006   0.000   0.001
  0.005  -0.003  -0.099   0.088   0.003   0.017  -0.016  -0.001  -0.001  -0.006   0.033  -0.001  -0.002
 -0.005   0.005   0.000   0.006   0.034  -0.000  -0.001  -0.006   0.002   0.000  -0.001   0.009  -0.000
  0.009  -0.004   0.001  -0.004   0.000   0.000   0.001  -0.000   0.000   0.001  -0.002  -0.000   0.008


------------------------ aborting loop because EDIFF is reached ----------------------------------------


    CHARGE:  cpu time      0.0054: real time      0.0054
    FORLOC:  cpu time      0.0002: real time      0.0002
    FORNL :  cpu time      0.0256: real time      0.0258
    STRESS:  cpu time      0.2815: real time      0.2828
    FORCOR:  cpu time      0.0070: real time      0.0070
    FORHAR:  cpu time      0.0017: real time      0.0017
    MIXING:  cpu time      0.0006: real time      0.0006
    OFIELD:  cpu time      0.0000: real time      0.0000

  FORCE on cell =-STRESS in cart. coord.  units (eV):
  Direction    XX          YY          ZZ          XY          YZ          ZX
  --------------------------------------------------------------------------------------
  Alpha Z    83.74936    83.74936    83.74936
  Ewald    -412.41688  -452.85133  -517.68253     1.19851    -0.00001     0.00000
  Hartree    77.61066    61.51623    17.10993     0.89116    -0.00000    -0.00000
  E(xc)    -141.04449  -141.04757  -141.45633     0.00036    -0.00000    -0.00000
  Local    -225.94555  -175.22330   -70.82359    -2.40481     0.00001     0.00000
  n-local   240.46021   239.98495   242.09084     0.05482    -0.00000     0.00000
  augment   -11.36485   -11.74710   -12.20891    -0.01884    -0.00000     0.00000
  Kinetic   389.11066   395.23603   401.43326     0.19268    -0.00000    -0.00000
  Fock        0.00000     0.00000     0.00000     0.00000     0.00000     0.00000
  -------------------------------------------------------------------------------------
  Total       0.15911    -0.38273     2.21202    -0.08611    -0.00000    -0.00000
  in kB       1.25999    -3.03078    17.51673    -0.68194    -0.00001    -0.00001
  external pressure =        5.25 kB  Pullay stress =        0.00 kB


 VOLUME and BASIS-vectors are now :
 -----------------------------------------------------------------------------
  energy-cutoff  :      360.00
  volume of cell :      202.32
      direct lattice vectors                 reciprocal lattice vectors
     3.858100176  0.000000000  0.000000000     0.259194929  0.000000000  0.000000000
     0.000000000  4.526575088  0.000000000     0.000000000  0.220917577  0.000000000
     0.000000000  0.000000000 11.585176468     0.000000000  0.000000000  0.086317200

  length of vectors
     3.858100176  4.526575088 11.585176468     0.259194929  0.220917577  0.086317200


 FORCES acting on ions
    electron-ion (+dipol)            ewald-force                    non-local-force                 convergence-correction
 -----------------------------------------------------------------------------------------------
   0.405E+00 0.140E+02 0.314E+02   -.461E+00 -.165E+02 -.340E+02   0.703E-01 0.253E+01 0.267E+01   -.108E-04 0.106E-04 0.191E-03
   0.405E+00 0.140E+02 -.314E+02   -.461E+00 -.165E+02 0.340E+02   0.703E-01 0.253E+01 -.267E+01   -.107E-04 0.110E-04 -.190E-03
   -.405E+00 -.140E+02 -.314E+02   0.461E+00 0.165E+02 0.340E+02   -.703E-01 -.253E+01 -.267E+01   0.109E-04 -.109E-04 -.190E-03
   -.405E+00 -.140E+02 0.314E+02   0.461E+00 0.165E+02 -.340E+02   -.703E-01 -.253E+01 0.267E+01   0.107E-04 -.105E-04 0.190E-03
   0.527E+00 -.148E+02 -.357E+02   -.491E+00 0.163E+02 0.375E+02   -.730E-01 -.159E+01 -.174E+01   0.124E-05 0.738E-05 -.332E-03
   0.527E+00 -.148E+02 0.357E+02   -.491E+00 0.163E+02 -.375E+02   -.730E-01 -.159E+01 0.174E+01   0.142E-05 0.727E-05 0.332E-03
   -.527E+00 0.148E+02 0.357E+02   0.491E+00 -.163E+02 -.375E+02   0.730E-01 0.159E+01 0.174E+01   -.107E-05 -.724E-05 0.331E-03
   -.527E+00 0.148E+02 -.357E+02   0.491E+00 -.163E+02 0.375E+02   0.730E-01 0.159E+01 -.174E+01   -.166E-05 -.712E-05 -.332E-03
 -----------------------------------------------------------------------------------------------
   0.474E-05 0.168E-04 0.591E-06   0.500E-14 -.355E-14 -.355E-13   -.108E-04 0.475E-03 -.216E-06   -.274E-07 0.448E-06 -.138E-05
 
 
 POSITION                                       TOTAL-FORCE (eV/Angst)
 -----------------------------------------------------------------------------------
      2.36239      4.43741      1.52892         0.014288      0.017273      0.086705
      0.43334      2.17412      4.26367         0.014289      0.017273     -0.086706
      2.89357      4.09092     10.05626        -0.014335     -0.017270     -0.086702
      0.96452      1.82763      7.32150        -0.014335     -0.017269      0.086702
      2.36239      3.90880      4.06767        -0.037113     -0.081615      0.094534
      0.43334      1.64552      1.72492        -0.037113     -0.081615     -0.094532
      2.89357      0.09295      7.51751         0.037160      0.081610     -0.094146
      0.96452      2.35624      9.86026         0.037159      0.081610      0.094146
 -----------------------------------------------------------------------------------
    total drift:                               -0.000006      0.000493     -0.000001


--------------------------------------------------------------------------------------------------------



  FREE ENERGIE OF THE ION-ELECTRON SYSTEM (eV)
  ---------------------------------------------------
  free  energy   TOTEN  =       -33.70154060 eV

  energy  without entropy=      -33.70101328  energy(sigma->0) =      -33.70127694
 


--------------------------------------------------------------------------------------------------------


    POTLOK:  cpu time      0.2226: real time      0.2233


--------------------------------------------------------------------------------------------------------


     LOOP+:  cpu time      8.1943: real time      8.2349
    4ORBIT:  cpu time      0.0000: real time      0.0000

 total amount of memory used by VASP MPI-rank0    37119. kBytes
=======================================================================

   base      :      30000. kBytes
   nonl-proj :       5406. kBytes
   fftplans  :        334. kBytes
   grid      :        503. kBytes
   one-center:         16. kBytes
   wavefun   :        860. kBytes
 
  
  
 General timing and accounting informations for this job:
 ========================================================
  
                  Total CPU time used (sec):        9.820
                            User time (sec):        9.581
                          System time (sec):        0.239
                         Elapsed time (sec):       10.151
  
                   Maximum memory used (kb):      175092.
                   Average memory used (kb):          N/A
  
                          Minor page faults:        16859
                          Major page faults:           75
                 Voluntary context switches:         1806
