 running  128 mpi-ranks, with    1 threads/rank, on    2 nodes
 distrk:  each k-point on   64 cores,    2 groups
 distr:  one band on    8 cores,    8 groups
 vasp.6.4.2 20Jul23 (build Oct 12 2023 10:31:02) complex                         
 POSCAR found type information on POSCAR GeSe
 POSCAR found :  2 types and      72 ions
 Reading from existing POTCAR
 -----------------------------------------------------------------------------
|                                                                             |
|           W    W    AA    RRRRR   N    N  II  N    N   GGGG   !!!           |
|           W    W   A  A   R    R  NN   N  II  NN   N  G    G  !!!           |
|           W    W  A    A  R    R  N N  N  II  N N  N  G       !!!           |
|           W WW W  AAAAAA  RRRRR   N  N N  II  N  N N  G  GGG   !            |
|           WW  WW  A    A  R   R   N   NN  II  N   NN  G    G                |
|           W    W  A    A  R    R  N    N  II  N    N   GGGG   !!!           |
|                                                                             |
|     You use a magnetic or noncollinear calculation, but did not specify     |
|     the initial magnetic moment with the MAGMOM tag. Note that a            |
|     default of 1 will be used for all atoms. This ferromagnetic setup       |
|     may break the symmetry of the crystal, in particular it may rule        |
|     out finding an antiferromagnetic solution. Thence, we recommend         |
|     setting the initial magnetic moment manually or verifying carefully     |
|     that this magnetic setup is desired.                                    |
|                                                                             |
 -----------------------------------------------------------------------------

 scaLAPACK will be used
 Reading from existing POTCAR
 -----------------------------------------------------------------------------
|                                                                             |
|               ----> ADVICE to this user running VASP <----                  |
|                                                                             |
|     You have a (more or less) 'large supercell' and for larger cells it     |
|     might be more efficient to use real-space projection operators.         |
|     Therefore, try LREAL= Auto in the INCAR file.                           |
|     Mind: For very accurate calculation, you might also keep the            |
|     reciprocal projection scheme (i.e. LREAL=.FALSE.).                      |
|                                                                             |
 -----------------------------------------------------------------------------

 LDA part: xc-table for Pade appr. of Perdew
 -----------------------------------------------------------------------------
|                                                                             |
|           W    W    AA    RRRRR   N    N  II  N    N   GGGG   !!!           |
|           W    W   A  A   R    R  NN   N  II  NN   N  G    G  !!!           |
|           W    W  A    A  R    R  N N  N  II  N N  N  G       !!!           |
|           W WW W  AAAAAA  RRRRR   N  N N  II  N  N N  G  GGG   !            |
|           WW  WW  A    A  R   R   N   NN  II  N   NN  G    G                |
|           W    W  A    A  R    R  N    N  II  N    N   GGGG   !!!           |
|                                                                             |
|     The number of bands has been changed from the values supplied in        |
|     the INCAR file. This is a result of running the parallel version.       |
|     The orbitals not found in the WAVECAR file will be initialized with     |
|     random numbers, which is usually adequate. For correlated               |
|     calculations, however, you should redo the groundstate calculation.     |
|     I found NBANDS = 220. Now, NBANDS = 224.                                |
|                                                                             |
 -----------------------------------------------------------------------------

 POSCAR, INCAR and KPOINTS ok, starting setup
 FFT: planning ... GRIDC
 FFT: planning ... GRID_SOFT
 FFT: planning ... GRID
 WAVECAR not read
 WARNING: random wavefunctions but no delay for mixing, default for NELMDL
 entering main loop
       N       E                     dE             d eps       ncg     rms          rms(c)
DAV:   1     0.180964441347E+04    0.18096E+04   -0.14200E+05  7168   0.135E+03
DAV:   2    -0.643199514399E+02   -0.18740E+04   -0.17993E+04  8448   0.204E+02
DAV:   3    -0.281448847457E+03   -0.21713E+03   -0.21119E+03  8592   0.689E+01
DAV:   4    -0.289347155530E+03   -0.78983E+01   -0.78044E+01  8760   0.130E+01
DAV:   5    -0.289637780618E+03   -0.29063E+00   -0.28984E+00  9032   0.211E+00    0.292E+01
DAV:   6    -0.289106249260E+03    0.53153E+00   -0.26956E+01  7976   0.765E+00    0.173E+01
DAV:   7    -0.296525547297E+03   -0.74193E+01   -0.86516E+00  8056   0.445E+00    0.907E+00
DAV:   8    -0.299745399266E+03   -0.32199E+01   -0.17476E+00  8104   0.226E+00    0.331E+00
DAV:   9    -0.300121763764E+03   -0.37636E+00   -0.42781E-01  9128   0.101E+00    0.147E+00
DAV:  10    -0.300224223896E+03   -0.10246E+00   -0.95000E-02  8136   0.465E-01    0.727E-01
DAV:  11    -0.300254636772E+03   -0.30413E-01   -0.35614E-02  8936   0.277E-01    0.284E-01
DAV:  12    -0.300257829603E+03   -0.31928E-02   -0.42933E-03  8560   0.115E-01    0.109E-01
DAV:  13    -0.300257946063E+03   -0.11646E-03   -0.62209E-04  9752   0.381E-02    0.457E-02
DAV:  14    -0.300257962326E+03   -0.16263E-04   -0.83894E-05  8336   0.183E-02    0.172E-02
DAV:  15    -0.300257965720E+03   -0.33944E-05   -0.17288E-05  8688   0.844E-03    0.743E-03
DAV:  16    -0.300257966292E+03   -0.57165E-06   -0.14199E-06  4872   0.277E-03
   1 F= -.30025797E+03 E0= -.30025797E+03  d E =-.118909E-12  mag=     0.0005
