 running  160 mpi-ranks, with    1 threads/rank, on   10 nodes
 distrk:  each k-point on   80 cores,    2 groups
 distr:  one band on    5 cores,   16 groups
 vasp.6.4.2 20Jul23 (build Oct 12 2023 10:31:02) complex                         
 POSCAR found type information on POSCAR GeSe
 POSCAR found :  2 types and       8 ions
 Reading from existing POTCAR
 scaLAPACK will be used
 Reading from existing POTCAR
 LDA part: xc-table for Pade appr. of Perdew
 POSCAR, INCAR and KPOINTS ok, starting setup
 FFT: planning ... GRIDC
 FFT: planning ... GRID_SOFT
 FFT: planning ... GRID
 WAVECAR not read
 entering main loop
       N       E                     dE             d eps       ncg     rms          rms(c)
DAV:   1     0.130610021646E+03    0.13061E+03   -0.13008E+04  2560   0.779E+02
DAV:   2    -0.250869947264E+02   -0.15570E+03   -0.15136E+03  3664   0.141E+02
DAV:   3    -0.334402882107E+02   -0.83533E+01   -0.83358E+01  3328   0.374E+01
DAV:   4    -0.334940142831E+02   -0.53726E-01   -0.53719E-01  3312   0.343E+00
DAV:   5    -0.334943301647E+02   -0.31588E-03   -0.31588E-03  3408   0.257E-01    0.676E+00
DAV:   6    -0.331636655213E+02    0.33066E+00   -0.63675E-01  3312   0.271E+00    0.426E+00
DAV:   7    -0.331417488952E+02    0.21917E-01   -0.21114E-01  2848   0.168E+00    0.116E+00
DAV:   8    -0.331403924529E+02    0.13564E-02   -0.17450E-02  3088   0.520E-01    0.182E-01
DAV:   9    -0.331406720288E+02   -0.27958E-03   -0.28684E-03  3216   0.235E-01    0.643E-02
DAV:  10    -0.331407431224E+02   -0.71094E-04   -0.21631E-04  3504   0.601E-02    0.235E-02
DAV:  11    -0.331407699651E+02   -0.26843E-04   -0.36797E-05  2768   0.276E-02    0.117E-02
DAV:  12    -0.331407710438E+02   -0.10786E-05   -0.49077E-06  3632   0.102E-02    0.332E-03
DAV:  13    -0.331407711228E+02   -0.79048E-07   -0.80628E-07  1616   0.428E-03
   1 F= -.33140771E+02 E0= -.33140771E+02  d E =-.308597E-11
