 vasp.6.4.1 05Apr23 (build May 18 2023 13:19:41) complex                         
 executed on    LinuxNV_CrayMPICH date 2023.12.18  07:23:44
 running  256 mpi-ranks, with    1 threads/rank, on   14 nodes
 distrk:  each k-point on  128 cores,    2 groups
 distr:  one band on NCORE=   4 cores,   32 groups


--------------------------------------------------------------------------------------------------------


 INCAR:
   AMIX = 0.200000
   BMIX = 0.000100
   SIGMA = 0.010000
   EDIFF = 1.00e-06
   EDIFFG = -1.00e-02
   ALGO = N
   GGA = PE
   PREC = Normal
   SYSTEM = 01_AOPT
   IBRION = 1
   ICHARG = 1
   ISIF = 2
   ISMEAR = 0
   ISPIN = 1
   ISTART = 1
   KPAR = 2
   NBANDS = 896
   NPAR = 32
   NSW = 400
   IVDW = 11
   LCHARG = .TRUE.
   LWAVE = .FALSE.
   LREAL = .FALSE.

 POTCAR:    PAW_PBE S 17Jan2003                   
 POTCAR:   PAW_PBE O 08Apr2002                    
 POTCAR:    PAW_PBE S 17Jan2003                   
   VRHFIN =S : s2p4                                                                                 
   LEXCH  = PE                                                                                      
   EATOM  =   276.8230 eV,   20.3459 Ry                                                             
                                                                                                    
   TITEL  = PAW_PBE S 17Jan2003                                                                     
   LULTRA =        F    use ultrasoft PP ?                                                          
   IUNSCR =        1    unscreen: 0-lin 1-nonlin 2-no                                               
   RPACOR =    1.500    partial core radius                                                         
   POMASS =   32.066; ZVAL   =    6.000    mass and valenz                                          
   RCORE  =    1.900    outmost cutoff radius                                                       
   RWIGS  =    2.200; RWIGS  =    1.164    wigner-seitz radius (au A)                               
   ENMAX  =  280.000; ENMIN  =  194.016 eV                                                          
   ICORE  =        2    local potential                                                             
   LCOR   =        T    correct aug charges                                                         
   LPAW   =        T    paw PP                                                                      
   EAUG   =  335.092                                                                                
   DEXC   =     .000                                                                                
   RMAX   =    2.867    core radius for proj-oper                                                   
   RAUG   =    1.300    factor for augmentation sphere                                              
   RDEP   =    1.954    radius for radial grids                                                     
   QCUT   =   -4.360; QGAM   =    8.721    optimization parameters                                  
                                                                                                    
   Description                                                                                      
     l     E      TYP  RCUT    TYP  RCUT                                                            
     0   .000     23  1.900                                                                         
     0   .000     23  1.900                                                                         
     1   .000     23  1.900                                                                         
     1   .000     23  1.900                                                                         
     2   .000     23  1.900                                                                         
  local pseudopotential read in
  partial core-charges read in
  atomic valenz-charges read in
  non local Contribution for L=            0  read in
    real space projection operators read in
  non local Contribution for L=            0  read in
    real space projection operators read in
  non local Contribution for L=            1  read in
    real space projection operators read in
  non local Contribution for L=            1  read in
    real space projection operators read in
    PAW grid and wavefunctions read in
 
   number of l-projection  operators is LMAX  =            4
   number of lm-projection operators is LMMAX =            8
 
 POTCAR:   PAW_PBE O 08Apr2002                    
   VRHFIN =O: s2p4                                                                                  
   LEXCH  = PE                                                                                      
   EATOM  =   432.3788 eV,   31.7789 Ry                                                             
                                                                                                    
   TITEL  = PAW_PBE O 08Apr2002                                                                     
   LULTRA =        F    use ultrasoft PP ?                                                          
   IUNSCR =        0    unscreen: 0-lin 1-nonlin 2-no                                               
   RPACOR =     .000    partial core radius                                                         
   POMASS =   16.000; ZVAL   =    6.000    mass and valenz                                          
   RCORE  =    1.520    outmost cutoff radius                                                       
   RWIGS  =    1.550; RWIGS  =     .820    wigner-seitz radius (au A)                               
   ENMAX  =  400.000; ENMIN  =  300.000 eV                                                          
   ICORE  =        2    local potential                                                             
   LCOR   =        T    correct aug charges                                                         
   LPAW   =        T    paw PP                                                                      
   EAUG   =  605.392                                                                                
   DEXC   =     .000                                                                                
   RMAX   =    2.264    core radius for proj-oper                                                   
   RAUG   =    1.300    factor for augmentation sphere                                              
   RDEP   =    1.550    radius for radial grids                                                     
   QCUT   =   -5.520; QGAM   =   11.041    optimization parameters                                  
                                                                                                    
   Description                                                                                      
     l     E      TYP  RCUT    TYP  RCUT                                                            
     0   .000     23  1.200                                                                         
     0  -.700     23  1.200                                                                         
     1   .000     23  1.520                                                                         
     1   .600     23  1.520                                                                         
     2   .000      7  1.500                                                                         
  local pseudopotential read in
  atomic valenz-charges read in
  non local Contribution for L=            0  read in
    real space projection operators read in
  non local Contribution for L=            0  read in
    real space projection operators read in
  non local Contribution for L=            1  read in
    real space projection operators read in
  non local Contribution for L=            1  read in
    real space projection operators read in
    PAW grid and wavefunctions read in
 
   number of l-projection  operators is LMAX  =            4
   number of lm-projection operators is LMMAX =            8
 
  PAW_PBE S 17Jan2003                   :
 energy of atom  1       EATOM= -276.8230
 kinetic energy error for atom=    0.0046 (will be added to EATOM!!)
 PAW_PBE O 08Apr2002                    :
 energy of atom  2       EATOM= -432.3788
 kinetic energy error for atom=    0.1156 (will be added to EATOM!!)
 
 
 POSCAR:  S  O
  positions in cartesian coordinates
  No initial velocities read in
 exchange correlation table for  LEXCH =        8
   RHO(1)=    0.500       N(1)  =     2000
   RHO(2)=  100.500       N(2)  =     4000
 


--------------------------------------------------------------------------------------------------------


 ion  position               nearest neighbor table
   1  0.441  0.452  0.490-   2 1.51
   2  0.425  0.381  0.491-   1 1.51
 
  LATTYP: Found a simple orthorhombic cell.
 ALAT       =    19.9214134216
 B/A-ratio  =     1.6250001197
 C/A-ratio  =     2.0303804144
  
  Lattice vectors:
  
 A1 = (   0.0000000000, -19.9214134216,   0.0000000000)
 A2 = (  32.3722991943,   0.0000000000,   0.0000000000)
 A3 = (   0.0000000000,   0.0000000000,  40.4480476379)


Analysis of symmetry for initial positions (statically):
=====================================================================
 Subroutine PRICEL returns:
 Original cell was already a primitive cell.
 

 Routine SETGRP: Setting up the symmetry group for a 
 simple orthorhombic supercell.


 Subroutine GETGRP returns: Found  1 space group operations
 (whereof  1 operations were pure point group operations)
 out of a pool of  8 trial point group operations.


The static configuration has the point symmetry C_1 .


Analysis of symmetry for dynamics (positions and initial velocities):
=====================================================================
 Subroutine PRICEL returns:
 Original cell was already a primitive cell.
 

 Routine SETGRP: Setting up the symmetry group for a 
 simple orthorhombic supercell.


 Subroutine GETGRP returns: Found  1 space group operations
 (whereof  1 operations were pure point group operations)
 out of a pool of  8 trial point group operations.


The dynamic configuration has the point symmetry C_1 .


 Subroutine INISYM returns: Found  1 space group operations
 (whereof  1 operations are pure point group operations),
 and found     1 'primitive' translations


----------------------------------------------------------------------------------------

                                     Primitive cell                                     

  volume of cell :   26085.0250

  direct lattice vectors                    reciprocal lattice vectors
    32.372299194  0.000000000  0.000000000     0.030890608  0.000000000  0.000000000
     0.000000000 19.921413422  0.000000000     0.000000000  0.050197241  0.000000000
     0.000000000  0.000000000 40.448047638     0.000000000  0.000000000  0.024723072

  length of vectors
    32.372299194 19.921413422 40.448047638     0.030890608  0.050197241  0.024723072

  position of ions in fractional coordinates (direct lattice)
     0.440631995  0.451500006  0.489650024
     0.424632026  0.380549996  0.491469991

  ion indices of the primitive-cell ions
   primitive index   ion index
                 1           1
                 2           2

----------------------------------------------------------------------------------------

 
 
 KPOINTS: KPOINTS created by Atomic Simulation Env

Automatic generation of k-mesh.
 Grid dimensions read from file:
 generate k-points for:    1    1    2

 Generating k-lattice:

  Cartesian coordinates                     Fractional coordinates (reciprocal lattice)
     0.030890608  0.000000000  0.000000000     1.000000000  0.000000000  0.000000000
     0.000000000  0.050197241  0.000000000     0.000000000  1.000000000  0.000000000
     0.000000000  0.000000000  0.012361536     0.000000000  0.000000000  0.500000000

  Length of vectors
     0.030890608  0.050197241  0.012361536

  Shift w.r.t. Gamma in fractional coordinates (k-lattice)
     0.000000000  0.000000000  0.000000000

 
 Subroutine IBZKPT returns following result:
 ===========================================
 
 Found      2 irreducible k-points:
 
 Following reciprocal coordinates:
            Coordinates               Weight
  0.000000  0.000000  0.000000      1.000000
  0.000000  0.000000  0.500000      1.000000
 
 Following cartesian coordinates:
            Coordinates               Weight
  0.000000  0.000000  0.000000      1.000000
  0.000000  0.000000  0.012362      1.000000
 


--------------------------------------------------------------------------------------------------------




 Dimension of arrays:
   k-points           NKPTS =      2   k-points in BZ     NKDIM =      2   number of bands    NBANDS=    896
   number of dos      NEDOS =    301   number of ions     NIONS =      2
   non local maximal  LDIM  =      4   non local SUM 2l+1 LMDIM =      8
   total plane-waves  NPLWV = ******
   max r-space proj   IRMAX =      1   max aug-charges    IRDMAX=   3987
   dimension x,y,z NGX =   160 NGY =   98 NGZ =  200
   dimension x,y,z NGXF=   320 NGYF=  196 NGZF=  400
   support grid    NGXF=   320 NGYF=  196 NGZF=  400
   ions per type =               1   1
   NGX,Y,Z   is equivalent  to a cutoff of   8.22,  8.18,  8.22 a.u.
   NGXF,Y,Z  is equivalent  to a cutoff of  16.43, 16.36, 16.44 a.u.

 SYSTEM =  01_AOPT                                 
 POSCAR =   S  O                                   

 Startparameter for this run:
   NWRITE =      2    write-flag & timer
   PREC   = normal    normal or accurate (medium, high low for compatibility)
   ISTART =      0    job   : 0-new  1-cont  2-samecut
   ICHARG =      1    charge: 1-file 2-atom 10-const
   ISPIN  =      1    spin polarized calculation?
   LNONCOLLINEAR =      F non collinear calculations
   LSORBIT =      F    spin-orbit coupling
   INIWAV =      1    electr: 0-lowe 1-rand  2-diag
   LASPH  =      F    aspherical Exc in radial PAW
 Electronic Relaxation 1
   ENCUT  =  400.0 eV  29.40 Ry    5.42 a.u.  52.79 32.49 65.96*2*pi/ulx,y,z
   ENINI  =  400.0     initial cutoff
   ENAUG  =  605.4 eV  augmentation charge cutoff
   NELM   =     60;   NELMIN=  2; NELMDL=  0     # of ELM steps 
   EDIFF  = 0.1E-05   stopping-criterion for ELM
   LREAL  =      F    real-space projection
   NLSPLINE    = F    spline interpolate recip. space projectors
   LCOMPAT=      F    compatible to vasp.4.4
   GGA_COMPAT  = T    GGA compatible to vasp.4.4-vasp.4.6
   LMAXPAW     = -100 max onsite density
   LMAXMIX     =    2 max onsite mixed and CHGCAR
   VOSKOWN=      0    Vosko Wilk Nusair interpolation
   ROPT   =    0.00000   0.00000
 Ionic relaxation
   EDIFFG = -.1E-01   stopping-criterion for IOM
   NSW    =    400    number of steps for IOM
   NBLOCK =      1;   KBLOCK =    400    inner block; outer block 
   IBRION =      1    ionic relax: 0-MD 1-quasi-New 2-CG
   NFREE  =      0    steps in history (QN), initial steepest desc. (CG)
   ISIF   =      2    stress and relaxation
   IWAVPR =     11    prediction:  0-non 1-charg 2-wave 3-comb
   ISYM   =      2    0-nonsym 1-usesym 2-fastsym
   LCORR  =      T    Harris-Foulkes like correction to forces

   POTIM  = 0.5000    time-step for ionic-motion
   TEIN   =    0.0    initial temperature
   TEBEG  =    0.0;   TEEND  =   0.0 temperature during run
   SMASS  =  -3.00    Nose mass-parameter (am)
   estimated Nose-frequenzy (Omega)   =  0.10E-29 period in steps = 0.13E+47 mass=  -0.239E-25a.u.
   SCALEE = 1.0000    scale energy and forces
   NPACO  =    256;   APACO  = 10.0  distance and # of slots for P.C.
   PSTRESS=    0.0 pullay stress

  Mass of Ions in am
   POMASS =  32.07 16.00
  Ionic Valenz
   ZVAL   =   6.00  6.00
  Atomic Wigner-Seitz radii
   RWIGS  =  -1.00 -1.00
  virtual crystal weights 
   VCA    =   1.00  1.00
   NELECT =      12.0000    total number of electrons
   NUPDOWN=      -1.0000    fix difference up-down

 DOS related values:
   EMIN   =  10.00;   EMAX   =-10.00  energy-range for DOS
   EFERMI =   0.00;   METHOD = LEGACY      
   ISMEAR =     0;   SIGMA  =   0.01  broadening in eV -4-tet -1-fermi 0-gaus

 Electronic relaxation 2 (details)
   IALGO  =     38    algorithm
   LDIAG  =      T    sub-space diagonalisation (order eigenvalues)
   LSUBROT=      F    optimize rotation matrix (better conditioning)
   TURBO    =      0    0=normal 1=particle mesh
   IRESTART =      0    0=no restart 2=restart with 2 vectors
   NREBOOT  =      0    no. of reboots
   NMIN     =      0    reboot dimension
   EREF     =   0.00    reference energy to select bands
   IMIX   =      4    mixing-type and parameters
     AMIX     =   0.20;   BMIX     =  0.00
     AMIX_MAG =   0.80;   BMIX_MAG =  0.00
     AMIN     =   0.10
     WC   =   100.;   INIMIX=   1;  MIXPRE=   1;  MAXMIX= -45

 Intra band minimization:
   WEIMIN = 0.0010     energy-eigenvalue tresh-hold
   EBREAK =  0.28E-09  absolut break condition
   DEPER  =   0.30     relativ break condition  

   TIME   =   0.40     timestep for ELM

  volume/ion in A,a.u.               =   13042.51     88015.22
  Fermi-wavevector in a.u.,A,eV,Ry     =   0.126378  0.238820  0.217304  0.015971
  Thomas-Fermi vector in A             =   0.758036
 
 Write flags
   LWAVE        =      F    write WAVECAR
   LDOWNSAMPLE  =      F    k-point downsampling of WAVECAR
   LCHARG       =      T    write CHGCAR
   LVTOT        =      F    write LOCPOT, total local potential
   LVHAR        =      F    write LOCPOT, Hartree potential only
   LELF         =      F    write electronic localiz. function (ELF)
   LORBIT       =      0    0 simple, 1 ext, 2 COOP (PROOUT), +10 PAW based schemes


 Dipole corrections
   LMONO  =      F    monopole corrections only (constant potential shift)
   LDIPOL =      F    correct potential (dipole corrections)
   IDIPOL =      0    1-x, 2-y, 3-z, 4-all directions 
   EPSILON=  1.0000000 bulk dielectric constant

 Exchange correlation treatment:
   GGA     =    PE    GGA type
   LEXCH   =     8    internal setting for exchange type
   LIBXC   =     F    Libxc                    
   VOSKOWN =     0    Vosko Wilk Nusair interpolation
   LHFCALC =     F    Hartree Fock is set to
   LHFONE  =     F    Hartree Fock one center treatment
   AEXX    =    0.0000 exact exchange contribution

 Linear response parameters
   LEPSILON=     F    determine dielectric tensor
   LRPA    =     F    only Hartree local field effects (RPA)
   LNABLA  =     F    use nabla operator in PAW spheres
   LVEL    =     F    velocity operator in full k-point grid
   CSHIFT  =0.1000    complex shift for real part using Kramers Kronig
   OMEGAMAX=  -1.0    maximum frequency
   DEG_THRESHOLD= 0.2000000E-02 threshold for treating states as degnerate
   RTIME   =   -0.100 relaxation time in fs
  (WPLASMAI=    0.000 imaginary part of plasma frequency in eV, 0.658/RTIME)
   DFIELD  = 0.0000000 0.0000000 0.0000000 field for delta impulse in time
 
  Optional k-point grid parameters
   LKPOINTS_OPT  =     F    use optional k-point grid
   KPOINTS_OPT_MODE=     1    mode for optional k-point grid
 
 Orbital magnetization related:
   ORBITALMAG=     F  switch on orbital magnetization
   LCHIMAG   =     F  perturbation theory with respect to B field
   DQ        =  0.001000  dq finite difference perturbation B field
   LLRAUG    =     F  two centre corrections for induced B field
   LBONE     =     F  B-component reconstruction in AE one-centre
   LVGVCALC  =     T  calculate vGv susceptibility
   LVGVAPPL  =     F  apply vGv susceptibility instead of pGv for G=0

 Random number generation:
   RANDOM_GENERATOR = DEFAULT
   PCG_SEED         = not used


--------------------------------------------------------------------------------------------------------


 quasi-Newton-method for relaxation of ions
 charge density and potential will be updated during run
 non-spin polarized calculation
 Variant of blocked Davidson
 Davidson routine will perform the subspace rotation
 perform sub-space diagonalisation
    after iterative eigenvector-optimisation
 modified Broyden-mixing scheme, WC =      100.0
 initial mixing is a Kerker type mixing with AMIX =  0.2000 and BMIX =      0.0001
 Hartree-type preconditioning will be used
 using additional bands           890
 reciprocal scheme for non local part
 use partial core corrections
 calculate Harris-corrections to forces 
   (improved forces if not selfconsistent)
 use gradient corrections 
 use of overlap-Matrix (Vanderbilt PP)
 Gauss-broadening in eV      SIGMA  =   0.01


--------------------------------------------------------------------------------------------------------


  energy-cutoff  :      400.00
  volume of cell :    26085.03
      direct lattice vectors                 reciprocal lattice vectors
    32.372299194  0.000000000  0.000000000     0.030890608  0.000000000  0.000000000
     0.000000000 19.921413422  0.000000000     0.000000000  0.050197241  0.000000000
     0.000000000  0.000000000 40.448047638     0.000000000  0.000000000  0.024723072

  length of vectors
    32.372299194 19.921413422 40.448047638     0.030890608  0.050197241  0.024723072


 
 k-points in units of 2pi/SCALE and weight: KPOINTS created by Atomic Simulation Env
   0.00000000  0.00000000  0.00000000       0.500
   0.00000000  0.00000000  0.01236154       0.500
 
 k-points in reciprocal lattice and weights: KPOINTS created by Atomic Simulation Env
   0.00000000  0.00000000  0.00000000       0.500
   0.00000000  0.00000000  0.50000000       0.500
 
 position of ions in fractional coordinates (direct lattice) 
   0.44063200  0.45150001  0.48965002
   0.42463203  0.38055000  0.49146999
 
 position of ions in cartesian coordinates  (Angst):
  14.26427078  8.99451828 19.80538750
  13.74631500  7.58109379 19.87900162
 


--------------------------------------------------------------------------------------------------------


 k-point   1 :   0.0000 0.0000 0.0000  plane waves:  473959
 k-point   2 :   0.0000 0.0000 0.5000  plane waves:  473680

 maximum and minimum number of plane-waves per node :    118517   118418

 maximum number of plane-waves:    473959
 maximum index in each direction: 
   IXMAX=   52   IYMAX=   32   IZMAX=   65
   IXMIN=  -52   IYMIN=  -32   IZMIN=  -66


 parallel 3D FFT for wavefunctions:
    minimum data exchange during FFTs selected (reduces bandwidth)
 parallel 3D FFT for charge:
    minimum data exchange during FFTs selected (reduces bandwidth)


 total amount of memory used by VASP MPI-rank0   246852. kBytes
=======================================================================

   base      :      30000. kBytes
   nonl-proj :      34136. kBytes
   fftplans  :      31844. kBytes
   grid      :      44640. kBytes
   one-center:          3. kBytes
   wavefun   :     106229. kBytes
 
     INWAV:  cpu time      0.0001: real time      0.0004
 Broyden mixing: mesh for mixing (old mesh)
   NGX =105   NGY = 65   NGZ =131
  (NGX  =320   NGY  =196   NGZ  =400)
  gives a total of 894075 points

 initial charge density was supplied:
 charge density of overlapping atoms calculated
 number of electron      12.0000000 magnetization 
 keeping initial charge density in first step


--------------------------------------------------------------------------------------------------------


 Maximum index for augmentation-charges             0 (set IRDMAX)


--------------------------------------------------------------------------------------------------------


 First call to EWALD:  gamma=   0.060
 Maximum number of real-space cells 3x 4x 2
 Maximum number of reciprocal cells 3x 2x 4

    FEWALD:  cpu time      0.0735: real time      0.0735


--------------------------------------- Ionic step        1  -------------------------------------------




--------------------------------------- Iteration      1(   1)  ---------------------------------------


    POTLOK:  cpu time      0.1205: real time      0.1206
    SETDIJ:  cpu time      0.0007: real time      0.0007
     EDDAV:  cpu time      8.5377: real time      8.6509
       DOS:  cpu time      0.0014: real time      0.0014
    --------------------------------------------
      LOOP:  cpu time      8.6603: real time      8.7735

 eigenvalue-minimisations  :  3712
 total energy-change (2. order) : 0.6330604E+02  (-0.1361198E+03)
 number of electron      12.0000000 magnetization 
 augmentation part       12.0000000 magnetization 

 Free energy of the ion-electron system (eV)
  ---------------------------------------------------
  alpha Z        PSCENC =         0.02222567
  Ewald energy   TEWEN  =       259.62559898
  -Hartree energ DENC   =      -842.25707412
  -exchange      EXHF   =         0.00000000
  -V(xc)+E(xc)   XCENC  =        38.90066437
  PAW double counting   =       345.23271319     -343.89266282
  entropy T*S    EENTRO =        -0.00001983
  eigenvalues    EBANDS =      -103.40700033
  atomic energy  EATOM  =       709.08159880
  Solvation  Ediel_sol  =         0.00000000
  ---------------------------------------------------
  free energy    TOTEN  =        63.30604390 eV

  energy without entropy =       63.30606373  energy(sigma->0) =       63.30605381


--------------------------------------------------------------------------------------------------------




--------------------------------------- Iteration      1(   2)  ---------------------------------------


     EDDAV:  cpu time      9.2177: real time      9.2190
       DOS:  cpu time      0.0009: real time      0.0009
    --------------------------------------------
      LOOP:  cpu time      9.2186: real time      9.2199

 eigenvalue-minimisations  :  4128
 total energy-change (2. order) :-0.6519331E+02  (-0.5232397E+02)
 number of electron      12.0000000 magnetization 
 augmentation part       12.0000000 magnetization 

 Free energy of the ion-electron system (eV)
  ---------------------------------------------------
  alpha Z        PSCENC =         0.02222567
  Ewald energy   TEWEN  =       259.62559898
  -Hartree energ DENC   =      -842.25707412
  -exchange      EXHF   =         0.00000000
  -V(xc)+E(xc)   XCENC  =        38.90066437
  PAW double counting   =       345.23271319     -343.89266282
  entropy T*S    EENTRO =        -0.00000000
  eigenvalues    EBANDS =      -168.60032661
  atomic energy  EATOM  =       709.08159880
  Solvation  Ediel_sol  =         0.00000000
  ---------------------------------------------------
  free energy    TOTEN  =        -1.88726256 eV

  energy without entropy =       -1.88726256  energy(sigma->0) =       -1.88726256


--------------------------------------------------------------------------------------------------------




--------------------------------------- Iteration      1(   3)  ---------------------------------------


     EDDAV:  cpu time     11.1428: real time     11.1459
       DOS:  cpu time      0.0063: real time      0.0062
    --------------------------------------------
      LOOP:  cpu time     11.1491: real time     11.1522

 eigenvalue-minimisations  :  5184
 total energy-change (2. order) :-0.7452172E+01  (-0.7393441E+01)
 number of electron      12.0000000 magnetization 
 augmentation part       12.0000000 magnetization 

 Free energy of the ion-electron system (eV)
  ---------------------------------------------------
  alpha Z        PSCENC =         0.02222567
  Ewald energy   TEWEN  =       259.62559898
  -Hartree energ DENC   =      -842.25707412
  -exchange      EXHF   =         0.00000000
  -V(xc)+E(xc)   XCENC  =        38.90066437
  PAW double counting   =       345.23271319     -343.89266282
  entropy T*S    EENTRO =        -0.01096817
  eigenvalues    EBANDS =      -176.04153028
  atomic energy  EATOM  =       709.08159880
  Solvation  Ediel_sol  =         0.00000000
  ---------------------------------------------------
  free energy    TOTEN  =        -9.33943439 eV

  energy without entropy =       -9.32846622  energy(sigma->0) =       -9.33395031


--------------------------------------------------------------------------------------------------------




--------------------------------------- Iteration      1(   4)  ---------------------------------------


     EDDAV:  cpu time      9.7335: real time      9.7349
       DOS:  cpu time      0.0063: real time      0.0063
    --------------------------------------------
      LOOP:  cpu time      9.7398: real time      9.7412

 eigenvalue-minimisations  :  4416
 total energy-change (2. order) :-0.8305658E-01  (-0.8267594E-01)
 number of electron      12.0000000 magnetization 
 augmentation part       12.0000000 magnetization 

 Free energy of the ion-electron system (eV)
  ---------------------------------------------------
  alpha Z        PSCENC =         0.02222567
  Ewald energy   TEWEN  =       259.62559898
  -Hartree energ DENC   =      -842.25707412
  -exchange      EXHF   =         0.00000000
  -V(xc)+E(xc)   XCENC  =        38.90066437
  PAW double counting   =       345.23271319     -343.89266282
  entropy T*S    EENTRO =        -0.01128373
  eigenvalues    EBANDS =      -176.12427130
  atomic energy  EATOM  =       709.08159880
  Solvation  Ediel_sol  =         0.00000000
  ---------------------------------------------------
  free energy    TOTEN  =        -9.42249097 eV

  energy without entropy =       -9.41120725  energy(sigma->0) =       -9.41684911


--------------------------------------------------------------------------------------------------------




--------------------------------------- Iteration      1(   5)  ---------------------------------------


     EDDAV:  cpu time      9.5504: real time      9.5528
       DOS:  cpu time      0.0015: real time      0.0014
    CHARGE:  cpu time      0.0874: real time      0.0876
    MIXING:  cpu time      0.0064: real time      0.0064
    --------------------------------------------
      LOOP:  cpu time      9.6457: real time      9.6482

 eigenvalue-minimisations  :  4256
 total energy-change (2. order) :-0.7729422E-03  (-0.7728316E-03)
 number of electron      11.9999988 magnetization 
 augmentation part       -0.0605799 magnetization 

 Broyden mixing:
  rms(total) = 0.66714E+00    rms(broyden)= 0.66606E+00
  rms(prec ) = 0.68708E+00
  weight for this iteration     100.00

 Free energy of the ion-electron system (eV)
  ---------------------------------------------------
  alpha Z        PSCENC =         0.02222567
  Ewald energy   TEWEN  =       259.62559898
  -Hartree energ DENC   =      -842.25707412
  -exchange      EXHF   =         0.00000000
  -V(xc)+E(xc)   XCENC  =        38.90066437
  PAW double counting   =       345.23271319     -343.89266282
  entropy T*S    EENTRO =        -0.01128367
  eigenvalues    EBANDS =      -176.12504430
  atomic energy  EATOM  =       709.08159880
  Solvation  Ediel_sol  =         0.00000000
  ---------------------------------------------------
  free energy    TOTEN  =        -9.42326391 eV

  energy without entropy =       -9.41198024  energy(sigma->0) =       -9.41762208


--------------------------------------------------------------------------------------------------------




--------------------------------------- Iteration      1(   6)  ---------------------------------------


    POTLOK:  cpu time      0.1015: real time      0.1023
    SETDIJ:  cpu time      0.0006: real time      0.0006
     EDDAV:  cpu time      9.1335: real time      9.1345
       DOS:  cpu time      0.0017: real time      0.0016
    CHARGE:  cpu time      0.0594: real time      0.0594
    MIXING:  cpu time      0.0042: real time      0.0053
    --------------------------------------------
      LOOP:  cpu time      9.3008: real time      9.3037

 eigenvalue-minimisations  :  4032
 total energy-change (2. order) : 0.1160118E+01  (-0.6024041E+00)
 number of electron      11.9999992 magnetization 
 augmentation part       -0.2361700 magnetization 

 Broyden mixing:
  rms(total) = 0.21863E+00    rms(broyden)= 0.21811E+00
  rms(prec ) = 0.22004E+00
  weight for this iteration     100.00

 eigenvalues of (default mixing * dielectric matrix)
  average eigenvalue GAMMA=   1.0419
  1.0419

 Free energy of the ion-electron system (eV)
  ---------------------------------------------------
  alpha Z        PSCENC =         0.02222567
  Ewald energy   TEWEN  =       259.62559898
  -Hartree energ DENC   =      -853.04192213
  -exchange      EXHF   =         0.00000000
  -V(xc)+E(xc)   XCENC  =        39.45225651
  PAW double counting   =       364.46595299     -363.21384245
  entropy T*S    EENTRO =        -0.01127351
  eigenvalues    EBANDS =      -164.64374048
  atomic energy  EATOM  =       709.08159880
  Solvation  Ediel_sol  =         0.00000000
  ---------------------------------------------------
  free energy    TOTEN  =        -8.26314562 eV

  energy without entropy =       -8.25187211  energy(sigma->0) =       -8.25750887


--------------------------------------------------------------------------------------------------------




--------------------------------------- Iteration      1(   7)  ---------------------------------------


    POTLOK:  cpu time      0.0898: real time      0.0903
    SETDIJ:  cpu time      0.0005: real time      0.0005
     EDDAV:  cpu time      9.0925: real time      9.0934
       DOS:  cpu time      0.0051: real time      0.0051
    CHARGE:  cpu time      0.0549: real time      0.0549
    MIXING:  cpu time      0.0039: real time      0.0040
    --------------------------------------------
      LOOP:  cpu time      9.2468: real time      9.2481

 eigenvalue-minimisations  :  4032
 total energy-change (2. order) :-0.1508286E-01  (-0.3138507E-01)
 number of electron      11.9999986 magnetization 
 augmentation part       -0.2568660 magnetization 

 Broyden mixing:
  rms(total) = 0.23867E+00    rms(broyden)= 0.23710E+00
  rms(prec ) = 0.23945E+00
  weight for this iteration     100.00

 eigenvalues of (default mixing * dielectric matrix)
  average eigenvalue GAMMA=   0.7025
  0.9953  0.4097

 Free energy of the ion-electron system (eV)
  ---------------------------------------------------
  alpha Z        PSCENC =         0.02222567
  Ewald energy   TEWEN  =       259.62559898
  -Hartree energ DENC   =      -854.73235934
  -exchange      EXHF   =         0.00000000
  -V(xc)+E(xc)   XCENC  =        39.54108001
  PAW double counting   =       372.32539529     -371.07631855
  entropy T*S    EENTRO =        -0.01009957
  eigenvalues    EBANDS =      -163.05534977
  atomic energy  EATOM  =       709.08159880
  Solvation  Ediel_sol  =         0.00000000
  ---------------------------------------------------
  free energy    TOTEN  =        -8.27822849 eV

  energy without entropy =       -8.26812891  energy(sigma->0) =       -8.27317870


--------------------------------------------------------------------------------------------------------




--------------------------------------- Iteration      1(   8)  ---------------------------------------


    POTLOK:  cpu time      0.0897: real time      0.0902
    SETDIJ:  cpu time      0.0007: real time      0.0007
     EDDAV:  cpu time      8.8698: real time      8.8705
       DOS:  cpu time      0.0015: real time      0.0014
    CHARGE:  cpu time      0.0611: real time      0.0611
    MIXING:  cpu time      0.0039: real time      0.0039
    --------------------------------------------
      LOOP:  cpu time      9.0267: real time      9.0280

 eigenvalue-minimisations  :  3968
 total energy-change (2. order) : 0.4521456E-02  (-0.1649952E-01)
 number of electron      12.0000006 magnetization 
 augmentation part       -0.2550082 magnetization 

 Broyden mixing:
  rms(total) = 0.42909E+00    rms(broyden)= 0.42144E+00
  rms(prec ) = 0.42657E+00
  weight for this iteration     100.00

 eigenvalues of (default mixing * dielectric matrix)
  average eigenvalue GAMMA=   1.5716
  3.4322  1.1719  0.1109

 Free energy of the ion-electron system (eV)
  ---------------------------------------------------
  alpha Z        PSCENC =         0.02222567
  Ewald energy   TEWEN  =       259.62559898
  -Hartree energ DENC   =      -854.82730303
  -exchange      EXHF   =         0.00000000
  -V(xc)+E(xc)   XCENC  =        39.55680371
  PAW double counting   =       374.04070578     -372.79034447
  entropy T*S    EENTRO =        -0.00330927
  eigenvalues    EBANDS =      -162.97968320
  atomic energy  EATOM  =       709.08159880
  Solvation  Ediel_sol  =         0.00000000
  ---------------------------------------------------
  free energy    TOTEN  =        -8.27370703 eV

  energy without entropy =       -8.27039776  energy(sigma->0) =       -8.27205240


--------------------------------------------------------------------------------------------------------




--------------------------------------- Iteration      1(   9)  ---------------------------------------


    POTLOK:  cpu time      0.0892: real time      0.0914
    SETDIJ:  cpu time      0.0005: real time      0.0005
     EDDAV:  cpu time      8.7504: real time      8.7513
       DOS:  cpu time      0.0015: real time      0.0015
    CHARGE:  cpu time      0.0586: real time      0.0586
    MIXING:  cpu time      0.0040: real time      0.0040
    --------------------------------------------
      LOOP:  cpu time      8.9043: real time      8.9073

 eigenvalue-minimisations  :  3840
 total energy-change (2. order) : 0.5073821E-01  (-0.1259777E-01)
 number of electron      11.9999995 magnetization 
 augmentation part       -0.2303726 magnetization 

 Broyden mixing:
  rms(total) = 0.12484E+00    rms(broyden)= 0.12099E+00
  rms(prec ) = 0.12330E+00
  weight for this iteration     100.00

 eigenvalues of (default mixing * dielectric matrix)
  average eigenvalue GAMMA=   1.6558
  4.5038  1.0032  1.0032  0.1130

 Free energy of the ion-electron system (eV)
  ---------------------------------------------------
  alpha Z        PSCENC =         0.02222567
  Ewald energy   TEWEN  =       259.62559898
  -Hartree energ DENC   =      -855.78294840
  -exchange      EXHF   =         0.00000000
  -V(xc)+E(xc)   XCENC  =        39.65240271
  PAW double counting   =       389.75857113     -388.49760178
  entropy T*S    EENTRO =        -0.01082222
  eigenvalues    EBANDS =      -162.07199370
  atomic energy  EATOM  =       709.08159880
  Solvation  Ediel_sol  =         0.00000000
  ---------------------------------------------------
  free energy    TOTEN  =        -8.22296882 eV

  energy without entropy =       -8.21214660  energy(sigma->0) =       -8.21755771


--------------------------------------------------------------------------------------------------------




--------------------------------------- Iteration      1(  10)  ---------------------------------------


    POTLOK:  cpu time      0.0892: real time      0.0928
    SETDIJ:  cpu time      0.0004: real time      0.0004
     EDDAV:  cpu time      8.8608: real time      8.8615
       DOS:  cpu time      0.0014: real time      0.0014
    CHARGE:  cpu time      0.0605: real time      0.0605
    MIXING:  cpu time      0.0041: real time      0.0041
    --------------------------------------------
      LOOP:  cpu time      9.0164: real time      9.0207

 eigenvalue-minimisations  :  3904
 total energy-change (2. order) :-0.3199411E-01  (-0.9995612E-02)
 number of electron      11.9999992 magnetization 
 augmentation part       -0.2472161 magnetization 

 Broyden mixing:
  rms(total) = 0.21606E+00    rms(broyden)= 0.21401E+00
  rms(prec ) = 0.21678E+00
  weight for this iteration     100.00

 eigenvalues of (default mixing * dielectric matrix)
  average eigenvalue GAMMA=   1.3800
  4.6231  1.0346  1.0346  0.1127  0.0952

 Free energy of the ion-electron system (eV)
  ---------------------------------------------------
  alpha Z        PSCENC =         0.02222567
  Ewald energy   TEWEN  =       259.62559898
  -Hartree energ DENC   =      -857.26007525
  -exchange      EXHF   =         0.00000000
  -V(xc)+E(xc)   XCENC  =        39.70248639
  PAW double counting   =       396.57628271     -395.31785335
  entropy T*S    EENTRO =        -0.00911382
  eigenvalues    EBANDS =      -160.67611305
  atomic energy  EATOM  =       709.08159880
  Solvation  Ediel_sol  =         0.00000000
  ---------------------------------------------------
  free energy    TOTEN  =        -8.25496294 eV

  energy without entropy =       -8.24584911  energy(sigma->0) =       -8.25040603


--------------------------------------------------------------------------------------------------------




--------------------------------------- Iteration      1(  11)  ---------------------------------------


    POTLOK:  cpu time      0.0897: real time      0.0906
    SETDIJ:  cpu time      0.0004: real time      0.0004
     EDDAV:  cpu time      8.6758: real time      8.6766
       DOS:  cpu time      0.0016: real time      0.0015
    CHARGE:  cpu time      0.0649: real time      0.0650
    MIXING:  cpu time      0.0044: real time      0.0044
    --------------------------------------------
      LOOP:  cpu time      8.8368: real time      8.8384

 eigenvalue-minimisations  :  3840
 total energy-change (2. order) : 0.1413968E-02  (-0.9518604E-03)
 number of electron      11.9999991 magnetization 
 augmentation part       -0.2497240 magnetization 

 Broyden mixing:
  rms(total) = 0.28111E-01    rms(broyden)= 0.20513E-01
  rms(prec ) = 0.20915E-01
  weight for this iteration     100.00
  WARNING: grid for Broyden might be to small

 eigenvalues of (default mixing * dielectric matrix)
  average eigenvalue GAMMA=   1.3782
  4.5948  1.4188  1.0262  1.0262  0.1129  0.0904

 Free energy of the ion-electron system (eV)
  ---------------------------------------------------
  alpha Z        PSCENC =         0.02222567
  Ewald energy   TEWEN  =       259.62559898
  -Hartree energ DENC   =      -857.36957437
  -exchange      EXHF   =         0.00000000
  -V(xc)+E(xc)   XCENC  =        39.70825068
  PAW double counting   =       397.17814840     -395.91964157
  entropy T*S    EENTRO =        -0.01127140
  eigenvalues    EBANDS =      -160.56888416
  atomic energy  EATOM  =       709.08159880
  Solvation  Ediel_sol  =         0.00000000
  ---------------------------------------------------
  free energy    TOTEN  =        -8.25354897 eV

  energy without entropy =       -8.24227757  energy(sigma->0) =       -8.24791327


--------------------------------------------------------------------------------------------------------




--------------------------------------- Iteration      1(  12)  ---------------------------------------


    POTLOK:  cpu time      0.0961: real time      0.0968
    SETDIJ:  cpu time      0.0004: real time      0.0004
     EDDAV:  cpu time      8.7274: real time      8.7280
       DOS:  cpu time      0.0014: real time      0.0013
    CHARGE:  cpu time      0.0616: real time      0.0616
    MIXING:  cpu time      0.0045: real time      0.0045
    --------------------------------------------
      LOOP:  cpu time      8.8914: real time      8.8926

 eigenvalue-minimisations  :  3872
 total energy-change (2. order) :-0.1897495E-01  (-0.4354876E-03)
 number of electron      11.9999993 magnetization 
 augmentation part       -0.2463037 magnetization 

 Broyden mixing:
  rms(total) = 0.38554E-01    rms(broyden)= 0.38047E-01
  rms(prec ) = 0.38553E-01
  weight for this iteration     100.00

 eigenvalues of (default mixing * dielectric matrix)
  average eigenvalue GAMMA=   1.6927
  4.9480  3.6443  1.1139  0.9697  0.9697  0.1129  0.0901

 Free energy of the ion-electron system (eV)
  ---------------------------------------------------
  alpha Z        PSCENC =         0.02222567
  Ewald energy   TEWEN  =       259.62559898
  -Hartree energ DENC   =      -856.97452969
  -exchange      EXHF   =         0.00000000
  -V(xc)+E(xc)   XCENC  =        39.67797006
  PAW double counting   =       396.98072480     -395.71710788
  entropy T*S    EENTRO =        -0.01122215
  eigenvalues    EBANDS =      -160.95778251
  atomic energy  EATOM  =       709.08159880
  Solvation  Ediel_sol  =         0.00000000
  ---------------------------------------------------
  free energy    TOTEN  =        -8.27252392 eV

  energy without entropy =       -8.26130177  energy(sigma->0) =       -8.26691285


--------------------------------------------------------------------------------------------------------




--------------------------------------- Iteration      1(  13)  ---------------------------------------


    POTLOK:  cpu time      0.0982: real time      0.1005
    SETDIJ:  cpu time      0.0004: real time      0.0004
     EDDAV:  cpu time      9.2045: real time      9.2054
       DOS:  cpu time      0.0028: real time      0.0027
    CHARGE:  cpu time      0.0528: real time      0.0528
    MIXING:  cpu time      0.0045: real time      0.0045
    --------------------------------------------
      LOOP:  cpu time      9.3632: real time      9.3663

 eigenvalue-minimisations  :  4128
 total energy-change (2. order) : 0.1686117E-02  (-0.5801644E-03)
 number of electron      11.9999989 magnetization 
 augmentation part       -0.2492155 magnetization 

 Broyden mixing:
  rms(total) = 0.59459E-01    rms(broyden)= 0.57842E-01
  rms(prec ) = 0.58605E-01
  weight for this iteration     100.00

 eigenvalues of (default mixing * dielectric matrix)
  average eigenvalue GAMMA=   1.5261
  4.8879  3.5553  1.1365  0.9765  0.9765  0.4734  0.1129  0.0901

 Free energy of the ion-electron system (eV)
  ---------------------------------------------------
  alpha Z        PSCENC =         0.02222567
  Ewald energy   TEWEN  =       259.62559898
  -Hartree energ DENC   =      -856.79358592
  -exchange      EXHF   =         0.00000000
  -V(xc)+E(xc)   XCENC  =        39.67432983
  PAW double counting   =       397.69872527     -396.42955452
  entropy T*S    EENTRO =        -0.01112726
  eigenvalues    EBANDS =      -161.13904866
  atomic energy  EATOM  =       709.08159880
  Solvation  Ediel_sol  =         0.00000000
  ---------------------------------------------------
  free energy    TOTEN  =        -8.27083780 eV

  energy without entropy =       -8.25971055  energy(sigma->0) =       -8.26527418


--------------------------------------------------------------------------------------------------------




--------------------------------------- Iteration      1(  14)  ---------------------------------------


    POTLOK:  cpu time      0.0961: real time      0.0990
    SETDIJ:  cpu time      0.0005: real time      0.0005
     EDDAV:  cpu time      8.4423: real time      8.4430
       DOS:  cpu time      0.0053: real time      0.0052
    CHARGE:  cpu time      0.0588: real time      0.0588
    MIXING:  cpu time      0.0047: real time      0.0047
    --------------------------------------------
      LOOP:  cpu time      8.6076: real time      8.6112

 eigenvalue-minimisations  :  3712
 total energy-change (2. order) : 0.1856810E-02  (-0.4313229E-04)
 number of electron      11.9999992 magnetization 
 augmentation part       -0.2491370 magnetization 

 Broyden mixing:
  rms(total) = 0.74650E-02    rms(broyden)= 0.38163E-02
  rms(prec ) = 0.38824E-02
  weight for this iteration     100.00
  WARNING: grid for Broyden might be to small

 eigenvalues of (default mixing * dielectric matrix)
  average eigenvalue GAMMA=   1.5527
  4.8712  3.3037  1.6729  0.9693  0.9693  1.0538  0.9308  0.1129  0.0901

 Free energy of the ion-electron system (eV)
  ---------------------------------------------------
  alpha Z        PSCENC =         0.02222567
  Ewald energy   TEWEN  =       259.62559898
  -Hartree energ DENC   =      -856.79977263
  -exchange      EXHF   =         0.00000000
  -V(xc)+E(xc)   XCENC  =        39.67548619
  PAW double counting   =       397.66441920     -396.39562347
  entropy T*S    EENTRO =        -0.01128313
  eigenvalues    EBANDS =      -161.13163059
  atomic energy  EATOM  =       709.08159880
  Solvation  Ediel_sol  =         0.00000000
  ---------------------------------------------------
  free energy    TOTEN  =        -8.26898099 eV

  energy without entropy =       -8.25769786  energy(sigma->0) =       -8.26333943


--------------------------------------------------------------------------------------------------------




--------------------------------------- Iteration      1(  15)  ---------------------------------------


    POTLOK:  cpu time      0.0997: real time      0.1001
    SETDIJ:  cpu time      0.0004: real time      0.0004
     EDDAV:  cpu time      8.5215: real time      8.5222
       DOS:  cpu time      0.0015: real time      0.0014
    CHARGE:  cpu time      0.0543: real time      0.0543
    MIXING:  cpu time      0.0047: real time      0.0047
    --------------------------------------------
      LOOP:  cpu time      8.6821: real time      8.6832

 eigenvalue-minimisations  :  3744
 total energy-change (2. order) :-0.4251534E-02  (-0.2045096E-04)
 number of electron      11.9999991 magnetization 
 augmentation part       -0.2485863 magnetization 

 Broyden mixing:
  rms(total) = 0.13633E-01    rms(broyden)= 0.13597E-01
  rms(prec ) = 0.13778E-01
  weight for this iteration     100.00

 eigenvalues of (default mixing * dielectric matrix)
  average eigenvalue GAMMA=   1.6361
  4.8475  3.3533  3.3533  1.0716  0.9976  0.9976  0.7684  0.7684  0.1129  0.0901

 Free energy of the ion-electron system (eV)
  ---------------------------------------------------
  alpha Z        PSCENC =         0.02222567
  Ewald energy   TEWEN  =       259.62559898
  -Hartree energ DENC   =      -856.81250447
  -exchange      EXHF   =         0.00000000
  -V(xc)+E(xc)   XCENC  =        39.67411669
  PAW double counting   =       397.68313634     -396.41442959
  entropy T*S    EENTRO =        -0.01127524
  eigenvalues    EBANDS =      -161.12169971
  atomic energy  EATOM  =       709.08159880
  Solvation  Ediel_sol  =         0.00000000
  ---------------------------------------------------
  free energy    TOTEN  =        -8.27323253 eV

  energy without entropy =       -8.26195729  energy(sigma->0) =       -8.26759491


--------------------------------------------------------------------------------------------------------




--------------------------------------- Iteration      1(  16)  ---------------------------------------


    POTLOK:  cpu time      0.1004: real time      0.1009
    SETDIJ:  cpu time      0.0005: real time      0.0005
     EDDAV:  cpu time      9.0709: real time      9.0718
       DOS:  cpu time      0.0014: real time      0.0014
    CHARGE:  cpu time      0.0558: real time      0.0558
    MIXING:  cpu time      0.0049: real time      0.0049
    --------------------------------------------
      LOOP:  cpu time      9.2340: real time      9.2352

 eigenvalue-minimisations  :  4000
 total energy-change (2. order) : 0.2994194E-03  (-0.1574535E-04)
 number of electron      11.9999992 magnetization 
 augmentation part       -0.2485964 magnetization 

 Broyden mixing:
  rms(total) = 0.64177E-02    rms(broyden)= 0.57337E-02
  rms(prec ) = 0.58080E-02
  weight for this iteration     100.00
  WARNING: grid for Broyden might be to small

 eigenvalues of (default mixing * dielectric matrix)
  average eigenvalue GAMMA=   1.5955
  4.8478  3.8619  2.9320  1.1123  1.0697  1.0697  0.8378  0.8378  0.7785  0.1129
  0.0901

 Free energy of the ion-electron system (eV)
  ---------------------------------------------------
  alpha Z        PSCENC =         0.02222567
  Ewald energy   TEWEN  =       259.62559898
  -Hartree energ DENC   =      -856.83502281
  -exchange      EXHF   =         0.00000000
  -V(xc)+E(xc)   XCENC  =        39.67538659
  PAW double counting   =       397.73939080     -396.47086040
  entropy T*S    EENTRO =        -0.01128208
  eigenvalues    EBANDS =      -161.09996866
  atomic energy  EATOM  =       709.08159880
  Solvation  Ediel_sol  =         0.00000000
  ---------------------------------------------------
  free energy    TOTEN  =        -8.27293311 eV

  energy without entropy =       -8.26165103  energy(sigma->0) =       -8.26729207


--------------------------------------------------------------------------------------------------------




--------------------------------------- Iteration      1(  17)  ---------------------------------------


    POTLOK:  cpu time      0.1017: real time      0.1024
    SETDIJ:  cpu time      0.0005: real time      0.0005
     EDDAV:  cpu time      8.7442: real time      8.7451
       DOS:  cpu time      0.0045: real time      0.0045
    CHARGE:  cpu time      0.0561: real time      0.0561
    MIXING:  cpu time      0.0051: real time      0.0051
    --------------------------------------------
      LOOP:  cpu time      8.9121: real time      8.9137

 eigenvalue-minimisations  :  3840
 total energy-change (2. order) :-0.5274034E-03  (-0.5568214E-05)
 number of electron      11.9999991 magnetization 
 augmentation part       -0.2485647 magnetization 

 Broyden mixing:
  rms(total) = 0.38880E-02    rms(broyden)= 0.37751E-02
  rms(prec ) = 0.38239E-02
  weight for this iteration     100.00

 eigenvalues of (default mixing * dielectric matrix)
  average eigenvalue GAMMA=   1.6967
  5.0029  3.8513  2.8825  2.8825  1.0354  1.0354  1.0116  0.9016  0.9016  0.6530
  0.1129  0.0901

 Free energy of the ion-electron system (eV)
  ---------------------------------------------------
  alpha Z        PSCENC =         0.02222567
  Ewald energy   TEWEN  =       259.62559898
  -Hartree energ DENC   =      -856.83532414
  -exchange      EXHF   =         0.00000000
  -V(xc)+E(xc)   XCENC  =        39.67532534
  PAW double counting   =       397.74711909     -396.47863230
  entropy T*S    EENTRO =        -0.01128310
  eigenvalues    EBANDS =      -161.10008884
  atomic energy  EATOM  =       709.08159880
  Solvation  Ediel_sol  =         0.00000000
  ---------------------------------------------------
  free energy    TOTEN  =        -8.27346051 eV

  energy without entropy =       -8.26217741  energy(sigma->0) =       -8.26781896


--------------------------------------------------------------------------------------------------------




--------------------------------------- Iteration      1(  18)  ---------------------------------------


    POTLOK:  cpu time      0.1011: real time      0.1018
    SETDIJ:  cpu time      0.0006: real time      0.0006
     EDDAV:  cpu time      9.0382: real time      9.0390
       DOS:  cpu time      0.0028: real time      0.0027
    CHARGE:  cpu time      0.0553: real time      0.0553
    MIXING:  cpu time      0.0052: real time      0.0052
    --------------------------------------------
      LOOP:  cpu time      9.2031: real time      9.2046

 eigenvalue-minimisations  :  3968
 total energy-change (2. order) : 0.8028272E-05  (-0.8944936E-06)
 number of electron      11.9999992 magnetization 
 augmentation part       -0.2485503 magnetization 

 Broyden mixing:
  rms(total) = 0.11593E-02    rms(broyden)= 0.10129E-02
  rms(prec ) = 0.10266E-02
  weight for this iteration     100.00
  WARNING: grid for Broyden might be to small

 eigenvalues of (default mixing * dielectric matrix)
  average eigenvalue GAMMA=   1.7671
  5.1866  4.7151  3.6879  2.6217  1.1285  1.1285  1.0006  1.0006  0.8262  0.8262
  0.6476  0.1129  0.0901

 Free energy of the ion-electron system (eV)
  ---------------------------------------------------
  alpha Z        PSCENC =         0.02222567
  Ewald energy   TEWEN  =       259.62559898
  -Hartree energ DENC   =      -856.83094897
  -exchange      EXHF   =         0.00000000
  -V(xc)+E(xc)   XCENC  =        39.67519912
  PAW double counting   =       397.75797985     -396.48949730
  entropy T*S    EENTRO =        -0.01128364
  eigenvalues    EBANDS =      -161.10432499
  atomic energy  EATOM  =       709.08159880
  Solvation  Ediel_sol  =         0.00000000
  ---------------------------------------------------
  free energy    TOTEN  =        -8.27345248 eV

  energy without entropy =       -8.26216884  energy(sigma->0) =       -8.26781066


--------------------------------------------------------------------------------------------------------




--------------------------------------- Iteration      1(  19)  ---------------------------------------


    POTLOK:  cpu time      0.1019: real time      0.1026
    SETDIJ:  cpu time      0.0003: real time      0.0003
     EDDAV:  cpu time      8.7586: real time      8.7595
       DOS:  cpu time      0.0041: real time      0.0040
    CHARGE:  cpu time      0.0541: real time      0.0541
    MIXING:  cpu time      0.0055: real time      0.0055
    --------------------------------------------
      LOOP:  cpu time      8.9246: real time      8.9261

 eigenvalue-minimisations  :  3872
 total energy-change (2. order) :-0.2194457E-04  (-0.1339703E-06)
 number of electron      11.9999992 magnetization 
 augmentation part       -0.2485789 magnetization 

 Broyden mixing:
  rms(total) = 0.50328E-03    rms(broyden)= 0.48979E-03
  rms(prec ) = 0.49605E-03
  weight for this iteration     100.00

 eigenvalues of (default mixing * dielectric matrix)
  average eigenvalue GAMMA=   1.7323
  4.8873  4.8873  3.3769  2.5388  1.7840  1.2098  1.0321  1.0321  0.8794  0.8794
  0.8998  0.6422  0.1129  0.0901

 Free energy of the ion-electron system (eV)
  ---------------------------------------------------
  alpha Z        PSCENC =         0.02222567
  Ewald energy   TEWEN  =       259.62559898
  -Hartree energ DENC   =      -856.82882045
  -exchange      EXHF   =         0.00000000
  -V(xc)+E(xc)   XCENC  =        39.67516067
  PAW double counting   =       397.76313606     -396.49470791
  entropy T*S    EENTRO =        -0.01128370
  eigenvalues    EBANDS =      -161.10638255
  atomic energy  EATOM  =       709.08159880
  Solvation  Ediel_sol  =         0.00000000
  ---------------------------------------------------
  free energy    TOTEN  =        -8.27347443 eV

  energy without entropy =       -8.26219073  energy(sigma->0) =       -8.26783258


--------------------------------------------------------------------------------------------------------




--------------------------------------- Iteration      1(  20)  ---------------------------------------


    POTLOK:  cpu time      0.1025: real time      0.1029
    SETDIJ:  cpu time      0.0005: real time      0.0005
     EDDAV:  cpu time      9.0668: real time      9.0676
       DOS:  cpu time      0.0055: real time      0.0055
    --------------------------------------------
      LOOP:  cpu time      9.1753: real time      9.1765

 eigenvalue-minimisations  :  4096
 total energy-change (2. order) : 0.4008848E-07  (-0.1416734E-07)
 number of electron      11.9999992 magnetization 
 augmentation part       -0.2485789 magnetization 

 Free energy of the ion-electron system (eV)
  ---------------------------------------------------
  alpha Z        PSCENC =         0.02222567
  Ewald energy   TEWEN  =       259.62559898
  -Hartree energ DENC   =      -856.82825566
  -exchange      EXHF   =         0.00000000
  -V(xc)+E(xc)   XCENC  =        39.67514376
  PAW double counting   =       397.76419587     -396.49577284
  entropy T*S    EENTRO =        -0.01128370
  eigenvalues    EBANDS =      -161.10692526
  atomic energy  EATOM  =       709.08159880
  Solvation  Ediel_sol  =         0.00000000
  ---------------------------------------------------
  free energy    TOTEN  =        -8.27347439 eV

  energy without entropy =       -8.26219069  energy(sigma->0) =       -8.26783254


--------------------------------------------------------------------------------------------------------




 average (electrostatic) potential at core
  the test charge radii are     0.9698  0.7215
  (the norm of the test charge is              1.0000)
       1 -98.4355       2 -82.1200
 
 
 
 E-fermi :  -5.5064     XC(G=0):  -0.0525     alpha+bet : -0.0107

 Fermi energy:        -5.5063792846

 k-point     1 :       0.0000    0.0000    0.0000
  band No.  band energies     occupation 
      1     -26.8245      2.00000
      2     -16.5073      2.00000
      3     -10.8861      2.00000
      4     -10.4146      2.00000
      5     -10.4145      2.00000
      6      -5.5064      1.00368
      7      -5.5064      1.00240
      8      -1.2118      0.00000
      9      -0.3289      0.00000
     10       0.0095      0.00000
     11       0.0716      0.00000
     12       0.1011      0.00000
     13       0.1177      0.00000
     14       0.1664      0.00000
     15       0.2046      0.00000
     16       0.2052      0.00000
     17       0.2253      0.00000
     18       0.2788      0.00000
     19       0.3208      0.00000
     20       0.3566      0.00000
     21       0.3608      0.00000
     22       0.3994      0.00000
     23       0.4185      0.00000
     24       0.4322      0.00000
     25       0.4581      0.00000
     26       0.4647      0.00000
     27       0.4716      0.00000
     28       0.4746      0.00000
     29       0.4964      0.00000
     30       0.4984      0.00000
     31       0.5064      0.00000
     32       0.5076      0.00000
     33       0.5103      0.00000
     34       0.5378      0.00000
     35       0.5440      0.00000
     36       0.5731      0.00000
     37       0.5819      0.00000
     38       0.5866      0.00000
     39       0.5967      0.00000
     40       0.5992      0.00000
     41       0.6003      0.00000
     42       0.6029      0.00000
     43       0.6054      0.00000
     44       0.6342      0.00000
     45       0.6376      0.00000
     46       0.6465      0.00000
     47       0.6524      0.00000
     48       0.6913      0.00000
     49       0.7044      0.00000
     50       0.7265      0.00000
     51       0.7311      0.00000
     52       0.7785      0.00000
     53       0.7921      0.00000
     54       0.8219      0.00000
     55       0.8344      0.00000
     56       0.8453      0.00000
     57       0.8618      0.00000
     58       0.8667      0.00000
     59       0.8705      0.00000
     60       0.8755      0.00000
     61       0.8795      0.00000
     62       0.8945      0.00000
     63       0.9018      0.00000
     64       0.9142      0.00000
     65       0.9150      0.00000
     66       0.9249      0.00000
     67       0.9289      0.00000
     68       0.9369      0.00000
     69       0.9392      0.00000
     70       0.9432      0.00000
     71       0.9434      0.00000
     72       0.9570      0.00000
     73       0.9574      0.00000
     74       1.0054      0.00000
     75       1.0059      0.00000
     76       1.0157      0.00000
     77       1.0262      0.00000
     78       1.0293      0.00000
     79       1.0294      0.00000
     80       1.0318      0.00000
     81       1.0348      0.00000
     82       1.1454      0.00000
     83       1.1577      0.00000
     84       1.1753      0.00000
     85       1.1860      0.00000
     86       1.2145      0.00000
     87       1.2351      0.00000
     88       1.2514      0.00000
     89       1.2556      0.00000
     90       1.2713      0.00000
     91       1.2879      0.00000
     92       1.2888      0.00000
     93       1.2899      0.00000
     94       1.3043      0.00000
     95       1.3058      0.00000
     96       1.3107      0.00000
     97       1.3175      0.00000
     98       1.3261      0.00000
     99       1.3309      0.00000
    100       1.3320      0.00000
    101       1.3337      0.00000
    102       1.3374      0.00000
    103       1.3390      0.00000
    104       1.3458      0.00000
    105       1.3511      0.00000
    106       1.3653      0.00000
    107       1.3682      0.00000
    108       1.3741      0.00000
    109       1.3807      0.00000
    110       1.3814      0.00000
    111       1.3838      0.00000
    112       1.4191      0.00000
    113       1.4394      0.00000
    114       1.4416      0.00000
    115       1.4909      0.00000
    116       1.5414      0.00000
    117       1.5547      0.00000
    118       1.5564      0.00000
    119       1.5626      0.00000
    120       1.5711      0.00000
    121       1.5878      0.00000
    122       1.5896      0.00000
    123       1.5947      0.00000
    124       1.5978      0.00000
    125       1.6022      0.00000
    126       1.6084      0.00000
    127       1.6231      0.00000
    128       1.6263      0.00000
    129       1.6360      0.00000
    130       1.6397      0.00000
    131       1.6438      0.00000
    132       1.6500      0.00000
    133       1.6515      0.00000
    134       1.6545      0.00000
    135       1.6560      0.00000
    136       1.6960      0.00000
    137       1.7012      0.00000
    138       1.7056      0.00000
    139       1.7113      0.00000
    140       1.7137      0.00000
    141       1.7170      0.00000
    142       1.7217      0.00000
    143       1.7275      0.00000
    144       1.7373      0.00000
    145       1.7406      0.00000
    146       1.7407      0.00000
    147       1.7425      0.00000
    148       1.7431      0.00000
    149       1.7437      0.00000
    150       1.7482      0.00000
    151       1.7508      0.00000
    152       1.7512      0.00000
    153       1.7517      0.00000
    154       1.7568      0.00000
    155       1.7574      0.00000
    156       1.7576      0.00000
    157       1.7647      0.00000
    158       1.7648      0.00000
    159       1.7667      0.00000
    160       1.8026      0.00000
    161       1.8105      0.00000
    162       1.8160      0.00000
    163       1.8323      0.00000
    164       1.8518      0.00000
    165       1.8600      0.00000
    166       1.8632      0.00000
    167       1.8645      0.00000
    168       1.9065      0.00000
    169       1.9219      0.00000
    170       1.9314      0.00000
    171       1.9481      0.00000
    172       1.9530      0.00000
    173       1.9662      0.00000
    174       1.9686      0.00000
    175       1.9770      0.00000
    176       1.9802      0.00000
    177       1.9874      0.00000
    178       1.9899      0.00000
    179       1.9937      0.00000
    180       1.9945      0.00000
    181       1.9983      0.00000
    182       2.0009      0.00000
    183       2.0084      0.00000
    184       2.0099      0.00000
    185       2.0127      0.00000
    186       2.0133      0.00000
    187       2.0176      0.00000
    188       2.0181      0.00000
    189       2.0198      0.00000
    190       2.0245      0.00000
    191       2.0249      0.00000
    192       2.0255      0.00000
    193       2.0268      0.00000
    194       2.0279      0.00000
    195       2.0310      0.00000
    196       2.0599      0.00000
    197       2.0624      0.00000
    198       2.0657      0.00000
    199       2.0711      0.00000
    200       2.0881      0.00000
    201       2.0959      0.00000
    202       2.0963      0.00000
    203       2.0973      0.00000
    204       2.1380      0.00000
    205       2.1452      0.00000
    206       2.1518      0.00000
    207       2.1610      0.00000
    208       2.1625      0.00000
    209       2.1669      0.00000
    210       2.1691      0.00000
    211       2.1702      0.00000
    212       2.1777      0.00000
    213       2.2524      0.00000
    214       2.2546      0.00000
    215       2.2572      0.00000
    216       2.2699      0.00000
    217       2.2972      0.00000
    218       2.3090      0.00000
    219       2.3101      0.00000
    220       2.3212      0.00000
    221       2.3324      0.00000
    222       2.3454      0.00000
    223       2.3598      0.00000
    224       2.3621      0.00000
    225       2.3756      0.00000
    226       2.3775      0.00000
    227       2.3806      0.00000
    228       2.3815      0.00000
    229       2.3884      0.00000
    230       2.3985      0.00000
    231       2.4041      0.00000
    232       2.4070      0.00000
    233       2.4157      0.00000
    234       2.4208      0.00000
    235       2.4242      0.00000
    236       2.4281      0.00000
    237       2.4285      0.00000
    238       2.4290      0.00000
    239       2.4293      0.00000
    240       2.4302      0.00000
    241       2.4373      0.00000
    242       2.4386      0.00000
    243       2.4400      0.00000
    244       2.4579      0.00000
    245       2.4584      0.00000
    246       2.4602      0.00000
    247       2.4631      0.00000
    248       2.4647      0.00000
    249       2.4683      0.00000
    250       2.4701      0.00000
    251       2.4716      0.00000
    252       2.4732      0.00000
    253       2.4734      0.00000
    254       2.4758      0.00000
    255       2.4777      0.00000
    256       2.4800      0.00000
    257       2.4831      0.00000
    258       2.4837      0.00000
    259       2.4838      0.00000
    260       2.5323      0.00000
    261       2.5995      0.00000
    262       2.6015      0.00000
    263       2.6223      0.00000
    264       2.6329      0.00000
    265       2.6406      0.00000
    266       2.6434      0.00000
    267       2.6464      0.00000
    268       2.6499      0.00000
    269       2.6548      0.00000
    270       2.6582      0.00000
    271       2.6605      0.00000
    272       2.6833      0.00000
    273       2.7024      0.00000
    274       2.7155      0.00000
    275       2.7227      0.00000
    276       2.7268      0.00000
    277       2.7349      0.00000
    278       2.7377      0.00000
    279       2.7410      0.00000
    280       2.7511      0.00000
    281       2.7533      0.00000
    282       2.7555      0.00000
    283       2.7557      0.00000
    284       2.7618      0.00000
    285       2.7672      0.00000
    286       2.7747      0.00000
    287       2.7750      0.00000
    288       2.7764      0.00000
    289       2.7831      0.00000
    290       2.7856      0.00000
    291       2.7919      0.00000
    292       2.7988      0.00000
    293       2.8036      0.00000
    294       2.8074      0.00000
    295       2.8079      0.00000
    296       2.8324      0.00000
    297       2.8430      0.00000
    298       2.8492      0.00000
    299       2.8500      0.00000
    300       2.8507      0.00000
    301       2.8585      0.00000
    302       2.8607      0.00000
    303       2.8650      0.00000
    304       2.8757      0.00000
    305       2.8768      0.00000
    306       2.8772      0.00000
    307       2.8796      0.00000
    308       2.8893      0.00000
    309       2.8902      0.00000
    310       2.8933      0.00000
    311       2.8961      0.00000
    312       2.8970      0.00000
    313       2.8976      0.00000
    314       2.8999      0.00000
    315       2.9028      0.00000
    316       2.9416      0.00000
    317       2.9456      0.00000
    318       2.9581      0.00000
    319       2.9610      0.00000
    320       2.9649      0.00000
    321       2.9902      0.00000
    322       3.0020      0.00000
    323       3.0077      0.00000
    324       3.0097      0.00000
    325       3.0202      0.00000
    326       3.0235      0.00000
    327       3.0247      0.00000
    328       3.0513      0.00000
    329       3.0691      0.00000
    330       3.0771      0.00000
    331       3.0833      0.00000
    332       3.0841      0.00000
    333       3.0931      0.00000
    334       3.0949      0.00000
    335       3.1013      0.00000
    336       3.1041      0.00000
    337       3.1078      0.00000
    338       3.1109      0.00000
    339       3.1127      0.00000
    340       3.1133      0.00000
    341       3.1201      0.00000
    342       3.1214      0.00000
    343       3.1231      0.00000
    344       3.1237      0.00000
    345       3.1241      0.00000
    346       3.1247      0.00000
    347       3.1258      0.00000
    348       3.1275      0.00000
    349       3.1447      0.00000
    350       3.1476      0.00000
    351       3.1552      0.00000
    352       3.1566      0.00000
    353       3.1570      0.00000
    354       3.1575      0.00000
    355       3.1582      0.00000
    356       3.1816      0.00000
    357       3.2074      0.00000
    358       3.2091      0.00000
    359       3.2217      0.00000
    360       3.2259      0.00000
    361       3.2280      0.00000
    362       3.2338      0.00000
    363       3.2343      0.00000
    364       3.2575      0.00000
    365       3.2784      0.00000
    366       3.2837      0.00000
    367       3.3378      0.00000
    368       3.3410      0.00000
    369       3.3558      0.00000
    370       3.4071      0.00000
    371       3.4257      0.00000
    372       3.4349      0.00000
    373       3.4426      0.00000
    374       3.4441      0.00000
    375       3.4473      0.00000
    376       3.4505      0.00000
    377       3.4613      0.00000
    378       3.4641      0.00000
    379       3.4648      0.00000
    380       3.4763      0.00000
    381       3.4860      0.00000
    382       3.4868      0.00000
    383       3.4871      0.00000
    384       3.4968      0.00000
    385       3.5050      0.00000
    386       3.5152      0.00000
    387       3.5188      0.00000
    388       3.5203      0.00000
    389       3.5217      0.00000
    390       3.5232      0.00000
    391       3.5267      0.00000
    392       3.5320      0.00000
    393       3.5379      0.00000
    394       3.5395      0.00000
    395       3.5410      0.00000
    396       3.5429      0.00000
    397       3.5529      0.00000
    398       3.5558      0.00000
    399       3.5611      0.00000
    400       3.5621      0.00000
    401       3.5688      0.00000
    402       3.5836      0.00000
    403       3.5943      0.00000
    404       3.5973      0.00000
    405       3.5994      0.00000
    406       3.6037      0.00000
    407       3.6053      0.00000
    408       3.6056      0.00000
    409       3.6091      0.00000
    410       3.6106      0.00000
    411       3.6174      0.00000
    412       3.6179      0.00000
    413       3.6271      0.00000
    414       3.6275      0.00000
    415       3.6297      0.00000
    416       3.6303      0.00000
    417       3.6372      0.00000
    418       3.6374      0.00000
    419       3.6416      0.00000
    420       3.6445      0.00000
    421       3.6538      0.00000
    422       3.6595      0.00000
    423       3.6622      0.00000
    424       3.6650      0.00000
    425       3.6676      0.00000
    426       3.6873      0.00000
    427       3.7072      0.00000
    428       3.7251      0.00000
    429       3.7277      0.00000
    430       3.7365      0.00000
    431       3.7389      0.00000
    432       3.7394      0.00000
    433       3.7468      0.00000
    434       3.7513      0.00000
    435       3.7540      0.00000
    436       3.7592      0.00000
    437       3.7681      0.00000
    438       3.7701      0.00000
    439       3.7728      0.00000
    440       3.7886      0.00000
    441       3.7905      0.00000
    442       3.7937      0.00000
    443       3.7984      0.00000
    444       3.8040      0.00000
    445       3.8081      0.00000
    446       3.8118      0.00000
    447       3.8127      0.00000
    448       3.8185      0.00000
    449       3.8186      0.00000
    450       3.8336      0.00000
    451       3.8408      0.00000
    452       3.8447      0.00000
    453       3.8551      0.00000
    454       3.8559      0.00000
    455       3.8588      0.00000
    456       3.8633      0.00000
    457       3.8664      0.00000
    458       3.8700      0.00000
    459       3.8752      0.00000
    460       3.8799      0.00000
    461       3.8804      0.00000
    462       3.8853      0.00000
    463       3.8879      0.00000
    464       3.8906      0.00000
    465       3.8927      0.00000
    466       3.8958      0.00000
    467       3.8973      0.00000
    468       3.8997      0.00000
    469       3.9006      0.00000
    470       3.9092      0.00000
    471       3.9101      0.00000
    472       3.9112      0.00000
    473       3.9168      0.00000
    474       3.9247      0.00000
    475       3.9263      0.00000
    476       3.9275      0.00000
    477       3.9309      0.00000
    478       3.9320      0.00000
    479       3.9335      0.00000
    480       3.9385      0.00000
    481       3.9392      0.00000
    482       3.9424      0.00000
    483       3.9448      0.00000
    484       3.9466      0.00000
    485       3.9469      0.00000
    486       3.9470      0.00000
    487       3.9491      0.00000
    488       3.9515      0.00000
    489       3.9519      0.00000
    490       3.9526      0.00000
    491       3.9527      0.00000
    492       3.9529      0.00000
    493       3.9533      0.00000
    494       3.9554      0.00000
    495       3.9591      0.00000
    496       3.9612      0.00000
    497       3.9748      0.00000
    498       4.0112      0.00000
    499       4.0169      0.00000
    500       4.0213      0.00000
    501       4.0254      0.00000
    502       4.0325      0.00000
    503       4.0390      0.00000
    504       4.0404      0.00000
    505       4.0421      0.00000
    506       4.0448      0.00000
    507       4.0455      0.00000
    508       4.0470      0.00000
    509       4.0516      0.00000
    510       4.0540      0.00000
    511       4.0593      0.00000
    512       4.0621      0.00000
    513       4.0644      0.00000
    514       4.0680      0.00000
    515       4.1012      0.00000
    516       4.1031      0.00000
    517       4.1083      0.00000
    518       4.1105      0.00000
    519       4.1154      0.00000
    520       4.1167      0.00000
    521       4.1280      0.00000
    522       4.1355      0.00000
    523       4.1481      0.00000
    524       4.1506      0.00000
    525       4.1527      0.00000
    526       4.1539      0.00000
    527       4.1559      0.00000
    528       4.1583      0.00000
    529       4.1598      0.00000
    530       4.1763      0.00000
    531       4.1926      0.00000
    532       4.1936      0.00000
    533       4.2021      0.00000
    534       4.2024      0.00000
    535       4.2136      0.00000
    536       4.2239      0.00000
    537       4.2242      0.00000
    538       4.2301      0.00000
    539       4.2306      0.00000
    540       4.2344      0.00000
    541       4.2407      0.00000
    542       4.2524      0.00000
    543       4.2529      0.00000
    544       4.2533      0.00000
    545       4.2543      0.00000
    546       4.2545      0.00000
    547       4.2565      0.00000
    548       4.2568      0.00000
    549       4.2600      0.00000
    550       4.2799      0.00000
    551       4.2919      0.00000
    552       4.2947      0.00000
    553       4.3022      0.00000
    554       4.3027      0.00000
    555       4.3060      0.00000
    556       4.3085      0.00000
    557       4.3100      0.00000
    558       4.3160      0.00000
    559       4.3168      0.00000
    560       4.3190      0.00000
    561       4.3204      0.00000
    562       4.3205      0.00000
    563       4.3296      0.00000
    564       4.3318      0.00000
    565       4.3334      0.00000
    566       4.3477      0.00000
    567       4.3524      0.00000
    568       4.3531      0.00000
    569       4.3551      0.00000
    570       4.3577      0.00000
    571       4.3609      0.00000
    572       4.3634      0.00000
    573       4.3649      0.00000
    574       4.3658      0.00000
    575       4.3658      0.00000
    576       4.3688      0.00000
    577       4.3697      0.00000
    578       4.3707      0.00000
    579       4.3717      0.00000
    580       4.3730      0.00000
    581       4.3732      0.00000
    582       4.3826      0.00000
    583       4.3830      0.00000
    584       4.3886      0.00000
[...]
  240          set_rsgf_all                          0.000003                          4   4
  241          m_sumb_d                              0.002915                         32   4
  242        strkin                                0.074421                            4   3
  243          m_sumb_d                              0.002041                          4   4
  244        strelo                                0.023827                            4   3
  245          m_sumb_d                              0.000505                          8   4
  246        strenl                                6.782942                            4   3
  247          spher                                 3.298501                         76   4
  248          phase                                 0.000009                         36   4
  249          proj1                                 1.890529                       1008   4
  250            crexp_mul_wave                        0.542808                     2016   5
  251            m_sumb_d                              0.193507                     1008   5
  252          m_sumb_d                              1.590167                          4   4
  253        m_sumb_d                              0.000692                           24   3
  254        fft3d_mpi                             0.142759                           44   3
  255          fftbrc_mpi                            0.138140                         44   4
  256            fftbas_plan_mpi                       0.138115                       44   5
  257              dfftw_execute                         0.053392                    132   6
  258              map_forward                           0.037081                     40   6
  259                map_gather                            0.006299                   20   7
  260                m_alltoallv_z                         0.021254                   20   7
  261                map_scatter                           0.009427                   20   7
  262              map_backward                          0.047195                     48   6
  263                map_gather                            0.012328                   24   7
  264                m_alltoallv_z                         0.026796                   24   7
  265                map_scatter                           0.007883                   24   7
  266        ggaall_grid                           0.142476                            4   3
  267        forhar                                0.026115                            8   3
  268          m_sumb_d                              0.000570                          8   4
  269        strehar                               0.014470                            4   3
  270          m_sumb_d                              0.000227                          4   4
  271        chggra                                0.059021                            4   3
  272          fft3d_mpi                             0.039632                         12   4
  273            fftbrc_mpi                            0.038763                       12   5
  274              fftbas_plan_mpi                       0.038755                     12   6
  275                dfftw_execute                         0.014872                   36   7
  276                map_backward                          0.006803                    8   7
  277                  map_gather                            0.002323                  4   8
  278                  m_alltoallv_z                         0.003292                  4   8
  279                  map_scatter                           0.001174                  4   8
  280                map_forward                           0.016954                   16   7
  281                  map_gather                            0.002822                  8   8
  282                  m_alltoallv_z                         0.010568                  8   8
  283                  map_scatter                           0.003520                  8   8
  284          m_sumb_d                              0.000146                          8   4
  285          pothar                                0.005036                          4   4
  286            m_sumb_d                              0.001035                        4   5
  287        brmix                                 0.121023                            4   3
  288          m_sumb_d                              0.006701                         24   4
  289          brpre                                 0.000249                          4   4
  290          setg0                                 0.003252                          4   4
  291          broyd                                 0.005493                          4   4
  292            m_sumb_d                              0.001474                       72   5
  293            brsav                                 0.000335                       66   5
  294            brget                                 0.001264                      256   5
  295          m_bcast_z                             0.102922                          4   4
  296        m_bcast_d                             0.004294                            8   3
  297      potlok                                0.391122                              4   2
  298        fft3d_mpi                             0.164468                           52   3
  299          fftbrc_mpi                            0.159323                         52   4
  300            fftbas_plan_mpi                       0.159298                       52   5
  301              dfftw_execute                         0.064741                    156   6
  302              map_forward                           0.047297                     56   6
  303                map_gather                            0.006308                   32   7
  304                m_alltoallv_z                         0.028235                   32   7
  305                map_scatter                           0.012591                   32   7
  306              map_backward                          0.046768                     48   6
  307                map_gather                            0.010391                   24   7
  308                m_alltoallv_z                         0.029200                   24   7
  309                map_scatter                           0.007036                   24   7
  310        ggaall_grid                           0.142469                            4   3
  311        m_sumb_d                              0.000876                           20   3
  312        pothar                                0.004686                            4   3
  313          m_sumb_d                              0.000488                          4   4
  314        m_bcast_d                             0.017355                            4   3
  315      potlok_metagga                        0.000001                              4   2
  316      set_dd_magatom                        0.000001                              4   2
  317      set_dd_paw                            0.000940                              4   2
  318        set_rsgf_all                          0.000000                            4   3
  319        m_sumb_d                              0.000881                           32   3
  320      m_alltoall_d                          0.457037                           1600   2
  321      wavpre_noio                           0.030577                              3   2
  322        stufak                                0.002054                            3   3
 
 Flat profile
 ============
 
             routine name                   CPU           calls
 ---------------------------------------------------------------
 orth1                                 104.912010       14275
 ggemm                                  86.912966        6177
 dfftw_execute                          74.704234       30972
 m_alltoall_d                           40.914960       67597
 lincom                                 30.653922          56
 total_time                             28.226657           1
 fftext_mpi                             19.528529        4721
 vhamil                                 15.793193        4721
 m_alltoallv_z                          13.051375       10424
 gemm                                   11.914295        9442
 wfinit                                 10.819410           1
 map_gather                             10.513914       10424
 map_scatter                             9.688844       10424
 lapack                                  8.814693        4721
 proj1                                   8.332417        4385
 pdssyex_zheevx                          7.782992          52
 m_bcast_z                               7.708765        6678
 fftwav_mpi                              5.803293        4769
 eddav                                   5.635423          52
 spher                                   3.353079          77
 work_mul_crexp                          3.330621        9442
 m_sumb_d                                3.327812       26876
 map_forward                             3.011152       10334
 redis_pw                                3.006609       12819
 crexp_mul_wave                          2.991395        8770
 eccp                                    2.566365        1456
 w1_copy                                 2.484164       14163
 ggaall_grid                             1.798496          56
 kinhamil                                1.158638        4721
 fornl                                   0.951998           4
 hamiltmu                                0.934533        4721
 setup_precond                           0.805324        1456
 potlok                                  0.781216          52
 m_bcast_d                               0.569659        9511
 apply_precond                           0.543474        3265
 soft_charge                             0.333672          48
 elmin                                   0.309257           4
 choleski                                0.245374           4
 fftbas_plan_mpi                         0.230216       10324
 fft3d_mpi                               0.106427       10324
 strkin                                  0.072380           4
 pw_charge                               0.066556          48
 pothar                                  0.058194          56
 force_and_stress                        0.057063           4
 brmix                                   0.039933          48
 vnlac0                                  0.039805        4721
 setg0                                   0.039763          52
 redis_proj                              0.038718       16088
 augmentation_charge                     0.037732          48
 map_backward                            0.033933       10314
 wavpre_noio                             0.028522           3
 forhar                                  0.025545           8
 orthch                                  0.025081           4
 strelo                                  0.023322           4
 newband                                 0.019094        4773
 overl1                                  0.016494        4721
 broyd                                   0.015984          48
 overl                                   0.015942        7990
 forloc                                  0.015792           4
 phase                                   0.014508         100
 fft_gq                                  0.014483          48
 strehar                                 0.014243           4
 chggra                                  0.014206           4
 set_charge                              0.010798          48
 w1_projall                              0.010161        3265
 brget                                   0.008820        1793
 fftbas_mpi                              0.008564        9490
 brgrid                                  0.006747           1
 densta                                  0.005544          52
 inisym                                  0.004901           1
 strenl                                  0.003736           4
 stufak                                  0.003486           4
 brpre                                   0.003011          48
 brsav                                   0.002639         525
 setdij_                                 0.002497         157
 truncate_high_frequency_w1              0.001262        6177
 set_dd_paw                              0.000958          56
 depsum                                  0.000617          48
 fftbrc_mpi                              0.000506         834
 rsp                                     0.000421           4
 proj                                    0.000335           4
 fewald                                  0.000298           4
 fordep                                  0.000055           4
 rcp                                     0.000034           4
 crpa_reader                             0.000029           1
 set_rsgf_all                            0.000016          56
 vectorpot                               0.000016          49
 proall                                  0.000015           4
 potlok_metagga                          0.000014          52
 FERMAT_RAZOR                            0.000011           1
 set_dd_magatom                          0.000007          56
 posmap                                  0.000006           2
 redis_pw_over_bands                     0.000003           4
 rotate_active_occupied_orbital          0.000002           4
 ---------------------------------------------------------------
  summed up times     535.3541750907898     
 
 Accumulative profile
 ====================
 
             routine name                   CPU           calls
 ---------------------------------------------------------------
 total_time                            535.354175           1
 elmin                                 475.926976           4
 eddav                                 467.653985          52
 fft3d_mpi                             111.349166       10324
 fftbas_plan_mpi                       111.233668       10324
 fftbas_mpi                            108.286616        9490
 hamiltmu                              105.290002        4721
 orth1                                 104.912010       14275
 ggemm                                  86.912966        6177
 dfftw_execute                          74.704234       30972
 kinhamil                               73.126386        4721
 fftext_mpi                             71.967748        4721
 fftwav_mpi                             61.663170        4769
 m_alltoall_d                           40.914960       67597
 lincom                                 30.653922          56
 redis_pw                               26.852819       12819
 newband                                24.334913        4773
 map_forward                            19.857100       10334
 wfinit                                 17.709294           1
 map_backward                           16.442118       10314
 vhamil                                 15.793193        4721
 vnlac0                                 15.419396        4721
 m_alltoallv_z                          13.051375       10424
 gemm                                   11.914295        9442
 proj1                                  11.586663        4385
 map_gather                             10.513914       10424
 map_scatter                             9.688844       10424
 w1_projall                              9.481369        3265
 lapack                                  8.814693        4721
 force_and_stress                        8.736060           4
 pdssyex_zheevx                          7.783003          52
 m_bcast_z                               7.708765        6678
 strenl                                  6.782942           4
 potlok                                  4.993755          52
 redis_proj                              4.040203       16088
 orthch                                  3.363531           4
 spher                                   3.353079          77
 work_mul_crexp                          3.330621        9442
 m_sumb_d                                3.327812       26876
 set_charge                              3.230771          48
 soft_charge                             2.997946          48
 crexp_mul_wave                          2.991395        8770
 fftbrc_mpi                              2.956123         834
 eccp                                    2.606556        1456
 w1_copy                                 2.484164       14163
 ggaall_grid                             1.798496          56
 fornl                                   0.964677           4
 setup_precond                           0.813829        1456
 m_bcast_d                               0.569659        9511
 apply_precond                           0.543474        3265
 fft_gq                                  0.437157          48
 brmix                                   0.314443          48
 choleski                                0.245374           4
 proall                                  0.239768           4
 proj                                    0.225260           4
 augmentation_charge                     0.206162          48
 densta                                  0.150096          52
 fewald                                  0.075376           4
 strkin                                  0.074421           4
 pw_charge                               0.066556          48
 pothar                                  0.064170          56
 chggra                                  0.059021           4
 setg0                                   0.039763          52
 broyd                                   0.038560          48
 setdij_                                 0.031824         157
 wavpre_noio                             0.030577           3
 forhar                                  0.026115           8
 strelo                                  0.023827           4
 overl1                                  0.016494        4721
 forloc                                  0.016487           4
 set_dd_paw                              0.016024          56
 overl                                   0.015942        7990
 depsum                                  0.015864          48
 phase                                   0.014508         100
 strehar                                 0.014470           4
 brget                                   0.008820        1793
 brgrid                                  0.006747           1
 inisym                                  0.004907           1
 stufak                                  0.003486           4
 brpre                                   0.003011          48
 brsav                                   0.002639         525
 fordep                                  0.001563           4
 truncate_high_frequency_w1              0.001262        6177
 rsp                                     0.000421           4
 rcp                                     0.000034           4
 crpa_reader                             0.000029           1
 set_rsgf_all                            0.000016          56
 vectorpot                               0.000016          49
 potlok_metagga                          0.000014          52
 FERMAT_RAZOR                            0.000011           1
 set_dd_magatom                          0.000007          56
 posmap                                  0.000006           2
 redis_pw_over_bands                     0.000003           4
 rotate_active_occupied_orbital          0.000002           4
 ---------------------------------------------------------------
 
Profiling took   0.175547  0.051996  0.003958  0.003912 seconds
Profiling took   0.125696 seconds
