 vasp.6.4.2 20Jul23 (build Oct 12 2023 10:31:02) complex                         
 executed on              LinuxNV date 2025.05.19  08:46:53
 running  160 mpi-ranks, with    1 threads/rank, on   10 nodes
 distrk:  each k-point on   80 cores,    2 groups
 distr:  one band on NCORE=   5 cores,   16 groups


--------------------------------------------------------------------------------------------------------


 INCAR:
   ENCUT = 360.000000
   SIGMA = 0.050000
   EDIFF = 1.00e-06
   ALGO = Normal
   GGA = PE
   PREC = Normal
   SYSTEM = ./
   ICHARG = 2
   ISMEAR = 0
   ISPIN = 1
   ISTART = 0
   ISYM = 0
   KPAR = 2
   LMAXMIX = 4
   NELM = 100
   NPAR = 16
   LASPH = .TRUE.
   LCHARG = .FALSE.
   LWAVE = .FALSE.

 POTCAR:    PAW_PBE Ge 05Jan2001                  
 POTCAR:    PAW_PBE Se 06Sep2000                  
 POTCAR:    PAW_PBE Ge 05Jan2001                  
   VRHFIN =Ge: s2p2                                                                                 
   LEXCH  = PE                                                                                      
   EATOM  =   104.9960 eV,    7.7170 Ry                                                             
                                                                                                    
   TITEL  = PAW_PBE Ge 05Jan2001                                                                    
   LULTRA =        F    use ultrasoft PP ?                                                          
   IUNSCR =        1    unscreen: 0-lin 1-nonlin 2-no                                               
   RPACOR =    2.170    partial core radius                                                         
   POMASS =   72.610; ZVAL   =    4.000    mass and valenz                                          
   RCORE  =    2.300    outmost cutoff radius                                                       
   RWIGS  =    2.300; RWIGS  =    1.217    wigner-seitz radius (au A)                               
   ENMAX  =  173.807; ENMIN  =  130.355 eV                                                          
   ICORE  =        3    local potential                                                             
   LCOR   =        T    correct aug charges                                                         
   LPAW   =        T    paw PP                                                                      
   EAUG   =  385.843                                                                                
   DEXC   =    0.000                                                                                
   RMAX   =    2.342    core radius for proj-oper                                                   
   RAUG   =    1.300    factor for augmentation sphere                                              
   RDEP   =    2.318    radius for radial grids                                                     
   RDEPT  =    2.103    core radius for aug-charge                                                  
                                                                                                    
   Atomic configuration                                                                             
   10 entries                                                                                       
     n  l   j            E        occ.                                                              
     1  0  0.50    -10959.8463   2.0000                                                             
     2  0  0.50     -1371.6056   2.0000                                                             
     2  1  1.50     -1198.4791   6.0000                                                             
     3  0  0.50      -168.4733   2.0000                                                             
     3  1  1.50      -115.6019   6.0000                                                             
     3  2  2.50       -29.3106  10.0000                                                             
     4  0  0.50       -11.7309   2.0000                                                             
     4  1  0.50        -3.8952   2.0000                                                             
     4  2  1.50        -4.0817   0.0000                                                             
     4  3  2.50        -4.0817   0.0000                                                             
   Description                                                                                      
     l       E           TYP  RCUT    TYP  RCUT                                                     
     0    -11.7309493     23  2.300                                                                 
     0     -7.4578696     23  2.300                                                                 
     1     -3.8952261     23  2.300                                                                 
     1      6.1178114     23  2.300                                                                 
     2     -4.0817478     23  2.300                                                                 
     3     -1.3605826      7  2.300                                                                 
  local pseudopotential read in
  partial core-charges read in
  partial kinetic energy density read in
  atomic valenz-charges read in
  non local Contribution for L=            0  read in
    real space projection operators read in
  non local Contribution for L=            0  read in
    real space projection operators read in
  non local Contribution for L=            1  read in
    real space projection operators read in
  non local Contribution for L=            1  read in
    real space projection operators read in
  non local Contribution for L=            2  read in
    real space projection operators read in
    PAW grid and wavefunctions read in
 
   number of l-projection  operators is LMAX  =            5
   number of lm-projection operators is LMMAX =           13
 
 POTCAR:    PAW_PBE Se 06Sep2000                  
   VRHFIN =Se: s2p4                                                                                 
   LEXCH  = PE                                                                                      
   EATOM  =   257.1286 eV,   18.8984 Ry                                                             
                                                                                                    
   TITEL  = PAW_PBE Se 06Sep2000                                                                    
   LULTRA =        F    use ultrasoft PP ?                                                          
   IUNSCR =        1    unscreen: 0-lin 1-nonlin 2-no                                               
   RPACOR =    1.900    partial core radius                                                         
   POMASS =   78.960; ZVAL   =    6.000    mass and valenz                                          
   RCORE  =    2.100    outmost cutoff radius                                                       
   RWIGS  =    2.200; RWIGS  =    1.164    wigner-seitz radius (au A)                               
   ENMAX  =  211.555; ENMIN  =  158.666 eV                                                          
   ICORE  =        3    local potential                                                             
   LCOR   =        T    correct aug charges                                                         
   LPAW   =        T    paw PP                                                                      
   EAUG   =  446.842                                                                                
   DEXC   =    0.000                                                                                
   RMAX   =    2.147    core radius for proj-oper                                                   
   RAUG   =    1.300    factor for augmentation sphere                                              
   RDEP   =    2.177    radius for radial grids                                                     
   RDEPT  =    1.928    core radius for aug-charge                                                  
                                                                                                    
   Atomic configuration                                                                             
   10 entries                                                                                       
     n  l   j            E        occ.                                                              
     1  0  0.50    -12503.4787   2.0000                                                             
     2  0  0.50     -1606.9547   2.0000                                                             
     2  1  1.50     -1413.3140   6.0000                                                             
     3  0  0.50      -213.4885   2.0000                                                             
     3  1  1.50      -152.9538   6.0000                                                             
     3  2  2.50       -53.1221  10.0000                                                             
     4  0  0.50       -17.2865   2.0000                                                             
     4  1  0.50        -6.5110   4.0000                                                             
     4  2  2.50        -6.8029   0.0000                                                             
     4  3  2.50        -6.8029   0.0000                                                             
   Description                                                                                      
     l       E           TYP  RCUT    TYP  RCUT                                                     
     0    -17.2865377     23  2.100                                                                 
     0    -15.3094411     23  2.100                                                                 
     1     -6.5110275     23  2.100                                                                 
     1     -0.0695192     23  2.100                                                                 
     2     -6.8029130     23  2.100                                                                 
     3     -1.3605826      7  2.100                                                                 
  local pseudopotential read in
  partial core-charges read in
  partial kinetic energy density read in
  atomic valenz-charges read in
  non local Contribution for L=            0  read in
    real space projection operators read in
  non local Contribution for L=            0  read in
    real space projection operators read in
  non local Contribution for L=            1  read in
    real space projection operators read in
  non local Contribution for L=            1  read in
    real space projection operators read in
  non local Contribution for L=            2  read in
    real space projection operators read in
    PAW grid and wavefunctions read in
 
   number of l-projection  operators is LMAX  =            5
   number of lm-projection operators is LMMAX =           13
 
  PAW_PBE Ge 05Jan2001                  :
 energy of atom  1       EATOM= -104.9960
 kinetic energy error for atom=    0.0005 (will be added to EATOM!!)
  PAW_PBE Se 06Sep2000                  :
 energy of atom  2       EATOM= -257.1286
 kinetic energy error for atom=    0.0030 (will be added to EATOM!!)
 
 
 POSCAR: Ge Se
  positions in cartesian coordinates
  No initial velocities read in
 exchange correlation table for  LEXCH =        8
   RHO(1)=    0.500       N(1)  =     2000
   RHO(2)=  100.500       N(2)  =     4000
 


--------------------------------------------------------------------------------------------------------


 ion  position               nearest neighbor table
   1  0.685  0.270  0.132-   5 2.59   6 2.60   6 2.60
   2  0.185  0.770  0.368-   6 2.59   5 2.60   5 2.60
   3  0.750  0.904  0.868-   7 2.59   8 2.60   8 2.60
   4  0.250  0.404  0.632-   8 2.59   7 2.60   7 2.60
   5  0.685  0.153  0.351-   1 2.59   2 2.60   2 2.60
   6  0.185  0.653  0.149-   2 2.59   1 2.60   1 2.60
   7  0.750  0.021  0.649-   3 2.59   4 2.60   4 2.60
   8  0.250  0.521  0.851-   4 2.59   3 2.60   3 2.60
 

IMPORTANT INFORMATION: All symmetrisations will be switched off!
NOSYMM: (Re-)initialisation of all symmetry stuff for point group C_1.


----------------------------------------------------------------------------------------

                                     Primitive cell                                     

  volume of cell :     202.3233

  direct lattice vectors                    reciprocal lattice vectors
     3.858100176  0.000000000  0.000000000     0.259194929  0.000000000  0.000000000
     0.000000000  4.526575088  0.000000000     0.000000000  0.220917577  0.000000000
     0.000000000  0.000000000 11.585176468     0.000000000  0.000000000  0.086317200

  length of vectors
     3.858100176  4.526575088 11.585176468     0.259194929  0.220917577  0.086317200

  position of ions in fractional coordinates (direct lattice)
     0.684782612  0.270156401  0.131971745
     0.184782576  0.770156388  0.368028228
     0.749999855  0.903756548  0.868028249
     0.249999781  0.403756501  0.631971759
     0.684782596  0.153378748  0.351109927
     0.184782612  0.653378769  0.148890049
     0.749999761  0.020534152  0.648890076
     0.249999838  0.520534176  0.851109946

  ion indices of the primitive-cell ions
   primitive index   ion index
                 1           1
                 2           2
                 3           3
                 4           4
                 5           5
                 6           6
                 7           7
                 8           8

----------------------------------------------------------------------------------------

 
 
 KPOINTS: KPOINTS created by Atomic Simulation Env

Automatic generation of k-mesh.
 Grid dimensions read from file:
 generate k-points for:    6    6    2

 Generating k-lattice:

  Cartesian coordinates                     Fractional coordinates (reciprocal lattice)
     0.043199155  0.000000000  0.000000000     0.166666667  0.000000000  0.000000000
     0.000000000  0.036819596  0.000000000     0.000000000  0.166666667  0.000000000
     0.000000000  0.000000000  0.043158600     0.000000000  0.000000000  0.500000000

  Length of vectors
     0.043199155  0.036819596  0.043158600

  Shift w.r.t. Gamma in fractional coordinates (k-lattice)
     0.000000000  0.000000000  0.000000000

 
 Subroutine IBZKPT returns following result:
 ===========================================
 
 Found     40 irreducible k-points:
 
 Following reciprocal coordinates:
            Coordinates               Weight
  0.000000  0.000000  0.000000      1.000000
  0.166667  0.000000  0.000000      2.000000
  0.333333  0.000000  0.000000      2.000000
  0.500000  0.000000  0.000000      1.000000
  0.000000  0.166667  0.000000      2.000000
  0.166667  0.166667  0.000000      2.000000
  0.166667 -0.166667  0.000000      2.000000
  0.333333  0.166667  0.000000      2.000000
  0.333333 -0.166667  0.000000      2.000000
  0.500000  0.166667  0.000000      2.000000
  0.000000  0.333333  0.000000      2.000000
  0.166667  0.333333  0.000000      2.000000
  0.166667 -0.333333  0.000000      2.000000
  0.333333  0.333333  0.000000      2.000000
  0.333333 -0.333333  0.000000      2.000000
  0.500000  0.333333  0.000000      2.000000
  0.000000  0.500000  0.000000      1.000000
  0.166667  0.500000  0.000000      2.000000
  0.333333  0.500000  0.000000      2.000000
  0.500000  0.500000  0.000000      1.000000
  0.000000  0.000000  0.500000      1.000000
  0.166667  0.000000  0.500000      2.000000
  0.333333  0.000000  0.500000      2.000000
  0.500000  0.000000  0.500000      1.000000
  0.000000  0.166667  0.500000      2.000000
  0.166667  0.166667  0.500000      2.000000
  0.166667 -0.166667  0.500000      2.000000
  0.333333  0.166667  0.500000      2.000000
  0.333333 -0.166667  0.500000      2.000000
  0.500000  0.166667  0.500000      2.000000
  0.000000  0.333333  0.500000      2.000000
  0.166667  0.333333  0.500000      2.000000
  0.166667 -0.333333  0.500000      2.000000
  0.333333  0.333333  0.500000      2.000000
  0.333333 -0.333333  0.500000      2.000000
  0.500000  0.333333  0.500000      2.000000
  0.000000  0.500000  0.500000      1.000000
  0.166667  0.500000  0.500000      2.000000
  0.333333  0.500000  0.500000      2.000000
  0.500000  0.500000  0.500000      1.000000
 
 Following cartesian coordinates:
            Coordinates               Weight
  0.000000  0.000000  0.000000      1.000000
  0.043199  0.000000  0.000000      2.000000
  0.086398  0.000000  0.000000      2.000000
  0.129597  0.000000  0.000000      1.000000
  0.000000  0.036820  0.000000      2.000000
  0.043199  0.036820  0.000000      2.000000
  0.043199 -0.036820  0.000000      2.000000
  0.086398  0.036820  0.000000      2.000000
  0.086398 -0.036820  0.000000      2.000000
  0.129597  0.036820  0.000000      2.000000
  0.000000  0.073639  0.000000      2.000000
  0.043199  0.073639  0.000000      2.000000
  0.043199 -0.073639  0.000000      2.000000
  0.086398  0.073639  0.000000      2.000000
  0.086398 -0.073639  0.000000      2.000000
  0.129597  0.073639  0.000000      2.000000
  0.000000  0.110459  0.000000      1.000000
  0.043199  0.110459  0.000000      2.000000
  0.086398  0.110459  0.000000      2.000000
  0.129597  0.110459  0.000000      1.000000
  0.000000  0.000000  0.043159      1.000000
  0.043199  0.000000  0.043159      2.000000
  0.086398  0.000000  0.043159      2.000000
  0.129597  0.000000  0.043159      1.000000
  0.000000  0.036820  0.043159      2.000000
  0.043199  0.036820  0.043159      2.000000
  0.043199 -0.036820  0.043159      2.000000
  0.086398  0.036820  0.043159      2.000000
  0.086398 -0.036820  0.043159      2.000000
  0.129597  0.036820  0.043159      2.000000
  0.000000  0.073639  0.043159      2.000000
  0.043199  0.073639  0.043159      2.000000
  0.043199 -0.073639  0.043159      2.000000
  0.086398  0.073639  0.043159      2.000000
  0.086398 -0.073639  0.043159      2.000000
  0.129597  0.073639  0.043159      2.000000
  0.000000  0.110459  0.043159      1.000000
  0.043199  0.110459  0.043159      2.000000
  0.086398  0.110459  0.043159      2.000000
  0.129597  0.110459  0.043159      1.000000
 


--------------------------------------------------------------------------------------------------------




 Dimension of arrays:
   k-points           NKPTS =     40   k-points in BZ     NKDIM =     40   number of bands    NBANDS=     32
   number of dos      NEDOS =    301   number of ions     NIONS =      8
   non local maximal  LDIM  =      5   non local SUM 2l+1 LMDIM =     13
   total plane-waves  NPLWV =  23328
   max r-space proj   IRMAX =      1   max aug-charges    IRDMAX=   6465
   dimension x,y,z NGX =    18 NGY =   24 NGZ =   54
   dimension x,y,z NGXF=    36 NGYF=   48 NGZF=  108
   support grid    NGXF=    36 NGYF=   48 NGZF=  108
   ions per type =               4   4
   NGX,Y,Z   is equivalent  to a cutoff of   7.76,  8.81,  7.75 a.u.
   NGXF,Y,Z  is equivalent  to a cutoff of  15.51, 17.63, 15.50 a.u.

 SYSTEM =  ./                                      
 POSCAR =  Ge Se                                   

 Startparameter for this run:
   NWRITE =      2    write-flag & timer
   PREC   = normal    normal or accurate (medium, high low for compatibility)
   ISTART =      0    job   : 0-new  1-cont  2-samecut
   ICHARG =      2    charge: 1-file 2-atom 10-const
   ISPIN  =      1    spin polarized calculation?
   LNONCOLLINEAR =      F non collinear calculations
   LSORBIT =      F    spin-orbit coupling
   INIWAV =      1    electr: 0-lowe 1-rand  2-diag
   LASPH  =      T    aspherical Exc in radial PAW
 Electronic Relaxation 1
   ENCUT  =  360.0 eV  26.46 Ry    5.14 a.u.   5.97  7.00 17.92*2*pi/ulx,y,z
   ENINI  =  360.0     initial cutoff
   ENAUG  =  446.8 eV  augmentation charge cutoff
   NELM   =    100;   NELMIN=  2; NELMDL= -5     # of ELM steps 
   EDIFF  = 0.1E-05   stopping-criterion for ELM
   LREAL  =      F    real-space projection
   NLSPLINE    = F    spline interpolate recip. space projectors
   LCOMPAT=      F    compatible to vasp.4.4
   GGA_COMPAT  = T    GGA compatible to vasp.4.4-vasp.4.6
   LMAXPAW     = -100 max onsite density
   LMAXMIX     =    4 max onsite mixed and CHGCAR
   VOSKOWN=      0    Vosko Wilk Nusair interpolation
   ROPT   =    0.00000   0.00000
 Ionic relaxation
   EDIFFG = 0.1E-04   stopping-criterion for IOM
   NSW    =      0    number of steps for IOM
   NBLOCK =      1;   KBLOCK =      1    inner block; outer block 
   IBRION =     -1    ionic relax: 0-MD 1-quasi-New 2-CG
   NFREE  =      0    steps in history (QN), initial steepest desc. (CG)
   ISIF   =      2    stress and relaxation
   IWAVPR =     10    prediction:  0-non 1-charg 2-wave 3-comb
   ISYM   =      0    0-nonsym 1-usesym 2-fastsym
   LCORR  =      T    Harris-Foulkes like correction to forces

   POTIM  = 0.5000    time-step for ionic-motion
   TEIN   =    0.0    initial temperature
   TEBEG  =    0.0;   TEEND  =   0.0 temperature during run
   SMASS  =  -3.00    Nose mass-parameter (am)
   estimated Nose-frequenzy (Omega)   =  0.10E-29 period in steps = 0.13E+47 mass=  -0.340E-27a.u.
   SCALEE = 1.0000    scale energy and forces
   NPACO  =    256;   APACO  = 10.0  distance and # of slots for P.C.
   PSTRESS=    0.0 pullay stress

  Mass of Ions in am
   POMASS =  72.61 78.96
  Ionic Valenz
   ZVAL   =   4.00  6.00
  Atomic Wigner-Seitz radii
   RWIGS  =  -1.00 -1.00
  virtual crystal weights 
   VCA    =   1.00  1.00
   NELECT =      40.0000    total number of electrons
   NUPDOWN=      -1.0000    fix difference up-down

 DOS related values:
   EMIN   =  10.00;   EMAX   =-10.00  energy-range for DOS
   EFERMI =   0.00;   METHOD = LEGACY      
   ISMEAR =     0;   SIGMA  =   0.05  broadening in eV -4-tet -1-fermi 0-gaus

 Electronic relaxation 2 (details)
   IALGO  =     38    algorithm
   LDIAG  =      T    sub-space diagonalisation (order eigenvalues)
   LSUBROT=      F    optimize rotation matrix (better conditioning)
   TURBO    =      0    0=normal 1=particle mesh
   IRESTART =      0    0=no restart 2=restart with 2 vectors
   NREBOOT  =      0    no. of reboots
   NMIN     =      0    reboot dimension
   EREF     =   0.00    reference energy to select bands
   IMIX   =      4    mixing-type and parameters
     AMIX     =   0.40;   BMIX     =  1.00
     AMIX_MAG =   1.60;   BMIX_MAG =  1.00
     AMIN     =   0.10
     WC   =   100.;   INIMIX=   1;  MIXPRE=   1;  MAXMIX= -45

 Intra band minimization:
   WEIMIN = 0.0000     energy-eigenvalue tresh-hold
   EBREAK =  0.78E-08  absolut break condition
   DEPER  =   0.30     relativ break condition  

   TIME   =   0.40     timestep for ELM

  volume/ion in A,a.u.               =      25.29       170.67
  Fermi-wavevector in a.u.,A,eV,Ry     =   0.953702  1.802236 12.375155  0.909548
  Thomas-Fermi vector in A             =   2.082382
 
 Write flags
   LWAVE        =      F    write WAVECAR
   LDOWNSAMPLE  =      F    k-point downsampling of WAVECAR
   LCHARG       =      F    write CHGCAR
   LVTOT        =      F    write LOCPOT, total local potential
   LVHAR        =      F    write LOCPOT, Hartree potential only
   LELF         =      F    write electronic localiz. function (ELF)
   LORBIT       =      0    0 simple, 1 ext, 2 COOP (PROOUT), +10 PAW based schemes


 Dipole corrections
   LMONO  =      F    monopole corrections only (constant potential shift)
   LDIPOL =      F    correct potential (dipole corrections)
   IDIPOL =      0    1-x, 2-y, 3-z, 4-all directions 
   EPSILON=  1.0000000 bulk dielectric constant

 Exchange correlation treatment:
   GGA     =    PE    GGA type
   LEXCH   =     8    internal setting for exchange type
   LIBXC   =     F    Libxc                    
   VOSKOWN =     0    Vosko Wilk Nusair interpolation
   LHFCALC =     F    Hartree Fock is set to
   LHFONE  =     F    Hartree Fock one center treatment
   AEXX    =    0.0000 exact exchange contribution

 Linear response parameters
   LEPSILON=     F    determine dielectric tensor
   LRPA    =     F    only Hartree local field effects (RPA)
   LNABLA  =     F    use nabla operator in PAW spheres
   LVEL    =     F    velocity operator in full k-point grid
   CSHIFT  =0.1000    complex shift for real part using Kramers Kronig
   OMEGAMAX=  -1.0    maximum frequency
   DEG_THRESHOLD= 0.2000000E-02 threshold for treating states as degnerate
   RTIME   =   -0.100 relaxation time in fs
  (WPLASMAI=    0.000 imaginary part of plasma frequency in eV, 0.658/RTIME)
   DFIELD  = 0.0000000 0.0000000 0.0000000 field for delta impulse in time
 
  Optional k-point grid parameters
   LKPOINTS_OPT  =     F    use optional k-point grid
   KPOINTS_OPT_MODE=     1    mode for optional k-point grid
 
 Orbital magnetization related:
   ORBITALMAG=     F  switch on orbital magnetization
   LCHIMAG   =     F  perturbation theory with respect to B field
   DQ        =  0.001000  dq finite difference perturbation B field
   LLRAUG    =     F  two centre corrections for induced B field
   LBONE     =     F  B-component reconstruction in AE one-centre
   LVGVCALC  =     T  calculate vGv susceptibility
   LVGVAPPL  =     F  apply vGv susceptibility instead of pGv for G=0

 Random number generation:
   RANDOM_GENERATOR = DEFAULT
   PCG_SEED         = not used


--------------------------------------------------------------------------------------------------------


 Static calculation
 charge density and potential will be updated during run
 non-spin polarized calculation
 Variant of blocked Davidson
 Davidson routine will perform the subspace rotation
 perform sub-space diagonalisation
    after iterative eigenvector-optimisation
 modified Broyden-mixing scheme, WC =      100.0
 initial mixing is a Kerker type mixing with AMIX =  0.4000 and BMIX =      1.0000
 Hartree-type preconditioning will be used
 using additional bands            12
 reciprocal scheme for non local part
 use partial core corrections
 calculate Harris-corrections to forces 
   (improved forces if not selfconsistent)
 use gradient corrections 
 use of overlap-Matrix (Vanderbilt PP)
 Gauss-broadening in eV      SIGMA  =   0.05


--------------------------------------------------------------------------------------------------------


  energy-cutoff  :      360.00
  volume of cell :      202.32
      direct lattice vectors                 reciprocal lattice vectors
     3.858100176  0.000000000  0.000000000     0.259194929  0.000000000  0.000000000
     0.000000000  4.526575088  0.000000000     0.000000000  0.220917577  0.000000000
     0.000000000  0.000000000 11.585176468     0.000000000  0.000000000  0.086317200

  length of vectors
     3.858100176  4.526575088 11.585176468     0.259194929  0.220917577  0.086317200


 
 k-points in units of 2pi/SCALE and weight: KPOINTS created by Atomic Simulation Env
   0.00000000  0.00000000  0.00000000       0.014
   0.04319915  0.00000000  0.00000000       0.028
   0.08639831  0.00000000  0.00000000       0.028
   0.12959746  0.00000000  0.00000000       0.014
   0.00000000  0.03681960  0.00000000       0.028
   0.04319915  0.03681960  0.00000000       0.028
   0.04319915 -0.03681960  0.00000000       0.028
   0.08639831  0.03681960  0.00000000       0.028
   0.08639831 -0.03681960  0.00000000       0.028
   0.12959746  0.03681960  0.00000000       0.028
   0.00000000  0.07363919  0.00000000       0.028
   0.04319915  0.07363919  0.00000000       0.028
   0.04319915 -0.07363919  0.00000000       0.028
   0.08639831  0.07363919  0.00000000       0.028
   0.08639831 -0.07363919  0.00000000       0.028
   0.12959746  0.07363919  0.00000000       0.028
   0.00000000  0.11045879  0.00000000       0.014
   0.04319915  0.11045879  0.00000000       0.028
   0.08639831  0.11045879  0.00000000       0.028
   0.12959746  0.11045879  0.00000000       0.014
   0.00000000  0.00000000  0.04315860       0.014
   0.04319915  0.00000000  0.04315860       0.028
   0.08639831  0.00000000  0.04315860       0.028
   0.12959746  0.00000000  0.04315860       0.014
   0.00000000  0.03681960  0.04315860       0.028
   0.04319915  0.03681960  0.04315860       0.028
   0.04319915 -0.03681960  0.04315860       0.028
   0.08639831  0.03681960  0.04315860       0.028
   0.08639831 -0.03681960  0.04315860       0.028
   0.12959746  0.03681960  0.04315860       0.028
   0.00000000  0.07363919  0.04315860       0.028
   0.04319915  0.07363919  0.04315860       0.028
   0.04319915 -0.07363919  0.04315860       0.028
   0.08639831  0.07363919  0.04315860       0.028
   0.08639831 -0.07363919  0.04315860       0.028
   0.12959746  0.07363919  0.04315860       0.028
   0.00000000  0.11045879  0.04315860       0.014
   0.04319915  0.11045879  0.04315860       0.028
   0.08639831  0.11045879  0.04315860       0.028
   0.12959746  0.11045879  0.04315860       0.014
 
 k-points in reciprocal lattice and weights: KPOINTS created by Atomic Simulation Env
   0.00000000  0.00000000  0.00000000       0.014
   0.16666667  0.00000000  0.00000000       0.028
   0.33333333  0.00000000  0.00000000       0.028
   0.50000000  0.00000000  0.00000000       0.014
   0.00000000  0.16666667  0.00000000       0.028
   0.16666667  0.16666667  0.00000000       0.028
   0.16666667 -0.16666667  0.00000000       0.028
   0.33333333  0.16666667  0.00000000       0.028
   0.33333333 -0.16666667  0.00000000       0.028
   0.50000000  0.16666667  0.00000000       0.028
   0.00000000  0.33333333  0.00000000       0.028
   0.16666667  0.33333333  0.00000000       0.028
   0.16666667 -0.33333333  0.00000000       0.028
   0.33333333  0.33333333  0.00000000       0.028
   0.33333333 -0.33333333  0.00000000       0.028
   0.50000000  0.33333333  0.00000000       0.028
   0.00000000  0.50000000  0.00000000       0.014
   0.16666667  0.50000000  0.00000000       0.028
   0.33333333  0.50000000  0.00000000       0.028
   0.50000000  0.50000000  0.00000000       0.014
   0.00000000  0.00000000  0.50000000       0.014
   0.16666667  0.00000000  0.50000000       0.028
   0.33333333  0.00000000  0.50000000       0.028
   0.50000000  0.00000000  0.50000000       0.014
   0.00000000  0.16666667  0.50000000       0.028
   0.16666667  0.16666667  0.50000000       0.028
   0.16666667 -0.16666667  0.50000000       0.028
   0.33333333  0.16666667  0.50000000       0.028
   0.33333333 -0.16666667  0.50000000       0.028
   0.50000000  0.16666667  0.50000000       0.028
   0.00000000  0.33333333  0.50000000       0.028
   0.16666667  0.33333333  0.50000000       0.028
   0.16666667 -0.33333333  0.50000000       0.028
   0.33333333  0.33333333  0.50000000       0.028
   0.33333333 -0.33333333  0.50000000       0.028
   0.50000000  0.33333333  0.50000000       0.028
   0.00000000  0.50000000  0.50000000       0.014
   0.16666667  0.50000000  0.50000000       0.028
   0.33333333  0.50000000  0.50000000       0.028
   0.50000000  0.50000000  0.50000000       0.014
 
 position of ions in fractional coordinates (direct lattice) 
   0.68478261  0.27015640  0.13197174
   0.18478258  0.77015639  0.36802823
   0.74999985  0.90375655  0.86802825
   0.24999978  0.40375650  0.63197176
   0.68478260  0.15337875  0.35110993
   0.18478261  0.65337877  0.14889005
   0.74999976  0.02053415  0.64889008
   0.24999984  0.52053418  0.85110995
 
 position of ions in cartesian coordinates  (Angst):
   2.64195992  1.22288323  1.52891595
   0.71290969  3.48617072  4.26367197
   2.89357457  4.09092188 10.05626045
   0.96452420  1.82763412  7.32150435
   2.64195985  0.69428042  4.06767047
   0.71290983  2.95756806  1.72491749
   2.89357421  0.09294938  7.51750603
   0.96452442  2.35623703  9.86025892
 


--------------------------------------------------------------------------------------------------------


 k-point   1 :   0.0000 0.0000 0.0000  plane waves:    3119
 k-point   2 :   0.1667 0.0000 0.0000  plane waves:    3116
 k-point   3 :   0.3333 0.0000 0.0000  plane waves:    3142
 k-point   4 :   0.5000 0.0000 0.0000  plane waves:    3148
 k-point   5 :   0.0000 0.1667 0.0000  plane waves:    3108
 k-point   6 :   0.1667 0.1667 0.0000  plane waves:    3123
 k-point   7 :   0.1667-0.1667 0.0000  plane waves:    3123
 k-point   8 :   0.3333 0.1667 0.0000  plane waves:    3135
 k-point   9 :   0.3333-0.1667 0.0000  plane waves:    3135
 k-point  10 :   0.5000 0.1667 0.0000  plane waves:    3138
 k-point  11 :   0.0000 0.3333 0.0000  plane waves:    3116
 k-point  12 :   0.1667 0.3333 0.0000  plane waves:    3133
 k-point  13 :   0.1667-0.3333 0.0000  plane waves:    3133
 k-point  14 :   0.3333 0.3333 0.0000  plane waves:    3155
 k-point  15 :   0.3333-0.3333 0.0000  plane waves:    3155
 k-point  16 :   0.5000 0.3333 0.0000  plane waves:    3152
 k-point  17 :   0.0000 0.5000 0.0000  plane waves:    3134
 k-point  18 :   0.1667 0.5000 0.0000  plane waves:    3140
 k-point  19 :   0.3333 0.5000 0.0000  plane waves:    3144
 k-point  20 :   0.5000 0.5000 0.0000  plane waves:    3144
 k-point  21 :   0.0000 0.0000 0.5000  plane waves:    3092
 k-point  22 :   0.1667 0.0000 0.5000  plane waves:    3124
 k-point  23 :   0.3333 0.0000 0.5000  plane waves:    3140
 k-point  24 :   0.5000 0.0000 0.5000  plane waves:    3132
 k-point  25 :   0.0000 0.1667 0.5000  plane waves:    3112
 k-point  26 :   0.1667 0.1667 0.5000  plane waves:    3140
 k-point  27 :   0.1667-0.1667 0.5000  plane waves:    3140
 k-point  28 :   0.3333 0.1667 0.5000  plane waves:    3134
 k-point  29 :   0.3333-0.1667 0.5000  plane waves:    3134
 k-point  30 :   0.5000 0.1667 0.5000  plane waves:    3144
 k-point  31 :   0.0000 0.3333 0.5000  plane waves:    3130
 k-point  32 :   0.1667 0.3333 0.5000  plane waves:    3148
 k-point  33 :   0.1667-0.3333 0.5000  plane waves:    3148
 k-point  34 :   0.3333 0.3333 0.5000  plane waves:    3142
 k-point  35 :   0.3333-0.3333 0.5000  plane waves:    3142
 k-point  36 :   0.5000 0.3333 0.5000  plane waves:    3152
 k-point  37 :   0.0000 0.5000 0.5000  plane waves:    3132
 k-point  38 :   0.1667 0.5000 0.5000  plane waves:    3148
 k-point  39 :   0.3333 0.5000 0.5000  plane waves:    3140
 k-point  40 :   0.5000 0.5000 0.5000  plane waves:    3160

 maximum and minimum number of plane-waves per node :       659      606

 maximum number of plane-waves:      3160
 maximum index in each direction: 
   IXMAX=    5   IYMAX=    7   IZMAX=   17
   IXMIN=   -6   IYMIN=   -7   IZMIN=  -18


 parallel 3D FFT for wavefunctions:
    minimum data exchange during FFTs selected (reduces bandwidth)
 parallel 3D FFT for charge:
    minimum data exchange during FFTs selected (reduces bandwidth)


 total amount of memory used by VASP MPI-rank0    37119. kBytes
=======================================================================

   base      :      30000. kBytes
   nonl-proj :       5406. kBytes
   fftplans  :        334. kBytes
   grid      :        503. kBytes
   one-center:         16. kBytes
   wavefun   :        860. kBytes
 
     INWAV:  cpu time      0.0000: real time      0.0001
 Broyden mixing: mesh for mixing (old mesh)
   NGX = 11   NGY = 15   NGZ = 35
  (NGX  = 36   NGY  = 48   NGZ  =108)
  gives a total of   5775 points

 initial charge density was supplied:
 charge density of overlapping atoms calculated
 number of electron      40.0000000 magnetization 
 keeping initial charge density in first step


--------------------------------------------------------------------------------------------------------


 Maximum index for augmentation-charges           263 (set IRDMAX)


--------------------------------------------------------------------------------------------------------


 First call to EWALD:  gamma=   0.302
 Maximum number of real-space cells 4x 3x 2
 Maximum number of reciprocal cells 2x 2x 5

    FEWALD:  cpu time      0.0011: real time      0.0011


--------------------------------------- Ionic step        1  -------------------------------------------




--------------------------------------- Iteration      1(   1)  ---------------------------------------


    POTLOK:  cpu time      0.0085: real time      0.0086
    SETDIJ:  cpu time      0.2197: real time      0.2202
     EDDAV:  cpu time      0.3066: real time      0.3080
       DOS:  cpu time      0.0011: real time      0.0011
    --------------------------------------------
      LOOP:  cpu time      0.5359: real time      0.5379

 eigenvalue-minimisations  :  2560
 total energy-change (2. order) : 0.1329429E+03  (-0.1286841E+04)
 number of electron      40.0000000 magnetization 
 augmentation part       40.0000000 magnetization 

 Free energy of the ion-electron system (eV)
  ---------------------------------------------------
  alpha Z        PSCENC =        83.74935623
  Ewald energy   TEWEN  =     -1381.46652716
  -Hartree energ DENC   =      -148.19705541
  -exchange      EXHF   =         0.00000000
  -V(xc)+E(xc)   XCENC  =       -33.77191049
  PAW double counting   =      1193.78262552    -1080.73714043
  entropy T*S    EENTRO =        -0.00437245
  eigenvalues    EBANDS =        51.10326743
  atomic energy  EATOM  =      1448.48460880
  Solvation  Ediel_sol  =         0.00000000
  ---------------------------------------------------
  free energy    TOTEN  =       132.94285204 eV

  energy without entropy =      132.94722448  energy(sigma->0) =      132.94503826


--------------------------------------------------------------------------------------------------------




--------------------------------------- Iteration      1(   2)  ---------------------------------------


     EDDAV:  cpu time      0.4297: real time      0.4325
       DOS:  cpu time      0.0005: real time      0.0005
    --------------------------------------------
      LOOP:  cpu time      0.4303: real time      0.4330

 eigenvalue-minimisations  :  3728
 total energy-change (2. order) :-0.1579348E+03  (-0.1534257E+03)
 number of electron      40.0000000 magnetization 
 augmentation part       40.0000000 magnetization 

 Free energy of the ion-electron system (eV)
  ---------------------------------------------------
  alpha Z        PSCENC =        83.74935623
  Ewald energy   TEWEN  =     -1381.46652716
  -Hartree energ DENC   =      -148.19705541
  -exchange      EXHF   =         0.00000000
  -V(xc)+E(xc)   XCENC  =       -33.77191049
  PAW double counting   =      1193.78262552    -1080.73714043
  entropy T*S    EENTRO =        -0.00000000
  eigenvalues    EBANDS =      -106.83587896
  atomic energy  EATOM  =      1448.48460880
  Solvation  Ediel_sol  =         0.00000000
  ---------------------------------------------------
  free energy    TOTEN  =       -24.99192190 eV

  energy without entropy =      -24.99192190  energy(sigma->0) =      -24.99192190


--------------------------------------------------------------------------------------------------------




--------------------------------------- Iteration      1(   3)  ---------------------------------------


     EDDAV:  cpu time      0.3685: real time      0.3706
       DOS:  cpu time      0.0006: real time      0.0006
    --------------------------------------------
      LOOP:  cpu time      0.3691: real time      0.3711

 eigenvalue-minimisations  :  3152
 total energy-change (2. order) :-0.9003158E+01  (-0.8983740E+01)
 number of electron      40.0000000 magnetization 
 augmentation part       40.0000000 magnetization 

 Free energy of the ion-electron system (eV)
  ---------------------------------------------------
  alpha Z        PSCENC =        83.74935623
  Ewald energy   TEWEN  =     -1381.46652716
  -Hartree energ DENC   =      -148.19705541
  -exchange      EXHF   =         0.00000000
  -V(xc)+E(xc)   XCENC  =       -33.77191049
  PAW double counting   =      1193.78262552    -1080.73714043
  entropy T*S    EENTRO =        -0.00000000
  eigenvalues    EBANDS =      -115.83903723
  atomic energy  EATOM  =      1448.48460880
  Solvation  Ediel_sol  =         0.00000000
  ---------------------------------------------------
  free energy    TOTEN  =       -33.99508018 eV

  energy without entropy =      -33.99508018  energy(sigma->0) =      -33.99508018


--------------------------------------------------------------------------------------------------------




--------------------------------------- Iteration      1(   4)  ---------------------------------------


     EDDAV:  cpu time      0.3934: real time      0.3949
       DOS:  cpu time      0.0006: real time      0.0006
    --------------------------------------------
      LOOP:  cpu time      0.3940: real time      0.3955

 eigenvalue-minimisations  :  3264
 total energy-change (2. order) :-0.6380979E-01  (-0.6380181E-01)
 number of electron      40.0000000 magnetization 
 augmentation part       40.0000000 magnetization 

 Free energy of the ion-electron system (eV)
  ---------------------------------------------------
  alpha Z        PSCENC =        83.74935623
  Ewald energy   TEWEN  =     -1381.46652716
  -Hartree energ DENC   =      -148.19705541
  -exchange      EXHF   =         0.00000000
  -V(xc)+E(xc)   XCENC  =       -33.77191049
  PAW double counting   =      1193.78262552    -1080.73714043
  entropy T*S    EENTRO =        -0.00000000
  eigenvalues    EBANDS =      -115.90284702
  atomic energy  EATOM  =      1448.48460880
  Solvation  Ediel_sol  =         0.00000000
  ---------------------------------------------------
  free energy    TOTEN  =       -34.05888997 eV

  energy without entropy =      -34.05888997  energy(sigma->0) =      -34.05888997


--------------------------------------------------------------------------------------------------------




--------------------------------------- Iteration      1(   5)  ---------------------------------------


     EDDAV:  cpu time      0.4071: real time      0.4089
       DOS:  cpu time      0.0007: real time      0.0007
    CHARGE:  cpu time      0.0056: real time      0.0056
    MIXING:  cpu time      0.0004: real time      0.0004
    --------------------------------------------
      LOOP:  cpu time      0.4138: real time      0.4157

 eigenvalue-minimisations  :  3072
 total energy-change (2. order) :-0.4240228E-03  (-0.4240147E-03)
 number of electron      39.9999967 magnetization 
 augmentation part       -7.4304172 magnetization 

 Broyden mixing:
  rms(total) = 0.65271E+00    rms(broyden)= 0.65270E+00
  rms(prec ) = 0.73311E+00
  weight for this iteration     100.00

 Free energy of the ion-electron system (eV)
  ---------------------------------------------------
  alpha Z        PSCENC =        83.74935623
  Ewald energy   TEWEN  =     -1381.46652716
  -Hartree energ DENC   =      -148.19705541
  -exchange      EXHF   =         0.00000000
  -V(xc)+E(xc)   XCENC  =       -33.77191049
  PAW double counting   =      1193.78262552    -1080.73714043
  entropy T*S    EENTRO =        -0.00000000
  eigenvalues    EBANDS =      -115.90327105
  atomic energy  EATOM  =      1448.48460880
  Solvation  Ediel_sol  =         0.00000000
  ---------------------------------------------------
  free energy    TOTEN  =       -34.05931399 eV

  energy without entropy =      -34.05931399  energy(sigma->0) =      -34.05931399


--------------------------------------------------------------------------------------------------------




--------------------------------------- Iteration      1(   6)  ---------------------------------------


    POTLOK:  cpu time      0.0078: real time      0.0079
    SETDIJ:  cpu time      0.2171: real time      0.2176
     EDDAV:  cpu time      0.3674: real time      0.3688
       DOS:  cpu time      0.0005: real time      0.0005
    CHARGE:  cpu time      0.0053: real time      0.0054
    MIXING:  cpu time      0.0004: real time      0.0004
    --------------------------------------------
      LOOP:  cpu time      0.5986: real time      0.6007

 eigenvalue-minimisations  :  3136
 total energy-change (2. order) : 0.3972392E+00  (-0.8274020E-01)
 number of electron      39.9999968 magnetization 
 augmentation part       -7.3692423 magnetization 

 Broyden mixing:
  rms(total) = 0.40925E+00    rms(broyden)= 0.40925E+00
  rms(prec ) = 0.43021E+00
  weight for this iteration     100.00

 eigenvalues of (default mixing * dielectric matrix)
  average eigenvalue GAMMA=   2.1771
  2.1771

 Free energy of the ion-electron system (eV)
  ---------------------------------------------------
  alpha Z        PSCENC =        83.74935623
  Ewald energy   TEWEN  =     -1381.46652716
  -Hartree energ DENC   =      -154.65695560
  -exchange      EXHF   =         0.00000000
  -V(xc)+E(xc)   XCENC  =       -33.14503484
  PAW double counting   =      1455.82069350    -1343.09011507
  entropy T*S    EENTRO =        -0.00000000
  eigenvalues    EBANDS =      -109.35810070
  atomic energy  EATOM  =      1448.48460880
  Solvation  Ediel_sol  =         0.00000000
  ---------------------------------------------------
  free energy    TOTEN  =       -33.66207483 eV

  energy without entropy =      -33.66207483  energy(sigma->0) =      -33.66207483


--------------------------------------------------------------------------------------------------------




--------------------------------------- Iteration      1(   7)  ---------------------------------------


    POTLOK:  cpu time      0.0077: real time      0.0078
    SETDIJ:  cpu time      0.2169: real time      0.2191
     EDDAV:  cpu time      0.3334: real time      0.3346
       DOS:  cpu time      0.0005: real time      0.0005
    CHARGE:  cpu time      0.0056: real time      0.0057
    MIXING:  cpu time      0.0005: real time      0.0005
    --------------------------------------------
      LOOP:  cpu time      0.5647: real time      0.5682

 eigenvalue-minimisations  :  2896
 total energy-change (2. order) : 0.1143712E-01  (-0.2355054E-01)
 number of electron      39.9999968 magnetization 
 augmentation part       -7.3516370 magnetization 

 Broyden mixing:
  rms(total) = 0.13022E+00    rms(broyden)= 0.13022E+00
  rms(prec ) = 0.13874E+00
  weight for this iteration     100.00

 eigenvalues of (default mixing * dielectric matrix)
  average eigenvalue GAMMA=   1.7918
  1.1942  2.3894

 Free energy of the ion-electron system (eV)
  ---------------------------------------------------
  alpha Z        PSCENC =        83.74935623
  Ewald energy   TEWEN  =     -1381.46652716
  -Hartree energ DENC   =      -157.68989608
  -exchange      EXHF   =         0.00000000
  -V(xc)+E(xc)   XCENC  =       -32.65296839
  PAW double counting   =      1780.37025642    -1667.87004198
  entropy T*S    EENTRO =        -0.00000000
  eigenvalues    EBANDS =      -106.57542556
  atomic energy  EATOM  =      1448.48460880
  Solvation  Ediel_sol  =         0.00000000
  ---------------------------------------------------
  free energy    TOTEN  =       -33.65063772 eV

  energy without entropy =      -33.65063772  energy(sigma->0) =      -33.65063772


--------------------------------------------------------------------------------------------------------




--------------------------------------- Iteration      1(   8)  ---------------------------------------


    POTLOK:  cpu time      0.0076: real time      0.0078
    SETDIJ:  cpu time      0.2169: real time      0.2174
     EDDAV:  cpu time      0.3970: real time      0.3987
       DOS:  cpu time      0.0005: real time      0.0005
    CHARGE:  cpu time      0.0055: real time      0.0056
    MIXING:  cpu time      0.0005: real time      0.0005
    --------------------------------------------
      LOOP:  cpu time      0.6281: real time      0.6305

 eigenvalue-minimisations  :  3136
 total energy-change (2. order) : 0.8758421E-03  (-0.2367612E-02)
 number of electron      39.9999968 magnetization 
 augmentation part       -7.3602010 magnetization 

 Broyden mixing:
  rms(total) = 0.18121E-01    rms(broyden)= 0.18121E-01
  rms(prec ) = 0.22183E-01
  weight for this iteration     100.00

 eigenvalues of (default mixing * dielectric matrix)
  average eigenvalue GAMMA=   1.6937
  2.5132  1.2840  1.2840

 Free energy of the ion-electron system (eV)
  ---------------------------------------------------
  alpha Z        PSCENC =        83.74935623
  Ewald energy   TEWEN  =     -1381.46652716
  -Hartree energ DENC   =      -157.88916620
  -exchange      EXHF   =         0.00000000
  -V(xc)+E(xc)   XCENC  =       -32.50521842
  PAW double counting   =      1918.85991127    -1806.41557798
  entropy T*S    EENTRO =        -0.00000000
  eigenvalues    EBANDS =      -106.46714842
  atomic energy  EATOM  =      1448.48460880
  Solvation  Ediel_sol  =         0.00000000
  ---------------------------------------------------
  free energy    TOTEN  =       -33.64976187 eV

  energy without entropy =      -33.64976187  energy(sigma->0) =      -33.64976187


--------------------------------------------------------------------------------------------------------




--------------------------------------- Iteration      1(   9)  ---------------------------------------


    POTLOK:  cpu time      0.0077: real time      0.0079
    SETDIJ:  cpu time      0.2166: real time      0.2172
     EDDAV:  cpu time      0.3978: real time      0.3993
       DOS:  cpu time      0.0005: real time      0.0006
    CHARGE:  cpu time      0.0054: real time      0.0055
    MIXING:  cpu time      0.0005: real time      0.0005
    --------------------------------------------
      LOOP:  cpu time      0.6286: real time      0.6308

 eigenvalue-minimisations  :  3168
 total energy-change (2. order) :-0.4259922E-03  (-0.3671397E-03)
 number of electron      39.9999968 magnetization 
 augmentation part       -7.3581179 magnetization 

 Broyden mixing:
  rms(total) = 0.67934E-02    rms(broyden)= 0.67934E-02
  rms(prec ) = 0.76975E-02
  weight for this iteration     100.00

 eigenvalues of (default mixing * dielectric matrix)
  average eigenvalue GAMMA=   1.7319
  2.2986  2.2986  1.1652  1.1652

 Free energy of the ion-electron system (eV)
  ---------------------------------------------------
  alpha Z        PSCENC =        83.74935623
  Ewald energy   TEWEN  =     -1381.46652716
  -Hartree energ DENC   =      -158.30528177
  -exchange      EXHF   =         0.00000000
  -V(xc)+E(xc)   XCENC  =       -32.46143774
  PAW double counting   =      1932.96241795    -1820.52711332
  entropy T*S    EENTRO =        -0.00000000
  eigenvalues    EBANDS =      -106.08621086
  atomic energy  EATOM  =      1448.48460880
  Solvation  Ediel_sol  =         0.00000000
  ---------------------------------------------------
  free energy    TOTEN  =       -33.65018787 eV

  energy without entropy =      -33.65018787  energy(sigma->0) =      -33.65018787


--------------------------------------------------------------------------------------------------------




--------------------------------------- Iteration      1(  10)  ---------------------------------------


    POTLOK:  cpu time      0.0077: real time      0.0078
    SETDIJ:  cpu time      0.2171: real time      0.2176
     EDDAV:  cpu time      0.3569: real time      0.3584
       DOS:  cpu time      0.0005: real time      0.0005
    CHARGE:  cpu time      0.0054: real time      0.0054
    MIXING:  cpu time      0.0005: real time      0.0005
    --------------------------------------------
      LOOP:  cpu time      0.5881: real time      0.5902

 eigenvalue-minimisations  :  3040
 total energy-change (2. order) :-0.1655105E-03  (-0.3477018E-04)
 number of electron      39.9999968 magnetization 
 augmentation part       -7.3580099 magnetization 

 Broyden mixing:
  rms(total) = 0.24863E-02    rms(broyden)= 0.24863E-02
  rms(prec ) = 0.30497E-02
  weight for this iteration     100.00

 eigenvalues of (default mixing * dielectric matrix)
  average eigenvalue GAMMA=   1.7695
  2.7680  2.5150  1.0751  1.2448  1.2448

 Free energy of the ion-electron system (eV)
  ---------------------------------------------------
  alpha Z        PSCENC =        83.74935623
  Ewald energy   TEWEN  =     -1381.46652716
  -Hartree energ DENC   =      -158.35331427
  -exchange      EXHF   =         0.00000000
  -V(xc)+E(xc)   XCENC  =       -32.45720997
  PAW double counting   =      1926.14139412    -1813.70052826
  entropy T*S    EENTRO =        -0.00000000
  eigenvalues    EBANDS =      -106.04813287
  atomic energy  EATOM  =      1448.48460880
  Solvation  Ediel_sol  =         0.00000000
  ---------------------------------------------------
  free energy    TOTEN  =       -33.65035338 eV

  energy without entropy =      -33.65035338  energy(sigma->0) =      -33.65035338


--------------------------------------------------------------------------------------------------------




--------------------------------------- Iteration      1(  11)  ---------------------------------------


    POTLOK:  cpu time      0.0076: real time      0.0077
    SETDIJ:  cpu time      0.2171: real time      0.2175
     EDDAV:  cpu time      0.3515: real time      0.3527
       DOS:  cpu time      0.0005: real time      0.0005
    CHARGE:  cpu time      0.0054: real time      0.0054
    MIXING:  cpu time      0.0009: real time      0.0009
    --------------------------------------------
      LOOP:  cpu time      0.5829: real time      0.5847

 eigenvalue-minimisations  :  3056
 total energy-change (2. order) :-0.4469628E-04  (-0.5582164E-05)
 number of electron      39.9999968 magnetization 
 augmentation part       -7.3582371 magnetization 

 Broyden mixing:
  rms(total) = 0.12390E-02    rms(broyden)= 0.12390E-02
  rms(prec ) = 0.14125E-02
  weight for this iteration     100.00

 eigenvalues of (default mixing * dielectric matrix)
  average eigenvalue GAMMA=   1.7338
  2.6045  2.6045  1.9243  1.1642  1.1642  0.9411

 Free energy of the ion-electron system (eV)
  ---------------------------------------------------
  alpha Z        PSCENC =        83.74935623
  Ewald energy   TEWEN  =     -1381.46652716
  -Hartree energ DENC   =      -158.38663165
  -exchange      EXHF   =         0.00000000
  -V(xc)+E(xc)   XCENC  =       -32.45021701
  PAW double counting   =      1927.48978602    -1815.04891930
  entropy T*S    EENTRO =        -0.00000000
  eigenvalues    EBANDS =      -106.02185400
  atomic energy  EATOM  =      1448.48460880
  Solvation  Ediel_sol  =         0.00000000
  ---------------------------------------------------
  free energy    TOTEN  =       -33.65039807 eV

  energy without entropy =      -33.65039807  energy(sigma->0) =      -33.65039807


--------------------------------------------------------------------------------------------------------




--------------------------------------- Iteration      1(  12)  ---------------------------------------


    POTLOK:  cpu time      0.0079: real time      0.0081
    SETDIJ:  cpu time      0.2164: real time      0.2170
     EDDAV:  cpu time      0.4153: real time      0.4169
       DOS:  cpu time      0.0102: real time      0.0102
    CHARGE:  cpu time      0.0056: real time      0.0056
    MIXING:  cpu time      0.0005: real time      0.0005
    --------------------------------------------
      LOOP:  cpu time      0.6560: real time      0.6584

 eigenvalue-minimisations  :  3264
 total energy-change (2. order) :-0.1648249E-05  (-0.8003732E-06)
 number of electron      39.9999968 magnetization 
 augmentation part       -7.3581209 magnetization 

 Broyden mixing:
  rms(total) = 0.26475E-03    rms(broyden)= 0.26475E-03
  rms(prec ) = 0.32344E-03
  weight for this iteration     100.00

 eigenvalues of (default mixing * dielectric matrix)
  average eigenvalue GAMMA=   1.7031
  2.9477  2.4262  1.9999  0.9745  1.2788  1.1474  1.1474

 Free energy of the ion-electron system (eV)
  ---------------------------------------------------
  alpha Z        PSCENC =        83.74935623
  Ewald energy   TEWEN  =     -1381.46652716
  -Hartree energ DENC   =      -158.40264619
  -exchange      EXHF   =         0.00000000
  -V(xc)+E(xc)   XCENC  =       -32.44904782
  PAW double counting   =      1926.71511601    -1814.27412501
  entropy T*S    EENTRO =        -0.00000000
  eigenvalues    EBANDS =      -106.00713459
  atomic energy  EATOM  =      1448.48460880
  Solvation  Ediel_sol  =         0.00000000
  ---------------------------------------------------
  free energy    TOTEN  =       -33.65039972 eV

  energy without entropy =      -33.65039972  energy(sigma->0) =      -33.65039972


--------------------------------------------------------------------------------------------------------




--------------------------------------- Iteration      1(  13)  ---------------------------------------


    POTLOK:  cpu time      0.0092: real time      0.0093
    SETDIJ:  cpu time      0.2158: real time      0.2162
     EDDAV:  cpu time      0.2743: real time      0.2752
       DOS:  cpu time      0.0005: real time      0.0005
    CHARGE:  cpu time      0.0054: real time      0.0054
    MIXING:  cpu time      0.0006: real time      0.0006
    --------------------------------------------
      LOOP:  cpu time      0.5058: real time      0.5073

 eigenvalue-minimisations  :  1968
 total energy-change (2. order) :-0.1009591E-05  (-0.1224399E-06)
 number of electron      39.9999968 magnetization 
 augmentation part       -7.3580917 magnetization 

 Broyden mixing:
  rms(total) = 0.12789E-03    rms(broyden)= 0.12789E-03
  rms(prec ) = 0.15023E-03
  weight for this iteration     100.00

 eigenvalues of (default mixing * dielectric matrix)
  average eigenvalue GAMMA=   1.7684
  3.0863  2.4777  2.1150  2.1150  1.1511  1.1511  0.9595  1.0919

 Free energy of the ion-electron system (eV)
  ---------------------------------------------------
  alpha Z        PSCENC =        83.74935623
  Ewald energy   TEWEN  =     -1381.46652716
  -Hartree energ DENC   =      -158.40726443
  -exchange      EXHF   =         0.00000000
  -V(xc)+E(xc)   XCENC  =       -32.44841454
  PAW double counting   =      1926.84979071    -1814.40879839
  entropy T*S    EENTRO =        -0.00000000
  eigenvalues    EBANDS =      -106.00315195
  atomic energy  EATOM  =      1448.48460880
  Solvation  Ediel_sol  =         0.00000000
  ---------------------------------------------------
  free energy    TOTEN  =       -33.65040073 eV

  energy without entropy =      -33.65040073  energy(sigma->0) =      -33.65040073


--------------------------------------------------------------------------------------------------------




--------------------------------------- Iteration      1(  14)  ---------------------------------------


    POTLOK:  cpu time      0.0076: real time      0.0077
    SETDIJ:  cpu time      0.2173: real time      0.2178
     EDDAV:  cpu time      0.2465: real time      0.2473
       DOS:  cpu time      0.0005: real time      0.0005
    --------------------------------------------
      LOOP:  cpu time      0.4719: real time      0.4734

 eigenvalue-minimisations  :  1536
 total energy-change (2. order) :-0.2001170E-06  (-0.2883102E-07)
 number of electron      39.9999968 magnetization 
 augmentation part       -7.3580917 magnetization 

 Free energy of the ion-electron system (eV)
  ---------------------------------------------------
  alpha Z        PSCENC =        83.74935623
  Ewald energy   TEWEN  =     -1381.46652716
  -Hartree energ DENC   =      -158.40997198
  -exchange      EXHF   =         0.00000000
  -V(xc)+E(xc)   XCENC  =       -32.44829448
  PAW double counting   =      1926.80375205    -1814.36276566
  entropy T*S    EENTRO =        -0.00000000
  eigenvalues    EBANDS =      -106.00055874
  atomic energy  EATOM  =      1448.48460880
  Solvation  Ediel_sol  =         0.00000000
  ---------------------------------------------------
  free energy    TOTEN  =       -33.65040093 eV

  energy without entropy =      -33.65040093  energy(sigma->0) =      -33.65040093


--------------------------------------------------------------------------------------------------------




 average (electrostatic) potential at core
  the test charge radii are     1.1631  1.0808
  (the norm of the test charge is              1.0000)
       1 -33.7785       2 -33.7785       3 -33.7785       4 -33.7785       5 -55.2881
       6 -55.2881       7 -55.2881       8 -55.2881
 
 
 
 E-fermi :   3.3455     XC(G=0):  -9.0619     alpha+bet : -8.3433

 Fermi energy:         3.3454702515

 k-point     1 :       0.0000    0.0000    0.0000
  band No.  band energies     occupation 
      1     -11.2261      2.00000
      2     -10.9751      2.00000
      3      -9.9829      2.00000
      4      -9.5851      2.00000
      5      -4.8795      2.00000
      6      -4.5116      2.00000
      7      -2.8461      2.00000
      8      -2.6115      2.00000
      9      -2.1166      2.00000
     10      -0.7242      2.00000
     11      -0.4357      2.00000
     12      -0.3555      2.00000
     13      -0.0804      2.00000
     14       0.1702      2.00000
     15       0.9210      2.00000
     16       1.1351      2.00000
     17       1.5169      2.00000
     18       1.7475      2.00000
     19       1.9496      2.00000
     20       3.1160      2.00000
     21       3.6038      0.00000
     22       5.2997      0.00000
     23       5.6399      0.00000
     24       5.7255      0.00000
     25       6.0785      0.00000
     26       6.3094      0.00000
     27       6.7524      0.00000
     28       6.8648      0.00000
     29       7.6270      0.00000
     30       8.1632      0.00000
     31       8.2807      0.00000
     32       8.3563      0.00000

 k-point     2 :       0.1667    0.0000    0.0000
  band No.  band energies     occupation 
      1     -11.0423      2.00000
      2     -10.7955      2.00000
      3      -9.8826      2.00000
      4      -9.5119      2.00000
      5      -5.1358      2.00000
      6      -4.7055      2.00000
      7      -3.3909      2.00000
      8      -3.0086      2.00000
      9      -1.9037      2.00000
     10      -0.5440      2.00000
     11      -0.4497      2.00000
     12      -0.3267      2.00000
     13      -0.2585      2.00000
     14       0.1842      2.00000
     15       0.9692      2.00000
     16       1.0373      2.00000
     17       1.1213      2.00000
     18       1.8369      2.00000
     19       2.1352      2.00000
     20       2.9905      2.00000
     21       3.6694      0.00000
     22       5.4162      0.00000
     23       5.4621      0.00000
     24       5.9031      0.00000
     25       6.1904      0.00000
     26       6.2725      0.00000
     27       6.5049      0.00000
     28       6.6128      0.00000
     29       7.2003      0.00000
     30       7.4568      0.00000
     31       7.6541      0.00000
     32       8.4937      0.00000

 k-point     3 :       0.3333    0.0000    0.0000
  band No.  band energies     occupation 
      1     -10.5478      2.00000
      2     -10.3124      2.00000
      3      -9.7436      2.00000
      4      -9.4502      2.00000
      5      -5.6221      2.00000
      6      -5.0692      2.00000
      7      -4.5672      2.00000
      8      -4.0110      2.00000
      9      -1.3084      2.00000
     10      -0.4843      2.00000
     11      -0.3742      2.00000
     12       0.1476      2.00000
     13       0.1571      2.00000
     14       0.6126      2.00000
     15       0.8984      2.00000
     16       1.0091      2.00000
     17       1.3127      2.00000
     18       1.3689      2.00000
     19       2.2587      2.00000
     20       2.5931      2.00000
     21       3.9810      0.00000
     22       4.0270      0.00000
     23       4.4889      0.00000
     24       4.9724      0.00000
     25       5.3543      0.00000
     26       5.3768      0.00000
     27       5.4625      0.00000
     28       6.1856      0.00000
     29       6.4476      0.00000
     30       6.6554      0.00000
     31       7.1770      0.00000
     32       8.5087      0.00000

 k-point     4 :       0.5000    0.0000    0.0000
  band No.  band energies     occupation 
      1      -9.9727      2.00000
      2      -9.9727      2.00000
      3      -9.7386      2.00000
      4      -9.7386      2.00000
      5      -5.5142      2.00000
      6      -5.5142      2.00000
      7      -4.8998      2.00000
      8      -4.8998      2.00000
      9      -0.5795      2.00000
     10      -0.5795      2.00000
     11       0.1294      2.00000
     12       0.1294      2.00000
     13       0.7271      2.00000
     14       0.7271      2.00000
     15       0.9747      2.00000
     16       0.9747      2.00000
     17       1.1949      2.00000
     18       1.1949      2.00000
     19       2.1357      2.00000
     20       2.1357      2.00000
     21       3.8373      0.00000
     22       3.8373      0.00000
     23       4.6405      0.00000
     24       4.6405      0.00000
     25       4.8039      0.00000
     26       4.8039      0.00000
     27       5.1567      0.00000
     28       5.1567      0.00000
     29       5.6197      0.00000
     30       5.6197      0.00000
     31       7.8794      0.00000
     32       7.8794      0.00000

 k-point     5 :       0.0000    0.1667    0.0000
  band No.  band energies     occupation 
      1     -11.1151      2.00000
      2     -10.8645      2.00000
      3     -10.0022      2.00000
      4      -9.6303      2.00000
      5      -5.1600      2.00000
      6      -4.6906      2.00000
      7      -3.5527      2.00000
      8      -3.1084      2.00000
      9      -1.8414      2.00000
     10      -0.2889      2.00000
     11      -0.0010      2.00000
     12       0.0546      2.00000
     13       0.0753      2.00000
     14       0.3031      2.00000
     15       1.1611      2.00000
     16       1.4545      2.00000
     17       1.5303      2.00000
     18       1.5812      2.00000
     19       2.1654      2.00000
     20       2.9240      2.00000
     21       3.7801      0.00000
     22       5.0070      0.00000
     23       5.3243      0.00000
     24       5.7762      0.00000
     25       5.8653      0.00000
     26       6.1906      0.00000
     27       6.4505      0.00000
     28       6.5574      0.00000
     29       7.1685      0.00000
     30       7.4964      0.00000
     31       7.9088      0.00000
     32       8.5861      0.00000

 k-point     6 :       0.1667    0.1667    0.0000
  band No.  band energies     occupation 
      1     -10.9372      2.00000
      2     -10.6904      2.00000
      3      -9.9015      2.00000
      4      -9.5537      2.00000
      5      -5.2449      2.00000
      6      -4.8013      2.00000
      7      -3.7298      2.00000
      8      -3.3998      2.00000
      9      -1.6859      2.00000
     10      -0.9477      2.00000
     11      -0.8926      2.00000
     12      -0.2022      2.00000
     13       0.5136      2.00000
     14       0.6089      2.00000
     15       0.8244      2.00000
     16       0.9488      2.00000
     17       1.6871      2.00000
     18       1.6951      2.00000
     19       2.4198      2.00000
     20       2.7454      2.00000
     21       3.9362      0.00000
     22       4.8790      0.00000
     23       5.1417      0.00000
     24       5.5355      0.00000
     25       5.9041      0.00000
     26       6.4379      0.00000
     27       6.4792      0.00000
     28       6.8295      0.00000
     29       7.3903      0.00000
     30       7.4011      0.00000
     31       7.4336      0.00000
     32       8.0786      0.00000

 k-point     7 :       0.1667   -0.1667    0.0000
  band No.  band energies     occupation 
      1     -10.9366      2.00000
      2     -10.6910      2.00000
      3      -9.9019      2.00000
      4      -9.5526      2.00000
      5      -5.2634      2.00000
      6      -4.7831      2.00000
      7      -3.7951      2.00000
      8      -3.3245      2.00000
      9      -1.6758      2.00000
     10      -0.9410      2.00000
     11      -0.8791      2.00000
     12      -0.2421      2.00000
     13       0.5064      2.00000
     14       0.6139      2.00000
     15       0.8643      2.00000
     16       0.8982      2.00000
     17       1.6696      2.00000
     18       1.7037      2.00000
     19       2.3603      2.00000
     20       2.8766      2.00000
     21       3.8789      0.00000
     22       4.8603      0.00000
     23       5.1492      0.00000
     24       5.4468      0.00000
     25       6.0141      0.00000
     26       6.4620      0.00000
     27       6.5871      0.00000
     28       6.6988      0.00000
     29       7.2659      0.00000
     30       7.2906      0.00000
     31       7.5369      0.00000
     32       8.4010      0.00000

 k-point     8 :       0.3333    0.1667    0.0000
  band No.  band energies     occupation 
      1     -10.4641      2.00000
      2     -10.2283      2.00000
      3      -9.7498      2.00000
      4      -9.4697      2.00000
      5      -5.5203      2.00000
      6      -5.0247      2.00000
      7      -4.5635      2.00000
      8      -4.1153      2.00000
      9      -1.2524      2.00000
     10      -1.2052      2.00000
     11      -1.1114      2.00000
     12      -0.2438      2.00000
     13       0.3390      2.00000
     14       0.5780      2.00000
     15       0.6170      2.00000
     16       0.9484      2.00000
     17       1.1221      2.00000
     18       1.6155      2.00000
     19       2.0439      2.00000
     20       2.4955      2.00000
     21       4.0332      0.00000
     22       4.6946      0.00000
     23       4.7237      0.00000
     24       5.1106      0.00000
     25       5.3585      0.00000
     26       5.5944      0.00000
     27       6.4490      0.00000
     28       6.5549      0.00000
     29       6.9104      0.00000
     30       7.3295      0.00000
     31       7.8529      0.00000
     32       8.0262      0.00000

 k-point     9 :       0.3333   -0.1667    0.0000
  band No.  band energies     occupation 
      1     -10.4625      2.00000
      2     -10.2299      2.00000
      3      -9.7518      2.00000
      4      -9.4665      2.00000
      5      -5.5385      2.00000
      6      -5.0067      2.00000
      7      -4.6015      2.00000
      8      -4.0722      2.00000
      9      -1.2957      2.00000
     10      -1.1865      2.00000
     11      -1.0415      2.00000
     12      -0.2688      2.00000
     13       0.3162      2.00000
     14       0.4895      2.00000
     15       0.5929      2.00000
     16       1.0704      2.00000
     17       1.1241      2.00000
     18       1.6272      2.00000
     19       1.9468      2.00000
     20       2.6015      2.00000
     21       3.9825      0.00000
     22       4.6391      0.00000
     23       4.7173      0.00000
     24       5.1969      0.00000
     25       5.3700      0.00000
     26       5.6041      0.00000
     27       6.4141      0.00000
     28       6.5414      0.00000
     29       6.7956      0.00000
     30       7.3894      0.00000
     31       8.0042      0.00000
     32       8.1130      0.00000

 k-point    10 :       0.5000    0.1667    0.0000
  band No.  band energies     occupation 
      1      -9.9349      2.00000
      2      -9.9320      2.00000
      3      -9.7036      2.00000
      4      -9.7001      2.00000
      5      -5.4101      2.00000
      6      -5.4075      2.00000
      7      -4.8496      2.00000
      8      -4.8462      2.00000
      9      -0.8101      2.00000
     10      -0.7687      2.00000
     11      -0.5628      2.00000
     12      -0.4794      2.00000
     13       0.0102      2.00000
     14       0.0991      2.00000
     15       0.5930      2.00000
     16       0.6224      2.00000
     17       1.0680      2.00000
     18       1.0861      2.00000
     19       2.2538      2.00000
     20       2.3267      2.00000
     21       4.1244      0.00000
     22       4.1484      0.00000
     23       4.9741      0.00000
     24       5.0633      0.00000
     25       5.5135      0.00000
     26       5.6607      0.00000
     27       6.0288      0.00000
     28       6.0781      0.00000
     29       6.5950      0.00000
     30       6.6685      0.00000
     31       7.4706      0.00000
     32       7.4795      0.00000

 k-point    11 :       0.0000    0.3333    0.0000
  band No.  band energies     occupation 
      1     -10.8136      2.00000
      2     -10.5612      2.00000
      3     -10.1249      2.00000
      4      -9.8117      2.00000
      5      -5.4800      2.00000
      6      -4.8888      2.00000
      7      -4.5846      2.00000
      8      -3.9895      2.00000
      9      -1.3248      2.00000
     10       0.1622      2.00000
     11       0.4258      2.00000
     12       0.6629      2.00000
     13       0.6738      2.00000
     14       0.8853      2.00000
     15       1.1454      2.00000
     16       1.3663      2.00000
     17       1.4408      2.00000
     18       2.4286      2.00000
     19       2.4306      2.00000
     20       2.9280      2.00000
     21       3.9944      0.00000
     22       4.3189      0.00000
     23       4.6978      0.00000
     24       5.1010      0.00000
     25       5.5387      0.00000
     26       5.7580      0.00000
     27       6.0679      0.00000
     28       6.3542      0.00000
     29       6.3597      0.00000
     30       6.9159      0.00000
     31       7.2003      0.00000
     32       8.4486      0.00000

 k-point    12 :       0.1667    0.3333    0.0000
  band No.  band energies     occupation 
      1     -10.6533      2.00000
      2     -10.4049      2.00000
      3     -10.0155      2.00000
      4      -9.7182      2.00000
      5      -5.3913      2.00000
      6      -4.8599      2.00000
      7      -4.5258      2.00000
      8      -4.0565      2.00000
      9      -1.1776      2.00000
     10      -0.9833      2.00000
     11      -0.7862      2.00000
     12      -0.1452      2.00000
     13       0.2589      2.00000
     14       0.4514      2.00000
     15       0.8545      2.00000
     16       1.4807      2.00000
     17       1.7272      2.00000
     18       1.9955      2.00000
     19       2.4952      2.00000
     20       2.6022      2.00000
     21       4.3026      0.00000
     22       4.9166      0.00000
     23       5.2520      0.00000
     24       5.3782      0.00000
     25       5.4775      0.00000
     26       6.0344      0.00000
     27       6.5675      0.00000
     28       6.6381      0.00000
     29       7.0376      0.00000
     30       7.5061      0.00000
     31       7.6596      0.00000
     32       7.8012      0.00000

 k-point    13 :       0.1667   -0.3333    0.0000
  band No.  band energies     occupation 
      1     -10.6521      2.00000
      2     -10.4062      2.00000
      3     -10.0166      2.00000
      4      -9.7163      2.00000
      5      -5.3981      2.00000
      6      -4.8558      2.00000
      7      -4.5652      2.00000
      8      -4.0104      2.00000
      9      -1.1582      2.00000
     10      -0.9335      2.00000
     11      -0.8056      2.00000
     12      -0.1986      2.00000
     13       0.2744      2.00000
     14       0.3531      2.00000
     15       0.8613      2.00000
     16       1.5900      2.00000
     17       1.8296      2.00000
     18       1.9714      2.00000
     19       2.3753      2.00000
     20       2.6008      2.00000
     21       4.2941      0.00000
     22       4.8761      0.00000
     23       5.2774      0.00000
     24       5.4075      0.00000
     25       5.4602      0.00000
     26       6.0902      0.00000
     27       6.5065      0.00000
     28       6.6048      0.00000
     29       6.9589      0.00000
     30       7.4514      0.00000
     31       7.7191      0.00000
     32       8.0750      0.00000

 k-point    14 :       0.3333    0.3333    0.0000
  band No.  band energies     occupation 
      1     -10.2456      2.00000
      2     -10.0093      2.00000
      3      -9.8105      2.00000
      4      -9.5565      2.00000
      5      -5.2756      2.00000
      6      -4.8894      2.00000
      7      -4.6556      2.00000
      8      -4.3950      2.00000
      9      -1.7334      2.00000
     10      -1.6676      2.00000
     11      -1.0305      2.00000
     12      -0.8033      2.00000
     13      -0.6406      2.00000
     14       0.0316      2.00000
     15       0.3426      2.00000
     16       0.5992      2.00000
     17       0.6958      2.00000
     18       1.5079      2.00000
     19       2.0058      2.00000
     20       2.4112      2.00000
     21       4.3361      0.00000
     22       5.5726      0.00000
     23       5.8589      0.00000
     24       5.9634      0.00000
     25       6.2860      0.00000
     26       6.4453      0.00000
     27       6.5787      0.00000
     28       7.1305      0.00000
     29       7.6497      0.00000
     30       7.8159      0.00000
     31       8.7331      0.00000
     32       9.0382      0.00000

 k-point    15 :       0.3333   -0.3333    0.0000
  band No.  band energies     occupation 
      1     -10.2424      2.00000
      2     -10.0127      2.00000
      3      -9.8142      2.00000
      4      -9.5514      2.00000
      5      -5.2937      2.00000
      6      -4.8732      2.00000
      7      -4.7293      2.00000
      8      -4.3115      2.00000
      9      -1.7653      2.00000
     10      -1.6101      2.00000
     11      -1.0672      2.00000
     12      -0.7498      2.00000
     13      -0.6420      2.00000
     14      -0.0521      2.00000
     15       0.1895      2.00000
     16       0.7622      2.00000
     17       0.8244      2.00000
     18       1.3881      2.00000
     19       1.8614      2.00000
     20       2.6420      2.00000
     21       4.2553      0.00000
     22       5.5696      0.00000
     23       5.7833      0.00000
     24       5.9136      0.00000
     25       6.1977      0.00000
     26       6.4671      0.00000
     27       6.8905      0.00000
     28       7.0670      0.00000
     29       7.6172      0.00000
     30       7.8336      0.00000
     31       8.7944      0.00000
     32       8.9204      0.00000

 k-point    16 :       0.5000    0.3333    0.0000
  band No.  band energies     occupation 
      1      -9.8544      2.00000
      2      -9.8490      2.00000
      3      -9.6288      2.00000
      4      -9.6222      2.00000
      5      -5.1488      2.00000
      6      -5.1404      2.00000
      7      -4.7791      2.00000
      8      -4.7685      2.00000
      9      -1.4561      2.00000
     10      -1.4251      2.00000
     11      -1.2163      2.00000
     12      -1.1524      2.00000
     13      -0.5985      2.00000
     14      -0.5765      2.00000
     15      -0.1608      2.00000
     16      -0.1582      2.00000
     17       0.6342      2.00000
     18       0.7748      2.00000
     19       2.0942      2.00000
     20       2.3280      2.00000
     21       4.9886      0.00000
     22       5.0496      0.00000
     23       6.2162      0.00000
     24       6.2851      0.00000
     25       6.5565      0.00000
     26       6.5934      0.00000
     27       6.8371      0.00000
     28       6.8538      0.00000
     29       7.9674      0.00000
     30       8.0655      0.00000
     31       8.5328      0.00000
     32       8.6562      0.00000

 k-point    17 :       0.0000    0.5000    0.0000
  band No.  band energies     occupation 
      1     -10.4270      2.00000
      2     -10.4270      2.00000
      3     -10.1591      2.00000
      4     -10.1591      2.00000
      5      -5.3043      2.00000
      6      -5.3043      2.00000
      7      -4.6667      2.00000
      8      -4.6667      2.00000
      9      -0.5808      2.00000
     10      -0.5808      2.00000
[...]
     32       7.3618      0.00000

 k-point    32 :       0.1667    0.3333    0.5000
  band No.  band energies     occupation 
      1     -10.5553      2.00000
      2     -10.5553      2.00000
      3      -9.8412      2.00000
      4      -9.8412      2.00000
      5      -5.1658      2.00000
      6      -5.1658      2.00000
      7      -4.2824      2.00000
      8      -4.2824      2.00000
      9      -1.0057      2.00000
     10      -1.0057      2.00000
     11      -0.3418      2.00000
     12      -0.3418      2.00000
     13       0.1759      2.00000
     14       0.1759      2.00000
     15       1.1615      2.00000
     16       1.1615      2.00000
     17       1.7977      2.00000
     18       1.7977      2.00000
     19       2.4134      2.00000
     20       2.4134      2.00000
     21       4.9165      0.00000
     22       4.9165      0.00000
     23       5.3193      0.00000
     24       5.3193      0.00000
     25       6.0444      0.00000
     26       6.0444      0.00000
     27       6.5775      0.00000
     28       6.5775      0.00000
     29       6.9924      0.00000
     30       6.9924      0.00000
     31       7.5995      0.00000
     32       7.5995      0.00000

 k-point    33 :       0.1667   -0.3333    0.5000
  band No.  band energies     occupation 
      1     -10.5551      2.00000
      2     -10.5551      2.00000
      3      -9.8412      2.00000
      4      -9.8412      2.00000
      5      -5.1729      2.00000
      6      -5.1729      2.00000
      7      -4.2760      2.00000
      8      -4.2760      2.00000
      9      -1.0261      2.00000
     10      -1.0261      2.00000
     11      -0.2946      2.00000
     12      -0.2946      2.00000
     13       0.1956      2.00000
     14       0.1956      2.00000
     15       1.1082      2.00000
     16       1.1082      2.00000
     17       1.8502      2.00000
     18       1.8502      2.00000
     19       2.3310      2.00000
     20       2.3311      2.00000
     21       4.9461      0.00000
     22       4.9461      0.00000
     23       5.3151      0.00000
     24       5.3151      0.00000
     25       6.0360      0.00000
     26       6.0360      0.00000
     27       6.5193      0.00000
     28       6.5193      0.00000
     29       7.1611      0.00000
     30       7.1611      0.00000
     31       7.6330      0.00000
     32       7.6330      0.00000

 k-point    34 :       0.3333    0.3333    0.5000
  band No.  band energies     occupation 
      1     -10.1586      2.00000
      2     -10.1586      2.00000
      3      -9.6527      2.00000
      4      -9.6527      2.00000
      5      -5.1012      2.00000
      6      -5.1012      2.00000
      7      -4.5176      2.00000
      8      -4.5176      2.00000
      9      -1.7419      2.00000
     10      -1.7419      2.00000
     11      -0.9259      2.00000
     12      -0.9259      2.00000
     13      -0.2285      2.00000
     14      -0.2285      2.00000
     15       0.6456      2.00000
     16       0.6456      2.00000
     17       0.9672      2.00000
     18       0.9672      2.00000
     19       1.9539      2.00000
     20       1.9539      2.00000
     21       5.1615      0.00000
     22       5.1615      0.00000
     23       5.8645      0.00000
     24       5.8645      0.00000
     25       6.6552      0.00000
     26       6.6552      0.00000
     27       6.8242      0.00000
     28       6.8242      0.00000
     29       7.6682      0.00000
     30       7.6682      0.00000
     31       8.7898      0.00000
     32       8.7898      0.00000

 k-point    35 :       0.3333   -0.3333    0.5000
  band No.  band energies     occupation 
      1     -10.1582      2.00000
      2     -10.1582      2.00000
      3      -9.6527      2.00000
      4      -9.6527      2.00000
      5      -5.1164      2.00000
      6      -5.1164      2.00000
      7      -4.5010      2.00000
      8      -4.5010      2.00000
      9      -1.7573      2.00000
     10      -1.7573      2.00000
     11      -0.8991      2.00000
     12      -0.8991      2.00000
     13      -0.2157      2.00000
     14      -0.2157      2.00000
     15       0.6255      2.00000
     16       0.6255      2.00000
     17       0.9904      2.00000
     18       0.9904      2.00000
     19       1.8979      2.00000
     20       1.8979      2.00000
     21       5.1537      0.00000
     22       5.1537      0.00000
     23       5.8892      0.00000
     24       5.8892      0.00000
     25       6.7335      0.00000
     26       6.7336      0.00000
     27       6.8828      0.00000
     28       6.8828      0.00000
     29       7.6544      0.00000
     30       7.6544      0.00000
     31       8.6443      0.00000
     32       8.6443      0.00000

 k-point    36 :       0.5000    0.3333    0.5000
  band No.  band energies     occupation 
      1      -9.8497      2.00000
      2      -9.8497      2.00000
      3      -9.6282      2.00000
      4      -9.6282      2.00000
      5      -5.0911      2.00000
      6      -5.0911      2.00000
      7      -4.8330      2.00000
      8      -4.8330      2.00000
      9      -1.5118      2.00000
     10      -1.5118      2.00000
     11      -1.1567      2.00000
     12      -1.1567      2.00000
     13      -0.5928      2.00000
     14      -0.5928      2.00000
     15      -0.1056      2.00000
     16      -0.1056      2.00000
     17       1.1396      2.00000
     18       1.1396      2.00000
     19       1.5778      2.00000
     20       1.5778      2.00000
     21       5.2663      0.00000
     22       5.2663      0.00000
     23       6.3728      0.00000
     24       6.3728      0.00000
     25       6.5232      0.00000
     26       6.5232      0.00000
     27       7.1111      0.00000
     28       7.1111      0.00000
     29       7.8635      0.00000
     30       7.8635      0.00000
     31       8.5073      0.00000
     32       8.5073      0.00000

 k-point    37 :       0.0000    0.5000    0.5000
  band No.  band energies     occupation 
      1     -10.4244      2.00000
      2     -10.4244      2.00000
      3     -10.1626      2.00000
      4     -10.1626      2.00000
      5      -5.1873      2.00000
      6      -5.1873      2.00000
      7      -4.8268      2.00000
      8      -4.8268      2.00000
      9      -0.0669      2.00000
     10      -0.0669      2.00000
     11       0.5338      2.00000
     12       0.5338      2.00000
     13       0.8789      2.00000
     14       0.8789      2.00000
     15       1.1179      2.00000
     16       1.1179      2.00000
     17       2.2578      2.00000
     18       2.2578      2.00000
     19       2.5460      2.00000
     20       2.5460      2.00000
     21       4.5004      0.00000
     22       4.5004      0.00000
     23       4.5266      0.00000
     24       4.5266      0.00000
     25       5.6190      0.00000
     26       5.6190      0.00000
     27       6.1102      0.00000
     28       6.1102      0.00000
     29       6.4807      0.00000
     30       6.4807      0.00000
     31       6.9583      0.00000
     32       6.9583      0.00000

 k-point    38 :       0.1667    0.5000    0.5000
  band No.  band energies     occupation 
      1     -10.2910      2.00000
      2     -10.2910      2.00000
      3     -10.0365      2.00000
      4     -10.0365      2.00000
      5      -5.0691      2.00000
      6      -5.0691      2.00000
      7      -4.7600      2.00000
      8      -4.7600      2.00000
      9      -0.6601      2.00000
     10      -0.6601      2.00000
     11      -0.3290      2.00000
     12      -0.3290      2.00000
     13       0.2620      2.00000
     14       0.2620      2.00000
     15       0.6602      2.00000
     16       0.6602      2.00000
     17       1.9146      2.00000
     18       1.9146      2.00000
     19       2.3906      2.00000
     20       2.3906      2.00000
     21       5.1337      0.00000
     22       5.1337      0.00000
     23       5.2992      0.00000
     24       5.2992      0.00000
     25       6.4121      0.00000
     26       6.4121      0.00000
     27       6.5604      0.00000
     28       6.5604      0.00000
     29       7.0033      0.00000
     30       7.0033      0.00000
     31       7.2125      0.00000
     32       7.2125      0.00000

 k-point    39 :       0.3333    0.5000    0.5000
  band No.  band energies     occupation 
      1      -9.9862      2.00000
      2      -9.9862      2.00000
      3      -9.7516      2.00000
      4      -9.7516      2.00000
      5      -4.8711      2.00000
      6      -4.8711      2.00000
      7      -4.7631      2.00000
      8      -4.7631      2.00000
      9      -1.5839      2.00000
     10      -1.5839      2.00000
     11      -1.5636      2.00000
     12      -1.5636      2.00000
     13      -0.1174      2.00000
     14      -0.1174      2.00000
     15       0.2251      2.00000
     16       0.2251      2.00000
     17       1.1011      2.00000
     18       1.1011      2.00000
     19       1.5705      2.00000
     20       1.5705      2.00000
     21       5.6711      0.00000
     22       5.6711      0.00000
     23       6.1526      0.00000
     24       6.1526      0.00000
     25       7.1526      0.00000
     26       7.1526      0.00000
     27       7.3176      0.00000
     28       7.3176      0.00000
     29       8.2050      0.00000
     30       8.2050      0.00000
     31       8.6651      0.00000
     32       8.6651      0.00000

 k-point    40 :       0.5000    0.5000    0.5000
  band No.  band energies     occupation 
      1      -9.8076      2.00000
      2      -9.8076      2.00000
      3      -9.5876      2.00000
      4      -9.5876      2.00000
      5      -4.9015      2.00000
      6      -4.9015      2.00000
      7      -4.8287      2.00000
      8      -4.8287      2.00000
      9      -1.7990      2.00000
     10      -1.7990      2.00000
     11      -1.4167      2.00000
     12      -1.4167      2.00000
     13      -0.8884      2.00000
     14      -0.8884      2.00000
     15      -0.5535      2.00000
     16      -0.5535      2.00000
     17       1.2029      2.00000
     18       1.2029      2.00000
     19       1.5365      2.00000
     20       1.5365      2.00000
     21       5.2538      0.00000
     22       5.2538      0.00000
     23       6.6227      0.00000
     24       6.6227      0.00000
     25       7.2947      0.00000
     26       7.2947      0.00000
     27       7.7910      0.00000
     28       7.7910      0.00000
     29       8.1310      0.00000
     30       8.1310      0.00000
     31       9.5310      0.00000
     32       9.5342      0.00000


--------------------------------------------------------------------------------------------------------


 soft charge-density along one line, spin component            1
         0         1         2         3         4         5         6         7         8         9
 total charge-density along one line
 
 pseudopotential strength for first ion, spin component:            1
 14.605  18.224   0.041   0.046   0.000   0.073   0.083   0.001
 18.224  22.755   0.051   0.058   0.000   0.092   0.105   0.001
  0.041   0.051   3.239  -0.002  -0.000   5.515  -0.004  -0.000
  0.046   0.058  -0.002   3.236   0.000  -0.004   5.511   0.000
  0.000   0.000  -0.000   0.000   3.241  -0.000   0.000   5.518
  0.073   0.092   5.515  -0.004  -0.000   9.448  -0.007  -0.000
  0.083   0.105  -0.004   5.511   0.000  -0.007   9.440   0.000
  0.001   0.001  -0.000   0.000   5.518  -0.000   0.000   9.452
  0.000   0.000   0.000  -0.000   0.007   0.000  -0.000   0.013
 -0.005  -0.007   0.012   0.013  -0.000   0.022   0.023  -0.000
 -0.004  -0.005  -0.003   0.012  -0.000  -0.006   0.022  -0.000
  0.000   0.000  -0.000   0.000   0.012  -0.000   0.000   0.022
  0.002   0.002  -0.012  -0.000   0.000  -0.022  -0.000   0.000
 total augmentation occupancy for first ion, spin component:            1
  2.722  -0.696   0.338   0.372   0.002  -0.063  -0.068  -0.000  -0.000  -0.008  -0.008  -0.000   0.007
 -0.696   0.667  -0.429  -0.489  -0.003   0.068   0.077   0.000   0.000   0.002   0.008   0.000  -0.003
  0.338  -0.429   1.231   0.054   0.000  -0.202   0.002   0.000   0.000   0.041  -0.098   0.001   0.001
  0.372  -0.489   0.054   1.304  -0.002   0.002  -0.207   0.000   0.000  -0.021   0.109   0.000  -0.002
  0.002  -0.003   0.000  -0.002   1.229   0.000   0.000  -0.211   0.145   0.000   0.000   0.038  -0.000
 -0.063   0.068  -0.202   0.002   0.000   0.037  -0.002  -0.000  -0.000  -0.007   0.017  -0.000   0.000
 -0.068   0.077   0.002  -0.207   0.000  -0.002   0.038  -0.000  -0.000   0.004  -0.019  -0.000   0.000
 -0.000   0.000   0.000   0.000  -0.211  -0.000  -0.000   0.040  -0.025  -0.000   0.000  -0.006   0.000
 -0.000   0.000   0.000   0.000   0.145  -0.000  -0.000  -0.025   0.031  -0.000   0.000   0.002   0.000
 -0.008   0.002   0.041  -0.021   0.000  -0.007   0.004  -0.000  -0.000   0.011  -0.006  -0.000   0.001
 -0.008   0.008  -0.098   0.109   0.000   0.017  -0.019   0.000   0.000  -0.006   0.030   0.000  -0.002
 -0.000   0.000   0.001   0.000   0.038  -0.000  -0.000  -0.006   0.002  -0.000   0.000   0.009   0.000
  0.007  -0.003   0.001  -0.002  -0.000   0.000   0.000   0.000   0.000   0.001  -0.002   0.000   0.008


------------------------ aborting loop because EDIFF is reached ----------------------------------------


    CHARGE:  cpu time      0.0054: real time      0.0054
    FORLOC:  cpu time      0.0002: real time      0.0002
    FORNL :  cpu time      0.0269: real time      0.0270
    STRESS:  cpu time      0.2748: real time      0.2756
    FORCOR:  cpu time      0.0068: real time      0.0068
    FORHAR:  cpu time      0.0015: real time      0.0015
    MIXING:  cpu time      0.0010: real time      0.0010
    OFIELD:  cpu time      0.0000: real time      0.0000

  FORCE on cell =-STRESS in cart. coord.  units (eV):
  Direction    XX          YY          ZZ          XY          YZ          ZX
  --------------------------------------------------------------------------------------
  Alpha Z    83.74936    83.74936    83.74936
  Ewald    -406.80770  -462.07364  -512.58699    -2.42801    -0.00000     0.00000
  Hartree    81.00076    54.40674    23.00208    -1.07106    -0.00000    -0.00000
  E(xc)    -140.97193  -140.95805  -141.38755    -0.02083     0.00000     0.00000
  Local    -234.93716  -158.66223   -81.50451     3.54550     0.00000    -0.00000
  n-local   240.52314   240.04082   241.70320    -0.00275    -0.00000     0.00000
  augment   -11.34879   -11.71850   -12.10315     0.00449    -0.00000     0.00000
  Kinetic   389.84687   395.87009   400.01703    -0.12630     0.00000    -0.00000
  Fock        0.00000     0.00000     0.00000     0.00000     0.00000     0.00000
  -------------------------------------------------------------------------------------
  Total       1.05455     0.65458     0.88947    -0.09896    -0.00000    -0.00000
  in kB       8.35087     5.18357     7.04364    -0.78364    -0.00000    -0.00001
  external pressure =        6.86 kB  Pullay stress =        0.00 kB


 VOLUME and BASIS-vectors are now :
 -----------------------------------------------------------------------------
  energy-cutoff  :      360.00
  volume of cell :      202.32
      direct lattice vectors                 reciprocal lattice vectors
     3.858100176  0.000000000  0.000000000     0.259194929  0.000000000  0.000000000
     0.000000000  4.526575088  0.000000000     0.000000000  0.220917577  0.000000000
     0.000000000  0.000000000 11.585176468     0.000000000  0.000000000  0.086317200

  length of vectors
     3.858100176  4.526575088 11.585176468     0.259194929  0.220917577  0.086317200


 FORCES acting on ions
    electron-ion (+dipol)            ewald-force                    non-local-force                 convergence-correction
 -----------------------------------------------------------------------------------------------
   -.149E+00 0.162E+02 0.332E+02   0.122E+00 -.187E+02 -.361E+02   0.155E-01 0.246E+01 0.299E+01   -.498E-05 0.345E-04 0.224E-03
   -.149E+00 0.162E+02 -.332E+02   0.122E+00 -.187E+02 0.361E+02   0.155E-01 0.246E+01 -.299E+01   -.522E-05 0.348E-04 -.224E-03
   0.149E+00 -.162E+02 -.332E+02   -.122E+00 0.187E+02 0.361E+02   -.154E-01 -.246E+01 -.299E+01   0.505E-05 -.353E-04 -.224E-03
   0.149E+00 -.162E+02 0.332E+02   -.122E+00 0.187E+02 -.361E+02   -.154E-01 -.246E+01 0.299E+01   0.513E-05 -.343E-04 0.225E-03
   0.175E+00 -.169E+02 -.328E+02   -.146E+00 0.184E+02 0.346E+02   -.440E-01 -.131E+01 -.188E+01   0.111E-04 -.614E-04 -.387E-03
   0.175E+00 -.169E+02 0.328E+02   -.146E+00 0.184E+02 -.346E+02   -.440E-01 -.131E+01 0.188E+01   0.105E-04 -.622E-04 0.385E-03
   -.175E+00 0.169E+02 0.328E+02   0.146E+00 -.184E+02 -.346E+02   0.437E-01 0.131E+01 0.188E+01   -.108E-04 0.618E-04 0.387E-03
   -.175E+00 0.169E+02 -.328E+02   0.146E+00 -.184E+02 0.346E+02   0.437E-01 0.131E+01 -.188E+01   -.106E-04 0.619E-04 -.385E-03
 -----------------------------------------------------------------------------------------------
   0.795E-04 0.121E-04 0.558E-06   0.483E-14 0.355E-14 -.711E-14   -.372E-03 0.102E-03 -.796E-06   0.173E-06 -.244E-06 0.784E-06
 
 
 POSITION                                       TOTAL-FORCE (eV/Angst)
 -----------------------------------------------------------------------------------
      2.64196      1.22288      1.52892        -0.011114     -0.073900      0.122223
      0.71291      3.48617      4.26367        -0.011113     -0.073900     -0.122221
      2.89357      4.09092     10.05626         0.011279      0.073935     -0.122255
      0.96452      1.82763      7.32150         0.011279      0.073936      0.122255
      2.64196      0.69428      4.06767        -0.014323      0.124307     -0.107151
      0.71291      2.95757      1.72492        -0.014323      0.124306      0.107149
      2.89357      0.09295      7.51751         0.014158     -0.124342      0.107554
      0.96452      2.35624      9.86026         0.014157     -0.124342     -0.107555
 -----------------------------------------------------------------------------------
    total drift:                               -0.000293      0.000114      0.000001


--------------------------------------------------------------------------------------------------------



  FREE ENERGIE OF THE ION-ELECTRON SYSTEM (eV)
  ---------------------------------------------------
  free  energy   TOTEN  =       -33.65040093 eV

  energy  without entropy=      -33.65040093  energy(sigma->0) =      -33.65040093
 


--------------------------------------------------------------------------------------------------------


    POTLOK:  cpu time      0.2238: real time      0.2246


--------------------------------------------------------------------------------------------------------


     LOOP+:  cpu time      8.1214: real time      8.1551
    4ORBIT:  cpu time      0.0000: real time      0.0000

 total amount of memory used by VASP MPI-rank0    37119. kBytes
=======================================================================

   base      :      30000. kBytes
   nonl-proj :       5406. kBytes
   fftplans  :        334. kBytes
   grid      :        503. kBytes
   one-center:         16. kBytes
   wavefun   :        860. kBytes
 
  
  
 General timing and accounting informations for this job:
 ========================================================
  
                  Total CPU time used (sec):        9.744
                            User time (sec):        9.483
                          System time (sec):        0.261
                         Elapsed time (sec):       10.043
  
                   Maximum memory used (kb):      174832.
                   Average memory used (kb):          N/A
  
                          Minor page faults:        18920
                          Major page faults:           74
                 Voluntary context switches:         1987
