 running   32 mpi-ranks, with    1 threads/rank, on    2 nodes
 distrk:  each k-point on   16 cores,    2 groups
 distr:  one band on    1 cores,   16 groups
 vasp.6.4.2 20Jul23 (build Oct 12 2023 10:31:02) complex                         
 POSCAR found type information on POSCAR GeSe
 POSCAR found :  2 types and       4 ions
 Reading from existing POTCAR
 -----------------------------------------------------------------------------
|                                                                             |
|           W    W    AA    RRRRR   N    N  II  N    N   GGGG   !!!           |
|           W    W   A  A   R    R  NN   N  II  NN   N  G    G  !!!           |
|           W    W  A    A  R    R  N N  N  II  N N  N  G       !!!           |
|           W WW W  AAAAAA  RRRRR   N  N N  II  N  N N  G  GGG   !            |
|           WW  WW  A    A  R   R   N   NN  II  N   NN  G    G                |
|           W    W  A    A  R    R  N    N  II  N    N   GGGG   !!!           |
|                                                                             |
|     You use a magnetic or noncollinear calculation, but did not specify     |
|     the initial magnetic moment with the MAGMOM tag. Note that a            |
|     default of 1 will be used for all atoms. This ferromagnetic setup       |
|     may break the symmetry of the crystal, in particular it may rule        |
|     out finding an antiferromagnetic solution. Thence, we recommend         |
|     setting the initial magnetic moment manually or verifying carefully     |
|     that this magnetic setup is desired.                                    |
|                                                                             |
 -----------------------------------------------------------------------------

 scaLAPACK will be used
 Reading from existing POTCAR
 LDA part: xc-table for Pade appr. of Perdew
 -----------------------------------------------------------------------------
|                                                                             |
|           W    W    AA    RRRRR   N    N  II  N    N   GGGG   !!!           |
|           W    W   A  A   R    R  NN   N  II  NN   N  G    G  !!!           |
|           W    W  A    A  R    R  N N  N  II  N N  N  G       !!!           |
|           W WW W  AAAAAA  RRRRR   N  N N  II  N  N N  G  GGG   !            |
|           WW  WW  A    A  R   R   N   NN  II  N   NN  G    G                |
|           W    W  A    A  R    R  N    N  II  N    N   GGGG   !!!           |
|                                                                             |
|     The number of bands has been changed from the values supplied in        |
|     the INCAR file. This is a result of running the parallel version.       |
|     The orbitals not found in the WAVECAR file will be initialized with     |
|     random numbers, which is usually adequate. For correlated               |
|     calculations, however, you should redo the groundstate calculation.     |
|     I found NBANDS = 220. Now, NBANDS = 224.                                |
|                                                                             |
 -----------------------------------------------------------------------------

 POSCAR, INCAR and KPOINTS ok, starting setup
 FFT: planning ... GRIDC
 FFT: planning ... GRID_SOFT
 FFT: planning ... GRID
 WAVECAR not read
 WARNING: random wavefunctions but no delay for mixing, default for NELMDL
 entering main loop
       N       E                     dE             d eps       ncg     rms          rms(c)
DAV:   1     0.969290339702E+02    0.96929E+02   -0.37393E+03 28672   0.589E+01
DAV:   2    -0.103042488419E+02   -0.10723E+03   -0.96729E+02 34320   0.212E+01
DAV:   3    -0.161997564517E+02   -0.58955E+01   -0.58257E+01 34480   0.500E+00
DAV:   4    -0.162381366358E+02   -0.38380E-01   -0.38372E-01 33632   0.372E-01
DAV:   5    -0.162383511457E+02   -0.21451E-03   -0.21450E-03 33312   0.290E-02    0.684E+00
DAV:   6    -0.119770344714E+02    0.42613E+01   -0.41492E+00 31840   0.103E+00    0.449E+00
DAV:   7    -0.113717787837E+02    0.60526E+00   -0.50457E-01 31824   0.404E-01    0.309E+00
DAV:   8    -0.118370242703E+02   -0.46525E+00   -0.14508E-01 33296   0.224E-01    0.209E+00
DAV:   9    -0.127640615496E+02   -0.92704E+00   -0.92022E-02 32336   0.181E-01    0.174E+00
DAV:  10    -0.145322257493E+02   -0.17682E+01   -0.41370E-01 31872   0.359E-01    0.122E+00
DAV:  11    -0.160667617877E+02   -0.15345E+01   -0.36862E-01 32096   0.324E-01    0.695E-01
DAV:  12    -0.163455606027E+02   -0.27880E+00   -0.49524E-02 32816   0.136E-01    0.450E-01
DAV:  13    -0.163309400641E+02    0.14621E-01   -0.19468E-02 31040   0.925E-02    0.261E-01
DAV:  14    -0.165478818263E+02   -0.21694E+00   -0.26679E-03 30992   0.432E-02    0.166E-01
DAV:  15    -0.166584141830E+02   -0.11053E+00   -0.11504E-03 31696   0.258E-02    0.115E-01
DAV:  16    -0.167221068487E+02   -0.63693E-01   -0.11039E-03 32032   0.215E-02    0.800E-02
DAV:  17    -0.167339780010E+02   -0.11871E-01   -0.31261E-04 32608   0.112E-02    0.588E-02
DAV:  18    -0.167413950853E+02   -0.74171E-02   -0.19350E-04 32288   0.884E-03    0.347E-02
DAV:  19    -0.167490920324E+02   -0.76969E-02   -0.68500E-05 31680   0.577E-03    0.221E-02
DAV:  20    -0.167540806114E+02   -0.49886E-02   -0.41537E-05 30848   0.525E-03    0.127E-02
DAV:  21    -0.167566663404E+02   -0.25857E-02   -0.24806E-05 30800   0.407E-03    0.755E-03
DAV:  22    -0.167585466845E+02   -0.18803E-02   -0.95549E-06 30320   0.269E-03    0.466E-03
DAV:  23    -0.167593611726E+02   -0.81449E-03   -0.62576E-06 31264   0.223E-03    0.276E-03
DAV:  24    -0.167596703559E+02   -0.30918E-03   -0.52750E-06 31024   0.200E-03    0.166E-03
DAV:  25    -0.167597708763E+02   -0.10052E-03   -0.48896E-06 30608   0.179E-03    0.941E-04
DAV:  26    -0.167598140542E+02   -0.43178E-04   -0.30302E-06 29520   0.131E-03    0.589E-04
DAV:  27    -0.167598399655E+02   -0.25911E-04   -0.69464E-07 30016   0.635E-04    0.344E-04
DAV:  28    -0.167598555673E+02   -0.15602E-04   -0.12159E-07 31616   0.301E-04    0.186E-04
DAV:  29    -0.167598654665E+02   -0.98992E-05   -0.30432E-08 33024   0.160E-04    0.128E-04
DAV:  30    -0.167598672800E+02   -0.18136E-05   -0.83223E-09 32000   0.882E-05    0.854E-05
DAV:  31    -0.167598687170E+02   -0.14370E-05   -0.77240E-10 32112   0.481E-05    0.557E-05
DAV:  32    -0.167598694836E+02   -0.76657E-06    0.16143E-10 32176   0.310E-05
   1 F= -.16759869E+02 E0= -.16759869E+02  d E =-.304697E-19  mag=     0.0000
 writing wavefunctions
