 running  160 mpi-ranks, with    1 threads/rank, on   10 nodes
 distrk:  each k-point on   80 cores,    2 groups
 distr:  one band on    5 cores,   16 groups
 vasp.6.4.2 20Jul23 (build Oct 12 2023 10:31:02) complex                         
 POSCAR found type information on POSCAR GeSe
 POSCAR found :  2 types and       8 ions
 Reading from existing POTCAR
 scaLAPACK will be used
 Reading from existing POTCAR
 LDA part: xc-table for Pade appr. of Perdew
 POSCAR, INCAR and KPOINTS ok, starting setup
 FFT: planning ... GRIDC
 FFT: planning ... GRID_SOFT
 FFT: planning ... GRID
 WAVECAR not read
 entering main loop
       N       E                     dE             d eps       ncg     rms          rms(c)
DAV:   1     0.132546655078E+03    0.13255E+03   -0.12879E+04  2560   0.772E+02
DAV:   2    -0.251882764409E+02   -0.15773E+03   -0.15316E+03  3776   0.139E+02
DAV:   3    -0.340327224024E+02   -0.88444E+01   -0.88275E+01  2960   0.384E+01
DAV:   4    -0.340979565059E+02   -0.65234E-01   -0.65216E-01  3440   0.378E+00
DAV:   5    -0.340984016960E+02   -0.44519E-03   -0.44519E-03  2976   0.305E-01    0.648E+00
DAV:   6    -0.336902574092E+02    0.40814E+00   -0.81948E-01  3120   0.304E+00    0.406E+00
DAV:   7    -0.336798351115E+02    0.10422E-01   -0.24560E-01  3232   0.175E+00    0.131E+00
DAV:   8    -0.336782709690E+02    0.15641E-02   -0.27280E-02  3056   0.611E-01    0.175E-01
DAV:   9    -0.336785796488E+02   -0.30868E-03   -0.38030E-03  3040   0.269E-01    0.650E-02
DAV:  10    -0.336787195842E+02   -0.13994E-03   -0.34852E-04  3104   0.810E-02    0.231E-02
DAV:  11    -0.336787526925E+02   -0.33108E-04   -0.43984E-05  2992   0.297E-02    0.123E-02
DAV:  12    -0.336787541156E+02   -0.14231E-05   -0.75336E-06  3328   0.111E-02    0.239E-03
DAV:  13    -0.336787548220E+02   -0.70644E-06   -0.10455E-06  1696   0.441E-03
   1 F= -.33678755E+02 E0= -.33678755E+02  d E =-.272631E-14
