 running  128 mpi-ranks, with    1 threads/rank, on    2 nodes
 distrk:  each k-point on   64 cores,    2 groups
 distr:  one band on    8 cores,    8 groups
 vasp.6.4.2 20Jul23 (build Oct 12 2023 10:31:02) complex                         
 POSCAR found type information on POSCAR GeSe
 POSCAR found :  2 types and      72 ions
 Reading from existing POTCAR
 -----------------------------------------------------------------------------
|                                                                             |
|           W    W    AA    RRRRR   N    N  II  N    N   GGGG   !!!           |
|           W    W   A  A   R    R  NN   N  II  NN   N  G    G  !!!           |
|           W    W  A    A  R    R  N N  N  II  N N  N  G       !!!           |
|           W WW W  AAAAAA  RRRRR   N  N N  II  N  N N  G  GGG   !            |
|           WW  WW  A    A  R   R   N   NN  II  N   NN  G    G                |
|           W    W  A    A  R    R  N    N  II  N    N   GGGG   !!!           |
|                                                                             |
|     You use a magnetic or noncollinear calculation, but did not specify     |
|     the initial magnetic moment with the MAGMOM tag. Note that a            |
|     default of 1 will be used for all atoms. This ferromagnetic setup       |
|     may break the symmetry of the crystal, in particular it may rule        |
|     out finding an antiferromagnetic solution. Thence, we recommend         |
|     setting the initial magnetic moment manually or verifying carefully     |
|     that this magnetic setup is desired.                                    |
|                                                                             |
 -----------------------------------------------------------------------------

 scaLAPACK will be used
 Reading from existing POTCAR
 -----------------------------------------------------------------------------
|                                                                             |
|               ----> ADVICE to this user running VASP <----                  |
|                                                                             |
|     You have a (more or less) 'large supercell' and for larger cells it     |
|     might be more efficient to use real-space projection operators.         |
|     Therefore, try LREAL= Auto in the INCAR file.                           |
|     Mind: For very accurate calculation, you might also keep the            |
|     reciprocal projection scheme (i.e. LREAL=.FALSE.).                      |
|                                                                             |
 -----------------------------------------------------------------------------

 LDA part: xc-table for Pade appr. of Perdew
 -----------------------------------------------------------------------------
|                                                                             |
|           W    W    AA    RRRRR   N    N  II  N    N   GGGG   !!!           |
|           W    W   A  A   R    R  NN   N  II  NN   N  G    G  !!!           |
|           W    W  A    A  R    R  N N  N  II  N N  N  G       !!!           |
|           W WW W  AAAAAA  RRRRR   N  N N  II  N  N N  G  GGG   !            |
|           WW  WW  A    A  R   R   N   NN  II  N   NN  G    G                |
|           W    W  A    A  R    R  N    N  II  N    N   GGGG   !!!           |
|                                                                             |
|     The number of bands has been changed from the values supplied in        |
|     the INCAR file. This is a result of running the parallel version.       |
|     The orbitals not found in the WAVECAR file will be initialized with     |
|     random numbers, which is usually adequate. For correlated               |
|     calculations, however, you should redo the groundstate calculation.     |
|     I found NBANDS = 220. Now, NBANDS = 224.                                |
|                                                                             |
 -----------------------------------------------------------------------------

 POSCAR, INCAR and KPOINTS ok, starting setup
 FFT: planning ... GRIDC
 FFT: planning ... GRID_SOFT
 FFT: planning ... GRID
 WAVECAR not read
 WARNING: random wavefunctions but no delay for mixing, default for NELMDL
 entering main loop
       N       E                     dE             d eps       ncg     rms          rms(c)
DAV:   1     0.181593509704E+04    0.18159E+04   -0.14197E+05  7168   0.135E+03
DAV:   2    -0.639009051549E+02   -0.18798E+04   -0.18044E+04  8464   0.205E+02
DAV:   3    -0.281831599932E+03   -0.21793E+03   -0.21222E+03  8592   0.692E+01
DAV:   4    -0.289590858500E+03   -0.77593E+01   -0.76687E+01  8704   0.130E+01
DAV:   5    -0.289876412683E+03   -0.28555E+00   -0.28478E+00  9032   0.211E+00    0.292E+01
DAV:   6    -0.289495474418E+03    0.38094E+00   -0.26483E+01  7928   0.765E+00    0.173E+01
DAV:   7    -0.296809843943E+03   -0.73144E+01   -0.86606E+00  8032   0.451E+00    0.912E+00
DAV:   8    -0.300033253661E+03   -0.32234E+01   -0.17477E+00  8184   0.227E+00    0.325E+00
DAV:   9    -0.300406555680E+03   -0.37330E+00   -0.42040E-01  9056   0.102E+00    0.147E+00
DAV:  10    -0.300504339409E+03   -0.97784E-01   -0.89788E-02  8112   0.456E-01    0.736E-01
DAV:  11    -0.300536002276E+03   -0.31663E-01   -0.36649E-02  8952   0.283E-01    0.287E-01
DAV:  12    -0.300539269555E+03   -0.32673E-02   -0.44321E-03  8552   0.119E-01    0.113E-01
DAV:  13    -0.300539414678E+03   -0.14512E-03   -0.64773E-04  9736   0.395E-02    0.492E-02
DAV:  14    -0.300539437021E+03   -0.22343E-04   -0.10331E-04  8288   0.198E-02    0.179E-02
DAV:  15    -0.300539440890E+03   -0.38684E-05   -0.19006E-05  8640   0.935E-03    0.781E-03
DAV:  16    -0.300539441356E+03   -0.46573E-06   -0.16578E-06  4808   0.283E-03
   1 F= -.30053944E+03 E0= -.30053944E+03  d E =-.447768E-14  mag=     0.0005
