 running  128 mpi-ranks, with    1 threads/rank, on    2 nodes
 distrk:  each k-point on   64 cores,    2 groups
 distr:  one band on    8 cores,    8 groups
 vasp.6.4.2 20Jul23 (build Oct 12 2023 10:31:02) complex                         
 POSCAR found type information on POSCAR GeSe
 POSCAR found :  2 types and      72 ions
 Reading from existing POTCAR
 -----------------------------------------------------------------------------
|                                                                             |
|           W    W    AA    RRRRR   N    N  II  N    N   GGGG   !!!           |
|           W    W   A  A   R    R  NN   N  II  NN   N  G    G  !!!           |
|           W    W  A    A  R    R  N N  N  II  N N  N  G       !!!           |
|           W WW W  AAAAAA  RRRRR   N  N N  II  N  N N  G  GGG   !            |
|           WW  WW  A    A  R   R   N   NN  II  N   NN  G    G                |
|           W    W  A    A  R    R  N    N  II  N    N   GGGG   !!!           |
|                                                                             |
|     You use a magnetic or noncollinear calculation, but did not specify     |
|     the initial magnetic moment with the MAGMOM tag. Note that a            |
|     default of 1 will be used for all atoms. This ferromagnetic setup       |
|     may break the symmetry of the crystal, in particular it may rule        |
|     out finding an antiferromagnetic solution. Thence, we recommend         |
|     setting the initial magnetic moment manually or verifying carefully     |
|     that this magnetic setup is desired.                                    |
|                                                                             |
 -----------------------------------------------------------------------------

 scaLAPACK will be used
 Reading from existing POTCAR
 -----------------------------------------------------------------------------
|                                                                             |
|               ----> ADVICE to this user running VASP <----                  |
|                                                                             |
|     You have a (more or less) 'large supercell' and for larger cells it     |
|     might be more efficient to use real-space projection operators.         |
|     Therefore, try LREAL= Auto in the INCAR file.                           |
|     Mind: For very accurate calculation, you might also keep the            |
|     reciprocal projection scheme (i.e. LREAL=.FALSE.).                      |
|                                                                             |
 -----------------------------------------------------------------------------

 LDA part: xc-table for Pade appr. of Perdew
 -----------------------------------------------------------------------------
|                                                                             |
|           W    W    AA    RRRRR   N    N  II  N    N   GGGG   !!!           |
|           W    W   A  A   R    R  NN   N  II  NN   N  G    G  !!!           |
|           W    W  A    A  R    R  N N  N  II  N N  N  G       !!!           |
|           W WW W  AAAAAA  RRRRR   N  N N  II  N  N N  G  GGG   !            |
|           WW  WW  A    A  R   R   N   NN  II  N   NN  G    G                |
|           W    W  A    A  R    R  N    N  II  N    N   GGGG   !!!           |
|                                                                             |
|     The number of bands has been changed from the values supplied in        |
|     the INCAR file. This is a result of running the parallel version.       |
|     The orbitals not found in the WAVECAR file will be initialized with     |
|     random numbers, which is usually adequate. For correlated               |
|     calculations, however, you should redo the groundstate calculation.     |
|     I found NBANDS = 220. Now, NBANDS = 224.                                |
|                                                                             |
 -----------------------------------------------------------------------------

 POSCAR, INCAR and KPOINTS ok, starting setup
 FFT: planning ... GRIDC
 FFT: planning ... GRID_SOFT
 FFT: planning ... GRID
 WAVECAR not read
 WARNING: random wavefunctions but no delay for mixing, default for NELMDL
 entering main loop
       N       E                     dE             d eps       ncg     rms          rms(c)
DAV:   1     0.181292911755E+04    0.18129E+04   -0.14203E+05  7168   0.135E+03
DAV:   2    -0.654670345313E+02   -0.18784E+04   -0.18028E+04  8528   0.205E+02
DAV:   3    -0.281878938278E+03   -0.21641E+03   -0.21059E+03  8584   0.690E+01
DAV:   4    -0.289648352844E+03   -0.77694E+01   -0.76837E+01  8744   0.129E+01
DAV:   5    -0.289928093836E+03   -0.27974E+00   -0.27901E+00  9088   0.209E+00    0.291E+01
DAV:   6    -0.289406888775E+03    0.52121E+00   -0.26843E+01  7952   0.765E+00    0.173E+01
DAV:   7    -0.296874211461E+03   -0.74673E+01   -0.86542E+00  7952   0.447E+00    0.908E+00
DAV:   8    -0.300097502593E+03   -0.32233E+01   -0.17516E+00  8168   0.226E+00    0.328E+00
DAV:   9    -0.300470485692E+03   -0.37298E+00   -0.42382E-01  9040   0.101E+00    0.147E+00
DAV:  10    -0.300571575625E+03   -0.10109E+00   -0.92809E-02  8136   0.460E-01    0.728E-01
DAV:  11    -0.300602230874E+03   -0.30655E-01   -0.35230E-02  8880   0.278E-01    0.287E-01
DAV:  12    -0.300605495953E+03   -0.32651E-02   -0.44539E-03  8568   0.117E-01    0.109E-01
DAV:  13    -0.300605617161E+03   -0.12121E-03   -0.59947E-04  9792   0.382E-02    0.463E-02
DAV:  14    -0.300605635898E+03   -0.18737E-04   -0.96226E-05  8280   0.189E-02    0.166E-02
DAV:  15    -0.300605639584E+03   -0.36858E-05   -0.15868E-05  8504   0.878E-03    0.758E-03
DAV:  16    -0.300605640179E+03   -0.59543E-06   -0.14407E-06  4896   0.262E-03
   1 F= -.30060564E+03 E0= -.30060564E+03  d E =-.542303E-14  mag=     0.0004
