 vasp.6.4.2 20Jul23 (build Oct 12 2023 10:31:02) complex                         
 executed on              LinuxNV date 2025.05.18  17:22:38
 running  160 mpi-ranks, with    1 threads/rank, on   10 nodes
 distrk:  each k-point on   80 cores,    2 groups
 distr:  one band on NCORE=   5 cores,   16 groups


--------------------------------------------------------------------------------------------------------


 INCAR:
   ENCUT = 520.000000
   SIGMA = 0.050000
   EDIFF = 1.00e-06
   ALGO = Normal
   GGA = PE
   PREC = Normal
   SYSTEM = ./
   ICHARG = 2
   ISMEAR = 0
   ISPIN = 1
   ISTART = 0
   ISYM = 0
   KPAR = 2
   LMAXMIX = 4
   NELM = 100
   NPAR = 16
   LASPH = .TRUE.
   LCHARG = .FALSE.
   LWAVE = .FALSE.

 POTCAR:    PAW_PBE Ge 05Jan2001                  
 POTCAR:    PAW_PBE Se 06Sep2000                  
 POTCAR:    PAW_PBE Ge 05Jan2001                  
   VRHFIN =Ge: s2p2                                                                                 
   LEXCH  = PE                                                                                      
   EATOM  =   104.9960 eV,    7.7170 Ry                                                             
                                                                                                    
   TITEL  = PAW_PBE Ge 05Jan2001                                                                    
   LULTRA =        F    use ultrasoft PP ?                                                          
   IUNSCR =        1    unscreen: 0-lin 1-nonlin 2-no                                               
   RPACOR =    2.170    partial core radius                                                         
   POMASS =   72.610; ZVAL   =    4.000    mass and valenz                                          
   RCORE  =    2.300    outmost cutoff radius                                                       
   RWIGS  =    2.300; RWIGS  =    1.217    wigner-seitz radius (au A)                               
   ENMAX  =  173.807; ENMIN  =  130.355 eV                                                          
   ICORE  =        3    local potential                                                             
   LCOR   =        T    correct aug charges                                                         
   LPAW   =        T    paw PP                                                                      
   EAUG   =  385.843                                                                                
   DEXC   =    0.000                                                                                
   RMAX   =    2.342    core radius for proj-oper                                                   
   RAUG   =    1.300    factor for augmentation sphere                                              
   RDEP   =    2.318    radius for radial grids                                                     
   RDEPT  =    2.103    core radius for aug-charge                                                  
                                                                                                    
   Atomic configuration                                                                             
   10 entries                                                                                       
     n  l   j            E        occ.                                                              
     1  0  0.50    -10959.8463   2.0000                                                             
     2  0  0.50     -1371.6056   2.0000                                                             
     2  1  1.50     -1198.4791   6.0000                                                             
     3  0  0.50      -168.4733   2.0000                                                             
     3  1  1.50      -115.6019   6.0000                                                             
     3  2  2.50       -29.3106  10.0000                                                             
     4  0  0.50       -11.7309   2.0000                                                             
     4  1  0.50        -3.8952   2.0000                                                             
     4  2  1.50        -4.0817   0.0000                                                             
     4  3  2.50        -4.0817   0.0000                                                             
   Description                                                                                      
     l       E           TYP  RCUT    TYP  RCUT                                                     
     0    -11.7309493     23  2.300                                                                 
     0     -7.4578696     23  2.300                                                                 
     1     -3.8952261     23  2.300                                                                 
     1      6.1178114     23  2.300                                                                 
     2     -4.0817478     23  2.300                                                                 
     3     -1.3605826      7  2.300                                                                 
  local pseudopotential read in
  partial core-charges read in
  partial kinetic energy density read in
  atomic valenz-charges read in
  non local Contribution for L=            0  read in
    real space projection operators read in
  non local Contribution for L=            0  read in
    real space projection operators read in
  non local Contribution for L=            1  read in
    real space projection operators read in
  non local Contribution for L=            1  read in
    real space projection operators read in
  non local Contribution for L=            2  read in
    real space projection operators read in
    PAW grid and wavefunctions read in
 
   number of l-projection  operators is LMAX  =            5
   number of lm-projection operators is LMMAX =           13
 
 POTCAR:    PAW_PBE Se 06Sep2000                  
   VRHFIN =Se: s2p4                                                                                 
   LEXCH  = PE                                                                                      
   EATOM  =   257.1286 eV,   18.8984 Ry                                                             
                                                                                                    
   TITEL  = PAW_PBE Se 06Sep2000                                                                    
   LULTRA =        F    use ultrasoft PP ?                                                          
   IUNSCR =        1    unscreen: 0-lin 1-nonlin 2-no                                               
   RPACOR =    1.900    partial core radius                                                         
   POMASS =   78.960; ZVAL   =    6.000    mass and valenz                                          
   RCORE  =    2.100    outmost cutoff radius                                                       
   RWIGS  =    2.200; RWIGS  =    1.164    wigner-seitz radius (au A)                               
   ENMAX  =  211.555; ENMIN  =  158.666 eV                                                          
   ICORE  =        3    local potential                                                             
   LCOR   =        T    correct aug charges                                                         
   LPAW   =        T    paw PP                                                                      
   EAUG   =  446.842                                                                                
   DEXC   =    0.000                                                                                
   RMAX   =    2.147    core radius for proj-oper                                                   
   RAUG   =    1.300    factor for augmentation sphere                                              
   RDEP   =    2.177    radius for radial grids                                                     
   RDEPT  =    1.928    core radius for aug-charge                                                  
                                                                                                    
   Atomic configuration                                                                             
   10 entries                                                                                       
     n  l   j            E        occ.                                                              
     1  0  0.50    -12503.4787   2.0000                                                             
     2  0  0.50     -1606.9547   2.0000                                                             
     2  1  1.50     -1413.3140   6.0000                                                             
     3  0  0.50      -213.4885   2.0000                                                             
     3  1  1.50      -152.9538   6.0000                                                             
     3  2  2.50       -53.1221  10.0000                                                             
     4  0  0.50       -17.2865   2.0000                                                             
     4  1  0.50        -6.5110   4.0000                                                             
     4  2  2.50        -6.8029   0.0000                                                             
     4  3  2.50        -6.8029   0.0000                                                             
   Description                                                                                      
     l       E           TYP  RCUT    TYP  RCUT                                                     
     0    -17.2865377     23  2.100                                                                 
     0    -15.3094411     23  2.100                                                                 
     1     -6.5110275     23  2.100                                                                 
     1     -0.0695192     23  2.100                                                                 
     2     -6.8029130     23  2.100                                                                 
     3     -1.3605826      7  2.100                                                                 
  local pseudopotential read in
  partial core-charges read in
  partial kinetic energy density read in
  atomic valenz-charges read in
  non local Contribution for L=            0  read in
    real space projection operators read in
  non local Contribution for L=            0  read in
    real space projection operators read in
  non local Contribution for L=            1  read in
    real space projection operators read in
  non local Contribution for L=            1  read in
    real space projection operators read in
  non local Contribution for L=            2  read in
    real space projection operators read in
    PAW grid and wavefunctions read in
 
   number of l-projection  operators is LMAX  =            5
   number of lm-projection operators is LMMAX =           13
 
  PAW_PBE Ge 05Jan2001                  :
 energy of atom  1       EATOM= -104.9960
 kinetic energy error for atom=    0.0002 (will be added to EATOM!!)
  PAW_PBE Se 06Sep2000                  :
 energy of atom  2       EATOM= -257.1286
 kinetic energy error for atom=    0.0007 (will be added to EATOM!!)
 
 
 POSCAR: Ge Se
  positions in cartesian coordinates
  No initial velocities read in
 exchange correlation table for  LEXCH =        8
   RHO(1)=    0.500       N(1)  =     2000
   RHO(2)=  100.500       N(2)  =     4000
 


--------------------------------------------------------------------------------------------------------


 ion  position               nearest neighbor table
   1  0.018  0.143  0.123-   6 2.60   6 2.60   5 2.60
   2  0.518  0.643  0.377-   5 2.60   5 2.60   6 2.60
   3  0.750  0.886  0.877-   8 2.60   8 2.60   7 2.60
   4  0.250  0.386  0.623-   7 2.60   7 2.60   8 2.60
   5  0.018  0.022  0.352-   2 2.60   2 2.60   1 2.60
   6  0.518  0.522  0.148-   1 2.60   1 2.60   2 2.60
   7  0.750  0.007  0.648-   4 2.60   4 2.60   3 2.60
   8  0.250  0.507  0.852-   3 2.60   3 2.60   4 2.60
 

IMPORTANT INFORMATION: All symmetrisations will be switched off!
NOSYMM: (Re-)initialisation of all symmetry stuff for point group C_1.


----------------------------------------------------------------------------------------

                                     Primitive cell                                     

  volume of cell :     193.5913

  direct lattice vectors                    reciprocal lattice vectors
     3.858100176  0.000000000  0.000000000     0.259194929  0.000000000  0.000000000
     0.000000000  4.526575088  0.000000000     0.000000000  0.220917577  0.000000000
     0.000000000  0.000000000 11.085176468     0.000000000  0.000000000  0.090210562

  length of vectors
     3.858100176  4.526575088 11.085176468     0.259194929  0.220917577  0.090210562

  position of ions in fractional coordinates (direct lattice)
     0.018115942  0.143105942  0.122982664
     0.518115942  0.643105942  0.377017336
     0.750000000  0.885879566  0.877017336
     0.250000000  0.385879566  0.622982664
     0.018115942  0.022295396  0.352381810
     0.518115942  0.522295396  0.147618190
     0.750000000  0.006690111  0.647618190
     0.250000000  0.506690111  0.852381810

  ion indices of the primitive-cell ions
   primitive index   ion index
                 1           1
                 2           2
                 3           3
                 4           4
                 5           5
                 6           6
                 7           7
                 8           8

----------------------------------------------------------------------------------------

 
 
 KPOINTS: KPOINTS created by Atomic Simulation Env

Automatic generation of k-mesh.
 Grid dimensions read from file:
 generate k-points for:    6    6    2

 Generating k-lattice:

  Cartesian coordinates                     Fractional coordinates (reciprocal lattice)
     0.043199155  0.000000000  0.000000000     0.166666667  0.000000000  0.000000000
     0.000000000  0.036819596  0.000000000     0.000000000  0.166666667  0.000000000
     0.000000000  0.000000000  0.045105281     0.000000000  0.000000000  0.500000000

  Length of vectors
     0.043199155  0.036819596  0.045105281

  Shift w.r.t. Gamma in fractional coordinates (k-lattice)
     0.000000000  0.000000000  0.000000000

 
 Subroutine IBZKPT returns following result:
 ===========================================
 
 Found     40 irreducible k-points:
 
 Following reciprocal coordinates:
            Coordinates               Weight
  0.000000  0.000000  0.000000      1.000000
  0.166667  0.000000  0.000000      2.000000
  0.333333  0.000000  0.000000      2.000000
  0.500000  0.000000  0.000000      1.000000
  0.000000  0.166667  0.000000      2.000000
  0.166667  0.166667  0.000000      2.000000
  0.166667 -0.166667  0.000000      2.000000
  0.333333  0.166667  0.000000      2.000000
  0.333333 -0.166667  0.000000      2.000000
  0.500000  0.166667  0.000000      2.000000
  0.000000  0.333333  0.000000      2.000000
  0.166667  0.333333  0.000000      2.000000
  0.166667 -0.333333  0.000000      2.000000
  0.333333  0.333333  0.000000      2.000000
  0.333333 -0.333333  0.000000      2.000000
  0.500000  0.333333  0.000000      2.000000
  0.000000  0.500000  0.000000      1.000000
  0.166667  0.500000  0.000000      2.000000
  0.333333  0.500000  0.000000      2.000000
  0.500000  0.500000  0.000000      1.000000
  0.000000  0.000000  0.500000      1.000000
  0.166667  0.000000  0.500000      2.000000
  0.333333  0.000000  0.500000      2.000000
  0.500000  0.000000  0.500000      1.000000
  0.000000  0.166667  0.500000      2.000000
  0.166667  0.166667  0.500000      2.000000
  0.166667 -0.166667  0.500000      2.000000
  0.333333  0.166667  0.500000      2.000000
  0.333333 -0.166667  0.500000      2.000000
  0.500000  0.166667  0.500000      2.000000
  0.000000  0.333333  0.500000      2.000000
  0.166667  0.333333  0.500000      2.000000
  0.166667 -0.333333  0.500000      2.000000
  0.333333  0.333333  0.500000      2.000000
  0.333333 -0.333333  0.500000      2.000000
  0.500000  0.333333  0.500000      2.000000
  0.000000  0.500000  0.500000      1.000000
  0.166667  0.500000  0.500000      2.000000
  0.333333  0.500000  0.500000      2.000000
  0.500000  0.500000  0.500000      1.000000
 
 Following cartesian coordinates:
            Coordinates               Weight
  0.000000  0.000000  0.000000      1.000000
  0.043199  0.000000  0.000000      2.000000
  0.086398  0.000000  0.000000      2.000000
  0.129597  0.000000  0.000000      1.000000
  0.000000  0.036820  0.000000      2.000000
  0.043199  0.036820  0.000000      2.000000
  0.043199 -0.036820  0.000000      2.000000
  0.086398  0.036820  0.000000      2.000000
  0.086398 -0.036820  0.000000      2.000000
  0.129597  0.036820  0.000000      2.000000
  0.000000  0.073639  0.000000      2.000000
  0.043199  0.073639  0.000000      2.000000
  0.043199 -0.073639  0.000000      2.000000
  0.086398  0.073639  0.000000      2.000000
  0.086398 -0.073639  0.000000      2.000000
  0.129597  0.073639  0.000000      2.000000
  0.000000  0.110459  0.000000      1.000000
  0.043199  0.110459  0.000000      2.000000
  0.086398  0.110459  0.000000      2.000000
  0.129597  0.110459  0.000000      1.000000
  0.000000  0.000000  0.045105      1.000000
  0.043199  0.000000  0.045105      2.000000
  0.086398  0.000000  0.045105      2.000000
  0.129597  0.000000  0.045105      1.000000
  0.000000  0.036820  0.045105      2.000000
  0.043199  0.036820  0.045105      2.000000
  0.043199 -0.036820  0.045105      2.000000
  0.086398  0.036820  0.045105      2.000000
  0.086398 -0.036820  0.045105      2.000000
  0.129597  0.036820  0.045105      2.000000
  0.000000  0.073639  0.045105      2.000000
  0.043199  0.073639  0.045105      2.000000
  0.043199 -0.073639  0.045105      2.000000
  0.086398  0.073639  0.045105      2.000000
  0.086398 -0.073639  0.045105      2.000000
  0.129597  0.073639  0.045105      2.000000
  0.000000  0.110459  0.045105      1.000000
  0.043199  0.110459  0.045105      2.000000
  0.086398  0.110459  0.045105      2.000000
  0.129597  0.110459  0.045105      1.000000
 


--------------------------------------------------------------------------------------------------------




 Dimension of arrays:
   k-points           NKPTS =     40   k-points in BZ     NKDIM =     40   number of bands    NBANDS=     32
   number of dos      NEDOS =    301   number of ions     NIONS =      8
   non local maximal  LDIM  =      5   non local SUM 2l+1 LMDIM =     13
   total plane-waves  NPLWV =  43008
   max r-space proj   IRMAX =      1   max aug-charges    IRDMAX=  12272
   dimension x,y,z NGX =    24 NGY =   28 NGZ =   64
   dimension x,y,z NGXF=    48 NGYF=   56 NGZF=  128
   support grid    NGXF=    48 NGYF=   56 NGZF=  128
   ions per type =               4   4
   NGX,Y,Z   is equivalent  to a cutoff of  10.34, 10.28,  9.60 a.u.
   NGXF,Y,Z  is equivalent  to a cutoff of  20.68, 20.57, 19.20 a.u.

 SYSTEM =  ./                                      
 POSCAR =  Ge Se                                   

 Startparameter for this run:
   NWRITE =      2    write-flag & timer
   PREC   = normal    normal or accurate (medium, high low for compatibility)
   ISTART =      0    job   : 0-new  1-cont  2-samecut
   ICHARG =      2    charge: 1-file 2-atom 10-const
   ISPIN  =      1    spin polarized calculation?
   LNONCOLLINEAR =      F non collinear calculations
   LSORBIT =      F    spin-orbit coupling
   INIWAV =      1    electr: 0-lowe 1-rand  2-diag
   LASPH  =      T    aspherical Exc in radial PAW
 Electronic Relaxation 1
   ENCUT  =  520.0 eV  38.22 Ry    6.18 a.u.   7.17  8.42 20.61*2*pi/ulx,y,z
   ENINI  =  520.0     initial cutoff
   ENAUG  =  446.8 eV  augmentation charge cutoff
   NELM   =    100;   NELMIN=  2; NELMDL= -5     # of ELM steps 
   EDIFF  = 0.1E-05   stopping-criterion for ELM
   LREAL  =      F    real-space projection
   NLSPLINE    = F    spline interpolate recip. space projectors
   LCOMPAT=      F    compatible to vasp.4.4
   GGA_COMPAT  = T    GGA compatible to vasp.4.4-vasp.4.6
   LMAXPAW     = -100 max onsite density
   LMAXMIX     =    4 max onsite mixed and CHGCAR
   VOSKOWN=      0    Vosko Wilk Nusair interpolation
   ROPT   =    0.00000   0.00000
 Ionic relaxation
   EDIFFG = 0.1E-04   stopping-criterion for IOM
   NSW    =      0    number of steps for IOM
   NBLOCK =      1;   KBLOCK =      1    inner block; outer block 
   IBRION =     -1    ionic relax: 0-MD 1-quasi-New 2-CG
   NFREE  =      0    steps in history (QN), initial steepest desc. (CG)
   ISIF   =      2    stress and relaxation
   IWAVPR =     10    prediction:  0-non 1-charg 2-wave 3-comb
   ISYM   =      0    0-nonsym 1-usesym 2-fastsym
   LCORR  =      T    Harris-Foulkes like correction to forces

   POTIM  = 0.5000    time-step for ionic-motion
   TEIN   =    0.0    initial temperature
   TEBEG  =    0.0;   TEEND  =   0.0 temperature during run
   SMASS  =  -3.00    Nose mass-parameter (am)
   estimated Nose-frequenzy (Omega)   =  0.10E-29 period in steps = 0.13E+47 mass=  -0.340E-27a.u.
   SCALEE = 1.0000    scale energy and forces
   NPACO  =    256;   APACO  = 10.0  distance and # of slots for P.C.
   PSTRESS=    0.0 pullay stress

  Mass of Ions in am
   POMASS =  72.61 78.96
  Ionic Valenz
   ZVAL   =   4.00  6.00
  Atomic Wigner-Seitz radii
   RWIGS  =  -1.00 -1.00
  virtual crystal weights 
   VCA    =   1.00  1.00
   NELECT =      40.0000    total number of electrons
   NUPDOWN=      -1.0000    fix difference up-down

 DOS related values:
   EMIN   =  10.00;   EMAX   =-10.00  energy-range for DOS
   EFERMI =   0.00;   METHOD = LEGACY      
   ISMEAR =     0;   SIGMA  =   0.05  broadening in eV -4-tet -1-fermi 0-gaus

 Electronic relaxation 2 (details)
   IALGO  =     38    algorithm
   LDIAG  =      T    sub-space diagonalisation (order eigenvalues)
   LSUBROT=      F    optimize rotation matrix (better conditioning)
   TURBO    =      0    0=normal 1=particle mesh
   IRESTART =      0    0=no restart 2=restart with 2 vectors
   NREBOOT  =      0    no. of reboots
   NMIN     =      0    reboot dimension
   EREF     =   0.00    reference energy to select bands
   IMIX   =      4    mixing-type and parameters
     AMIX     =   0.40;   BMIX     =  1.00
     AMIX_MAG =   1.60;   BMIX_MAG =  1.00
     AMIN     =   0.10
     WC   =   100.;   INIMIX=   1;  MIXPRE=   1;  MAXMIX= -45

 Intra band minimization:
   WEIMIN = 0.0000     energy-eigenvalue tresh-hold
   EBREAK =  0.78E-08  absolut break condition
   DEPER  =   0.30     relativ break condition  

   TIME   =   0.40     timestep for ELM

  volume/ion in A,a.u.               =      24.20       163.30
  Fermi-wavevector in a.u.,A,eV,Ry     =   0.967831  1.828935 12.744535  0.936697
  Thomas-Fermi vector in A             =   2.097750
 
 Write flags
   LWAVE        =      F    write WAVECAR
   LDOWNSAMPLE  =      F    k-point downsampling of WAVECAR
   LCHARG       =      F    write CHGCAR
   LVTOT        =      F    write LOCPOT, total local potential
   LVHAR        =      F    write LOCPOT, Hartree potential only
   LELF         =      F    write electronic localiz. function (ELF)
   LORBIT       =      0    0 simple, 1 ext, 2 COOP (PROOUT), +10 PAW based schemes


 Dipole corrections
   LMONO  =      F    monopole corrections only (constant potential shift)
   LDIPOL =      F    correct potential (dipole corrections)
   IDIPOL =      0    1-x, 2-y, 3-z, 4-all directions 
   EPSILON=  1.0000000 bulk dielectric constant

 Exchange correlation treatment:
   GGA     =    PE    GGA type
   LEXCH   =     8    internal setting for exchange type
   LIBXC   =     F    Libxc                    
   VOSKOWN =     0    Vosko Wilk Nusair interpolation
   LHFCALC =     F    Hartree Fock is set to
   LHFONE  =     F    Hartree Fock one center treatment
   AEXX    =    0.0000 exact exchange contribution

 Linear response parameters
   LEPSILON=     F    determine dielectric tensor
   LRPA    =     F    only Hartree local field effects (RPA)
   LNABLA  =     F    use nabla operator in PAW spheres
   LVEL    =     F    velocity operator in full k-point grid
   CSHIFT  =0.1000    complex shift for real part using Kramers Kronig
   OMEGAMAX=  -1.0    maximum frequency
   DEG_THRESHOLD= 0.2000000E-02 threshold for treating states as degnerate
   RTIME   =   -0.100 relaxation time in fs
  (WPLASMAI=    0.000 imaginary part of plasma frequency in eV, 0.658/RTIME)
   DFIELD  = 0.0000000 0.0000000 0.0000000 field for delta impulse in time
 
  Optional k-point grid parameters
   LKPOINTS_OPT  =     F    use optional k-point grid
   KPOINTS_OPT_MODE=     1    mode for optional k-point grid
 
 Orbital magnetization related:
   ORBITALMAG=     F  switch on orbital magnetization
   LCHIMAG   =     F  perturbation theory with respect to B field
   DQ        =  0.001000  dq finite difference perturbation B field
   LLRAUG    =     F  two centre corrections for induced B field
   LBONE     =     F  B-component reconstruction in AE one-centre
   LVGVCALC  =     T  calculate vGv susceptibility
   LVGVAPPL  =     F  apply vGv susceptibility instead of pGv for G=0

 Random number generation:
   RANDOM_GENERATOR = DEFAULT
   PCG_SEED         = not used


--------------------------------------------------------------------------------------------------------


 Static calculation
 charge density and potential will be updated during run
 non-spin polarized calculation
 Variant of blocked Davidson
 Davidson routine will perform the subspace rotation
 perform sub-space diagonalisation
    after iterative eigenvector-optimisation
 modified Broyden-mixing scheme, WC =      100.0
 initial mixing is a Kerker type mixing with AMIX =  0.4000 and BMIX =      1.0000
 Hartree-type preconditioning will be used
 using additional bands            12
 reciprocal scheme for non local part
 use partial core corrections
 calculate Harris-corrections to forces 
   (improved forces if not selfconsistent)
 use gradient corrections 
 use of overlap-Matrix (Vanderbilt PP)
 Gauss-broadening in eV      SIGMA  =   0.05


--------------------------------------------------------------------------------------------------------


  energy-cutoff  :      520.00
  volume of cell :      193.59
      direct lattice vectors                 reciprocal lattice vectors
     3.858100176  0.000000000  0.000000000     0.259194929  0.000000000  0.000000000
     0.000000000  4.526575088  0.000000000     0.000000000  0.220917577  0.000000000
     0.000000000  0.000000000 11.085176468     0.000000000  0.000000000  0.090210562

  length of vectors
     3.858100176  4.526575088 11.085176468     0.259194929  0.220917577  0.090210562


 
 k-points in units of 2pi/SCALE and weight: KPOINTS created by Atomic Simulation Env
   0.00000000  0.00000000  0.00000000       0.014
   0.04319915  0.00000000  0.00000000       0.028
   0.08639831  0.00000000  0.00000000       0.028
   0.12959746  0.00000000  0.00000000       0.014
   0.00000000  0.03681960  0.00000000       0.028
   0.04319915  0.03681960  0.00000000       0.028
   0.04319915 -0.03681960  0.00000000       0.028
   0.08639831  0.03681960  0.00000000       0.028
   0.08639831 -0.03681960  0.00000000       0.028
   0.12959746  0.03681960  0.00000000       0.028
   0.00000000  0.07363919  0.00000000       0.028
   0.04319915  0.07363919  0.00000000       0.028
   0.04319915 -0.07363919  0.00000000       0.028
   0.08639831  0.07363919  0.00000000       0.028
   0.08639831 -0.07363919  0.00000000       0.028
   0.12959746  0.07363919  0.00000000       0.028
   0.00000000  0.11045879  0.00000000       0.014
   0.04319915  0.11045879  0.00000000       0.028
   0.08639831  0.11045879  0.00000000       0.028
   0.12959746  0.11045879  0.00000000       0.014
   0.00000000  0.00000000  0.04510528       0.014
   0.04319915  0.00000000  0.04510528       0.028
   0.08639831  0.00000000  0.04510528       0.028
   0.12959746  0.00000000  0.04510528       0.014
   0.00000000  0.03681960  0.04510528       0.028
   0.04319915  0.03681960  0.04510528       0.028
   0.04319915 -0.03681960  0.04510528       0.028
   0.08639831  0.03681960  0.04510528       0.028
   0.08639831 -0.03681960  0.04510528       0.028
   0.12959746  0.03681960  0.04510528       0.028
   0.00000000  0.07363919  0.04510528       0.028
   0.04319915  0.07363919  0.04510528       0.028
   0.04319915 -0.07363919  0.04510528       0.028
   0.08639831  0.07363919  0.04510528       0.028
   0.08639831 -0.07363919  0.04510528       0.028
   0.12959746  0.07363919  0.04510528       0.028
   0.00000000  0.11045879  0.04510528       0.014
   0.04319915  0.11045879  0.04510528       0.028
   0.08639831  0.11045879  0.04510528       0.028
   0.12959746  0.11045879  0.04510528       0.014
 
 k-points in reciprocal lattice and weights: KPOINTS created by Atomic Simulation Env
   0.00000000  0.00000000  0.00000000       0.014
   0.16666667  0.00000000  0.00000000       0.028
   0.33333333  0.00000000  0.00000000       0.028
   0.50000000  0.00000000  0.00000000       0.014
   0.00000000  0.16666667  0.00000000       0.028
   0.16666667  0.16666667  0.00000000       0.028
   0.16666667 -0.16666667  0.00000000       0.028
   0.33333333  0.16666667  0.00000000       0.028
   0.33333333 -0.16666667  0.00000000       0.028
   0.50000000  0.16666667  0.00000000       0.028
   0.00000000  0.33333333  0.00000000       0.028
   0.16666667  0.33333333  0.00000000       0.028
   0.16666667 -0.33333333  0.00000000       0.028
   0.33333333  0.33333333  0.00000000       0.028
   0.33333333 -0.33333333  0.00000000       0.028
   0.50000000  0.33333333  0.00000000       0.028
   0.00000000  0.50000000  0.00000000       0.014
   0.16666667  0.50000000  0.00000000       0.028
   0.33333333  0.50000000  0.00000000       0.028
   0.50000000  0.50000000  0.00000000       0.014
   0.00000000  0.00000000  0.50000000       0.014
   0.16666667  0.00000000  0.50000000       0.028
   0.33333333  0.00000000  0.50000000       0.028
   0.50000000  0.00000000  0.50000000       0.014
   0.00000000  0.16666667  0.50000000       0.028
   0.16666667  0.16666667  0.50000000       0.028
   0.16666667 -0.16666667  0.50000000       0.028
   0.33333333  0.16666667  0.50000000       0.028
   0.33333333 -0.16666667  0.50000000       0.028
   0.50000000  0.16666667  0.50000000       0.028
   0.00000000  0.33333333  0.50000000       0.028
   0.16666667  0.33333333  0.50000000       0.028
   0.16666667 -0.33333333  0.50000000       0.028
   0.33333333  0.33333333  0.50000000       0.028
   0.33333333 -0.33333333  0.50000000       0.028
   0.50000000  0.33333333  0.50000000       0.028
   0.00000000  0.50000000  0.50000000       0.014
   0.16666667  0.50000000  0.50000000       0.028
   0.33333333  0.50000000  0.50000000       0.028
   0.50000000  0.50000000  0.50000000       0.014
 
 position of ions in fractional coordinates (direct lattice) 
   0.01811594  0.14310594  0.12298266
   0.51811594  0.64310594  0.37701734
   0.75000000  0.88587957  0.87701734
   0.25000000  0.38587957  0.62298266
   0.01811594  0.02229540  0.35238181
   0.51811594  0.52229540  0.14761819
   0.75000000  0.00669011  0.64761819
   0.25000000  0.50669011  0.85238181
 
 position of ions in cartesian coordinates  (Angst):
   0.06989312  0.64777979  1.36328454
   1.99894321  2.91106733  4.17930370
   2.89357513  4.01000037  9.72189193
   0.96452504  1.74671283  6.90587277
   0.06989312  0.10092179  3.90621455
   1.99894321  2.36420933  1.63637368
   2.89357513  0.03028329  7.17896192
   0.96452504  2.29357083  9.44880278
 


--------------------------------------------------------------------------------------------------------


 k-point   1 :   0.0000 0.0000 0.0000  plane waves:    5211
 k-point   2 :   0.1667 0.0000 0.0000  plane waves:    5225
 k-point   3 :   0.3333 0.0000 0.0000  plane waves:    5224
 k-point   4 :   0.5000 0.0000 0.0000  plane waves:    5258
 k-point   5 :   0.0000 0.1667 0.0000  plane waves:    5209
 k-point   6 :   0.1667 0.1667 0.0000  plane waves:    5201
 k-point   7 :   0.1667-0.1667 0.0000  plane waves:    5201
 k-point   8 :   0.3333 0.1667 0.0000  plane waves:    5230
 k-point   9 :   0.3333-0.1667 0.0000  plane waves:    5230
 k-point  10 :   0.5000 0.1667 0.0000  plane waves:    5236
 k-point  11 :   0.0000 0.3333 0.0000  plane waves:    5213
 k-point  12 :   0.1667 0.3333 0.0000  plane waves:    5199
 k-point  13 :   0.1667-0.3333 0.0000  plane waves:    5199
 k-point  14 :   0.3333 0.3333 0.0000  plane waves:    5211
 k-point  15 :   0.3333-0.3333 0.0000  plane waves:    5211
 k-point  16 :   0.5000 0.3333 0.0000  plane waves:    5230
 k-point  17 :   0.0000 0.5000 0.0000  plane waves:    5220
 k-point  18 :   0.1667 0.5000 0.0000  plane waves:    5208
 k-point  19 :   0.3333 0.5000 0.0000  plane waves:    5230
 k-point  20 :   0.5000 0.5000 0.0000  plane waves:    5180
 k-point  21 :   0.0000 0.0000 0.5000  plane waves:    5210
 k-point  22 :   0.1667 0.0000 0.5000  plane waves:    5178
 k-point  23 :   0.3333 0.0000 0.5000  plane waves:    5214
 k-point  24 :   0.5000 0.0000 0.5000  plane waves:    5232
 k-point  25 :   0.0000 0.1667 0.5000  plane waves:    5224
 k-point  26 :   0.1667 0.1667 0.5000  plane waves:    5210
 k-point  27 :   0.1667-0.1667 0.5000  plane waves:    5210
 k-point  28 :   0.3333 0.1667 0.5000  plane waves:    5196
 k-point  29 :   0.3333-0.1667 0.5000  plane waves:    5196
 k-point  30 :   0.5000 0.1667 0.5000  plane waves:    5224
 k-point  31 :   0.0000 0.3333 0.5000  plane waves:    5202
 k-point  32 :   0.1667 0.3333 0.5000  plane waves:    5214
 k-point  33 :   0.1667-0.3333 0.5000  plane waves:    5214
 k-point  34 :   0.3333 0.3333 0.5000  plane waves:    5216
 k-point  35 :   0.3333-0.3333 0.5000  plane waves:    5216
 k-point  36 :   0.5000 0.3333 0.5000  plane waves:    5216
 k-point  37 :   0.0000 0.5000 0.5000  plane waves:    5212
 k-point  38 :   0.1667 0.5000 0.5000  plane waves:    5192
 k-point  39 :   0.3333 0.5000 0.5000  plane waves:    5208
 k-point  40 :   0.5000 0.5000 0.5000  plane waves:    5208

 maximum and minimum number of plane-waves per node :      1076     1017

 maximum number of plane-waves:      5258
 maximum index in each direction: 
   IXMAX=    7   IYMAX=    8   IZMAX=   20
   IXMIN=   -7   IYMIN=   -8   IZMIN=  -21


 parallel 3D FFT for wavefunctions:
    minimum data exchange during FFTs selected (reduces bandwidth)
 parallel 3D FFT for charge:
    minimum data exchange during FFTs selected (reduces bandwidth)


 total amount of memory used by VASP MPI-rank0    41770. kBytes
=======================================================================

   base      :      30000. kBytes
   nonl-proj :       9056. kBytes
   fftplans  :        519. kBytes
   grid      :        766. kBytes
   one-center:         16. kBytes
   wavefun   :       1413. kBytes
 
     INWAV:  cpu time      0.0000: real time      0.0001
 Broyden mixing: mesh for mixing (old mesh)
   NGX = 15   NGY = 17   NGZ = 41
  (NGX  = 48   NGY  = 56   NGZ  =128)
  gives a total of  10455 points

 initial charge density was supplied:
 charge density of overlapping atoms calculated
 number of electron      40.0000000 magnetization 
 keeping initial charge density in first step


--------------------------------------------------------------------------------------------------------


 Maximum index for augmentation-charges           605 (set IRDMAX)


--------------------------------------------------------------------------------------------------------


 First call to EWALD:  gamma=   0.306
 Maximum number of real-space cells 4x 3x 2
 Maximum number of reciprocal cells 2x 2x 5

    FEWALD:  cpu time      0.0011: real time      0.0011


--------------------------------------- Ionic step        1  -------------------------------------------




--------------------------------------- Iteration      1(   1)  ---------------------------------------


    POTLOK:  cpu time      0.0108: real time      0.0109
    SETDIJ:  cpu time      0.2252: real time      0.2257
     EDDAV:  cpu time      0.3525: real time      0.3542
       DOS:  cpu time      0.0010: real time      0.0010
    --------------------------------------------
      LOOP:  cpu time      0.5895: real time      0.5919

 eigenvalue-minimisations  :  2560
 total energy-change (2. order) : 0.1620081E+03  (-0.1584939E+04)
 number of electron      40.0000000 magnetization 
 augmentation part       40.0000000 magnetization 

 Free energy of the ion-electron system (eV)
  ---------------------------------------------------
  alpha Z        PSCENC =        87.52689448
  Ewald energy   TEWEN  =     -1418.82830696
  -Hartree energ DENC   =      -128.21993935
  -exchange      EXHF   =         0.00000000
  -V(xc)+E(xc)   XCENC  =       -33.38614536
  PAW double counting   =      1193.78262552    -1080.73714043
  entropy T*S    EENTRO =        -0.00555492
  eigenvalues    EBANDS =        93.38105436
  atomic energy  EATOM  =      1448.49460871
  Solvation  Ediel_sol  =         0.00000000
  ---------------------------------------------------
  free energy    TOTEN  =       162.00809604 eV

  energy without entropy =      162.01365096  energy(sigma->0) =      162.01087350


--------------------------------------------------------------------------------------------------------




--------------------------------------- Iteration      1(   2)  ---------------------------------------


     EDDAV:  cpu time      0.4912: real time      0.4947
       DOS:  cpu time      0.0008: real time      0.0008
    --------------------------------------------
      LOOP:  cpu time      0.4920: real time      0.4955

 eigenvalue-minimisations  :  3776
 total energy-change (2. order) :-0.1847982E+03  (-0.1793130E+03)
 number of electron      40.0000000 magnetization 
 augmentation part       40.0000000 magnetization 

 Free energy of the ion-electron system (eV)
  ---------------------------------------------------
  alpha Z        PSCENC =        87.52689448
  Ewald energy   TEWEN  =     -1418.82830696
  -Hartree energ DENC   =      -128.21993935
  -exchange      EXHF   =         0.00000000
  -V(xc)+E(xc)   XCENC  =       -33.38614536
  PAW double counting   =      1193.78262552    -1080.73714043
  entropy T*S    EENTRO =        -0.00000019
  eigenvalues    EBANDS =       -91.42271844
  atomic energy  EATOM  =      1448.49460871
  Solvation  Ediel_sol  =         0.00000000
  ---------------------------------------------------
  free energy    TOTEN  =       -22.79012204 eV

  energy without entropy =      -22.79012184  energy(sigma->0) =      -22.79012194


--------------------------------------------------------------------------------------------------------




--------------------------------------- Iteration      1(   3)  ---------------------------------------


     EDDAV:  cpu time      0.4762: real time      0.4788
       DOS:  cpu time      0.0006: real time      0.0006
    --------------------------------------------
      LOOP:  cpu time      0.4768: real time      0.4794

 eigenvalue-minimisations  :  3360
 total energy-change (2. order) :-0.1113985E+02  (-0.1111419E+02)
 number of electron      40.0000000 magnetization 
 augmentation part       40.0000000 magnetization 

 Free energy of the ion-electron system (eV)
  ---------------------------------------------------
  alpha Z        PSCENC =        87.52689448
  Ewald energy   TEWEN  =     -1418.82830696
  -Hartree energ DENC   =      -128.21993935
  -exchange      EXHF   =         0.00000000
  -V(xc)+E(xc)   XCENC  =       -33.38614536
  PAW double counting   =      1193.78262552    -1080.73714043
  entropy T*S    EENTRO =        -0.00000000
  eigenvalues    EBANDS =      -102.56256401
  atomic energy  EATOM  =      1448.49460871
  Solvation  Ediel_sol  =         0.00000000
  ---------------------------------------------------
  free energy    TOTEN  =       -33.92996741 eV

  energy without entropy =      -33.92996741  energy(sigma->0) =      -33.92996741


--------------------------------------------------------------------------------------------------------




--------------------------------------- Iteration      1(   4)  ---------------------------------------


     EDDAV:  cpu time      0.4216: real time      0.4237
       DOS:  cpu time      0.0005: real time      0.0005
    --------------------------------------------
      LOOP:  cpu time      0.4221: real time      0.4242

 eigenvalue-minimisations  :  3200
 total energy-change (2. order) :-0.8476333E-01  (-0.8474793E-01)
 number of electron      40.0000000 magnetization 
 augmentation part       40.0000000 magnetization 

 Free energy of the ion-electron system (eV)
  ---------------------------------------------------
  alpha Z        PSCENC =        87.52689448
  Ewald energy   TEWEN  =     -1418.82830696
  -Hartree energ DENC   =      -128.21993935
  -exchange      EXHF   =         0.00000000
  -V(xc)+E(xc)   XCENC  =       -33.38614536
  PAW double counting   =      1193.78262552    -1080.73714043
  entropy T*S    EENTRO =        -0.00000000
  eigenvalues    EBANDS =      -102.64732733
  atomic energy  EATOM  =      1448.49460871
  Solvation  Ediel_sol  =         0.00000000
  ---------------------------------------------------
  free energy    TOTEN  =       -34.01473073 eV

  energy without entropy =      -34.01473073  energy(sigma->0) =      -34.01473073


--------------------------------------------------------------------------------------------------------




--------------------------------------- Iteration      1(   5)  ---------------------------------------


     EDDAV:  cpu time      0.4350: real time      0.4371
       DOS:  cpu time      0.0005: real time      0.0005
    CHARGE:  cpu time      0.0088: real time      0.0088
    MIXING:  cpu time      0.0009: real time      0.0009
    --------------------------------------------
      LOOP:  cpu time      0.4452: real time      0.4473

 eigenvalue-minimisations  :  3328
 total energy-change (2. order) :-0.5206463E-03  (-0.5206259E-03)
 number of electron      39.9999996 magnetization 
 augmentation part       -7.4200385 magnetization 

 Broyden mixing:
  rms(total) = 0.65194E+00    rms(broyden)= 0.65194E+00
  rms(prec ) = 0.73477E+00
  weight for this iteration     100.00

 Free energy of the ion-electron system (eV)
  ---------------------------------------------------
  alpha Z        PSCENC =        87.52689448
  Ewald energy   TEWEN  =     -1418.82830696
  -Hartree energ DENC   =      -128.21993935
  -exchange      EXHF   =         0.00000000
  -V(xc)+E(xc)   XCENC  =       -33.38614536
  PAW double counting   =      1193.78262552    -1080.73714043
  entropy T*S    EENTRO =        -0.00000000
  eigenvalues    EBANDS =      -102.64784798
  atomic energy  EATOM  =      1448.49460871
  Solvation  Ediel_sol  =         0.00000000
  ---------------------------------------------------
  free energy    TOTEN  =       -34.01525138 eV

  energy without entropy =      -34.01525138  energy(sigma->0) =      -34.01525138


--------------------------------------------------------------------------------------------------------




--------------------------------------- Iteration      1(   6)  ---------------------------------------


    POTLOK:  cpu time      0.0104: real time      0.0105
    SETDIJ:  cpu time      0.2166: real time      0.2174
     EDDAV:  cpu time      0.4028: real time      0.4049
       DOS:  cpu time      0.0006: real time      0.0006
    CHARGE:  cpu time      0.0086: real time      0.0086
    MIXING:  cpu time      0.0009: real time      0.0009
    --------------------------------------------
      LOOP:  cpu time      0.6400: real time      0.6430

 eigenvalue-minimisations  :  3072
 total energy-change (2. order) : 0.3723411E+00  (-0.7653711E-01)
 number of electron      39.9999996 magnetization 
 augmentation part       -7.3638991 magnetization 

 Broyden mixing:
  rms(total) = 0.40914E+00    rms(broyden)= 0.40914E+00
  rms(prec ) = 0.43119E+00
  weight for this iteration     100.00

 eigenvalues of (default mixing * dielectric matrix)
  average eigenvalue GAMMA=   2.2094
  2.2094

 Free energy of the ion-electron system (eV)
  ---------------------------------------------------
  alpha Z        PSCENC =        87.52689448
  Ewald energy   TEWEN  =     -1418.82830696
  -Hartree energ DENC   =      -134.21262879
  -exchange      EXHF   =         0.00000000
  -V(xc)+E(xc)   XCENC  =       -32.78036703
  PAW double counting   =      1457.91589706    -1345.19092730
  entropy T*S    EENTRO =        -0.00000000
  eigenvalues    EBANDS =       -96.56808044
  atomic energy  EATOM  =      1448.49460871
  Solvation  Ediel_sol  =         0.00000000
  ---------------------------------------------------
  free energy    TOTEN  =       -33.64291028 eV

  energy without entropy =      -33.64291028  energy(sigma->0) =      -33.64291028


--------------------------------------------------------------------------------------------------------




--------------------------------------- Iteration      1(   7)  ---------------------------------------


    POTLOK:  cpu time      0.0100: real time      0.0102
    SETDIJ:  cpu time      0.2172: real time      0.2177
     EDDAV:  cpu time      0.4627: real time      0.4652
       DOS:  cpu time      0.0008: real time      0.0008
    CHARGE:  cpu time      0.0087: real time      0.0087
    MIXING:  cpu time      0.0006: real time      0.0006
    --------------------------------------------
      LOOP:  cpu time      0.6999: real time      0.7031

 eigenvalue-minimisations  :  2992
 total energy-change (2. order) : 0.1323242E-01  (-0.2278847E-01)
 number of electron      39.9999996 magnetization 
 augmentation part       -7.3491948 magnetization 

 Broyden mixing:
  rms(total) = 0.12797E+00    rms(broyden)= 0.12797E+00
  rms(prec ) = 0.13661E+00
  weight for this iteration     100.00

 eigenvalues of (default mixing * dielectric matrix)
  average eigenvalue GAMMA=   1.7908
  1.1871  2.3945

 Free energy of the ion-electron system (eV)
  ---------------------------------------------------
  alpha Z        PSCENC =        87.52689448
  Ewald energy   TEWEN  =     -1418.82830696
  -Hartree energ DENC   =      -137.00307000
  -exchange      EXHF   =         0.00000000
  -V(xc)+E(xc)   XCENC  =       -32.29894870
  PAW double counting   =      1786.92116993    -1674.43934662
  entropy T*S    EENTRO =        -0.00000002
  eigenvalues    EBANDS =       -94.00267868
  atomic energy  EATOM  =      1448.49460871
  Solvation  Ediel_sol  =         0.00000000
  ---------------------------------------------------
  free energy    TOTEN  =       -33.62967786 eV

  energy without entropy =      -33.62967784  energy(sigma->0) =      -33.62967785


--------------------------------------------------------------------------------------------------------




--------------------------------------- Iteration      1(   8)  ---------------------------------------


    POTLOK:  cpu time      0.0192: real time      0.0193
    SETDIJ:  cpu time      0.2082: real time      0.2087
     EDDAV:  cpu time      0.4902: real time      0.4924
       DOS:  cpu time      0.0007: real time      0.0007
    CHARGE:  cpu time      0.0091: real time      0.0093
    MIXING:  cpu time      0.0006: real time      0.0006
    --------------------------------------------
      LOOP:  cpu time      0.7281: real time      0.7310

 eigenvalue-minimisations  :  3152
 total energy-change (2. order) : 0.1015175E-02  (-0.2101623E-02)
 number of electron      39.9999996 magnetization 
 augmentation part       -7.3571133 magnetization 

 Broyden mixing:
  rms(total) = 0.17852E-01    rms(broyden)= 0.17852E-01
  rms(prec ) = 0.21904E-01
  weight for this iteration     100.00

 eigenvalues of (default mixing * dielectric matrix)
  average eigenvalue GAMMA=   1.6932
  2.5020  1.2888  1.2888

 Free energy of the ion-electron system (eV)
  ---------------------------------------------------
  alpha Z        PSCENC =        87.52689448
  Ewald energy   TEWEN  =     -1418.82830696
  -Hartree energ DENC   =      -137.16707362
  -exchange      EXHF   =         0.00000000
  -V(xc)+E(xc)   XCENC  =       -32.15712211
  PAW double counting   =      1924.33211628    -1811.91123063
  entropy T*S    EENTRO =        -0.00000000
  eigenvalues    EBANDS =       -93.91854884
  atomic energy  EATOM  =      1448.49460871
  Solvation  Ediel_sol  =         0.00000000
  ---------------------------------------------------
  free energy    TOTEN  =       -33.62866269 eV

  energy without entropy =      -33.62866269  energy(sigma->0) =      -33.62866269


--------------------------------------------------------------------------------------------------------




--------------------------------------- Iteration      1(   9)  ---------------------------------------


    POTLOK:  cpu time      0.0101: real time      0.0102
    SETDIJ:  cpu time      0.2171: real time      0.2178
     EDDAV:  cpu time      0.4022: real time      0.4041
       DOS:  cpu time      0.0007: real time      0.0007
    CHARGE:  cpu time      0.0090: real time      0.0090
    MIXING:  cpu time      0.0006: real time      0.0006
    --------------------------------------------
      LOOP:  cpu time      0.6396: real time      0.6424

 eigenvalue-minimisations  :  3056
 total energy-change (2. order) :-0.2889572E-03  (-0.3430297E-03)
 number of electron      39.9999996 magnetization 
 augmentation part       -7.3554222 magnetization 

 Broyden mixing:
  rms(total) = 0.65246E-02    rms(broyden)= 0.65246E-02
  rms(prec ) = 0.73712E-02
  weight for this iteration     100.00

 eigenvalues of (default mixing * dielectric matrix)
  average eigenvalue GAMMA=   1.7206
  2.2796  2.2796  1.1616  1.1616

 Free energy of the ion-electron system (eV)
  ---------------------------------------------------
  alpha Z        PSCENC =        87.52689448
  Ewald energy   TEWEN  =     -1418.82830696
  -Hartree energ DENC   =      -137.51276676
  -exchange      EXHF   =         0.00000000
  -V(xc)+E(xc)   XCENC  =       -32.11869397
  PAW double counting   =      1937.48167009    -1825.06925398
  entropy T*S    EENTRO =        -0.00000000
  eigenvalues    EBANDS =       -93.60310324
  atomic energy  EATOM  =      1448.49460871
  Solvation  Ediel_sol  =         0.00000000
  ---------------------------------------------------
  free energy    TOTEN  =       -33.62895165 eV

  energy without entropy =      -33.62895164  energy(sigma->0) =      -33.62895164


--------------------------------------------------------------------------------------------------------




--------------------------------------- Iteration      1(  10)  ---------------------------------------


    POTLOK:  cpu time      0.0099: real time      0.0100
    SETDIJ:  cpu time      0.2164: real time      0.2168
     EDDAV:  cpu time      0.4262: real time      0.4288
       DOS:  cpu time      0.0007: real time      0.0007
    CHARGE:  cpu time      0.0081: real time      0.0082
    MIXING:  cpu time      0.0006: real time      0.0006
    --------------------------------------------
      LOOP:  cpu time      0.6619: real time      0.6651

 eigenvalue-minimisations  :  3200
 total energy-change (2. order) :-0.1082644E-03  (-0.2921845E-04)
 number of electron      39.9999996 magnetization 
 augmentation part       -7.3553603 magnetization 

 Broyden mixing:
  rms(total) = 0.23661E-02    rms(broyden)= 0.23661E-02
  rms(prec ) = 0.29217E-02
  weight for this iteration     100.00

 eigenvalues of (default mixing * dielectric matrix)
  average eigenvalue GAMMA=   1.7540
  2.7095  2.4453  1.1149  1.2501  1.2501

 Free energy of the ion-electron system (eV)
  ---------------------------------------------------
  alpha Z        PSCENC =        87.52689448
  Ewald energy   TEWEN  =     -1418.82830696
  -Hartree energ DENC   =      -137.54839047
  -exchange      EXHF   =         0.00000000
  -V(xc)+E(xc)   XCENC  =       -32.11505564
  PAW double counting   =      1931.45888879    -1819.04150297
  entropy T*S    EENTRO =        -0.00000000
  eigenvalues    EBANDS =       -93.57619583
  atomic energy  EATOM  =      1448.49460871
  Solvation  Ediel_sol  =         0.00000000
  ---------------------------------------------------
  free energy    TOTEN  =       -33.62905991 eV

  energy without entropy =      -33.62905991  energy(sigma->0) =      -33.62905991


--------------------------------------------------------------------------------------------------------




--------------------------------------- Iteration      1(  11)  ---------------------------------------


    POTLOK:  cpu time      0.0099: real time      0.0101
    SETDIJ:  cpu time      0.2174: real time      0.2180
     EDDAV:  cpu time      0.3904: real time      0.3921
       DOS:  cpu time      0.0007: real time      0.0007
    CHARGE:  cpu time      0.0092: real time      0.0092
    MIXING:  cpu time      0.0006: real time      0.0006
    --------------------------------------------
      LOOP:  cpu time      0.6283: real time      0.6307

 eigenvalue-minimisations  :  2864
 total energy-change (2. order) :-0.2947967E-04  (-0.4267064E-05)
 number of electron      39.9999996 magnetization 
 augmentation part       -7.3555854 magnetization 

 Broyden mixing:
  rms(total) = 0.12104E-02    rms(broyden)= 0.12104E-02
  rms(prec ) = 0.13596E-02
  weight for this iteration     100.00

 eigenvalues of (default mixing * dielectric matrix)
  average eigenvalue GAMMA=   1.7181
  2.5504  2.5504  1.9489  1.1633  1.1633  0.9325

 Free energy of the ion-electron system (eV)
  ---------------------------------------------------
  alpha Z        PSCENC =        87.52689448
  Ewald energy   TEWEN  =     -1418.82830696
  -Hartree energ DENC   =      -137.57440770
  -exchange      EXHF   =         0.00000000
  -V(xc)+E(xc)   XCENC  =       -32.10881985
  PAW double counting   =      1932.79274643    -1820.37552800
  entropy T*S    EENTRO =        -0.00000000
  eigenvalues    EBANDS =       -93.55627649
  atomic energy  EATOM  =      1448.49460871
  Solvation  Ediel_sol  =         0.00000000
  ---------------------------------------------------
  free energy    TOTEN  =       -33.62908939 eV

  energy without entropy =      -33.62908939  energy(sigma->0) =      -33.62908939


--------------------------------------------------------------------------------------------------------




--------------------------------------- Iteration      1(  12)  ---------------------------------------


    POTLOK:  cpu time      0.0111: real time      0.0112
    SETDIJ:  cpu time      0.2173: real time      0.2181
     EDDAV:  cpu time      0.4708: real time      0.4731
       DOS:  cpu time      0.0007: real time      0.0007
    --------------------------------------------
      LOOP:  cpu time      0.6999: real time      0.7031

 eigenvalue-minimisations  :  3552
 total energy-change (2. order) :-0.3253855E-06  (-0.5958130E-06)
 number of electron      39.9999996 magnetization 
 augmentation part       -7.3555854 magnetization 

 Free energy of the ion-electron system (eV)
  ---------------------------------------------------
  alpha Z        PSCENC =        87.52689448
  Ewald energy   TEWEN  =     -1418.82830696
  -Hartree energ DENC   =      -137.58935550
  -exchange      EXHF   =         0.00000000
  -V(xc)+E(xc)   XCENC  =       -32.10780441
  PAW double counting   =      1931.94866291    -1819.53120859
  entropy T*S    EENTRO =        -0.00000000
  eigenvalues    EBANDS =       -93.54258036
  atomic energy  EATOM  =      1448.49460871
  Solvation  Ediel_sol  =         0.00000000
  ---------------------------------------------------
  free energy    TOTEN  =       -33.62908972 eV

  energy without entropy =      -33.62908971  energy(sigma->0) =      -33.62908971


--------------------------------------------------------------------------------------------------------




 average (electrostatic) potential at core
  the test charge radii are     1.1631  1.0808
  (the norm of the test charge is              1.0000)
       1 -33.4457       2 -33.4457       3 -33.4457       4 -33.4457       5 -54.9508
       6 -54.9508       7 -54.9508       8 -54.9508
 
 
 
 E-fermi :   3.8261     XC(G=0):  -9.2884     alpha+bet : -8.7197

 Fermi energy:         3.8261004757

 k-point     1 :       0.0000    0.0000    0.0000
  band No.  band energies     occupation 
      1     -10.9649      2.00000
      2     -10.6081      2.00000
      3      -9.7151      2.00000
      4      -9.1700      2.00000
      5      -4.7649      2.00000
      6      -4.1194      2.00000
      7      -2.7869      2.00000
      8      -2.1235      2.00000
      9      -1.8901      2.00000
     10      -0.4115      2.00000
     11      -0.1264      2.00000
     12      -0.0451      2.00000
     13       0.2965      2.00000
     14       0.3545      2.00000
     15       1.4278      2.00000
     16       1.6188      2.00000
     17       1.6858      2.00000
     18       2.2363      2.00000
     19       2.3373      2.00000
     20       3.6510      2.00000
     21       4.0011      0.00000
     22       5.6926      0.00000
     23       5.8473      0.00000
     24       5.9108      0.00000
     25       6.3596      0.00000
     26       6.4472      0.00000
     27       6.9797      0.00000
     28       7.0375      0.00000
     29       8.3950      0.00000
     30       8.4860      0.00000
     31       8.5352      0.00000
     32       9.0744      0.00000

 k-point     2 :       0.1667    0.0000    0.0000
  band No.  band energies     occupation 
      1     -10.7765      2.00000
      2     -10.4307      2.00000
      3      -9.6038      2.00000
      4      -9.1096      2.00000
      5      -4.9873      2.00000
      6      -4.3321      2.00000
      7      -3.2354      2.00000
      8      -2.5743      2.00000
      9      -1.7098      2.00000
     10      -0.2342      2.00000
     11      -0.1838      2.00000
     12       0.0166      2.00000
     13       0.0273      2.00000
     14       0.4202      2.00000
     15       1.3286      2.00000
     16       1.4500      2.00000
     17       1.5319      2.00000
     18       2.0986      2.00000
     19       2.6439      2.00000
     20       3.4717      2.00000
     21       4.1862      0.00000
     22       5.4298      0.00000
     23       5.7231      0.00000
     24       6.2463      0.00000
     25       6.3704      0.00000
     26       6.5473      0.00000
     27       6.8325      0.00000
     28       7.0985      0.00000
     29       7.2773      0.00000
     30       8.1139      0.00000
     31       8.1828      0.00000
     32       9.0940      0.00000

 k-point     3 :       0.3333    0.0000    0.0000
  band No.  band energies     occupation 
      1     -10.2644      2.00000
      2      -9.9573      2.00000
      3      -9.4299      2.00000
      4      -9.0927      2.00000
      5      -5.4272      2.00000
      6      -4.7057      2.00000
      7      -4.3703      2.00000
      8      -3.5915      2.00000
      9      -1.1291      2.00000
     10      -0.2278      2.00000
     11      -0.0262      2.00000
     12       0.4174      2.00000
     13       0.4368      2.00000
     14       0.7413      2.00000
     15       1.1713      2.00000
     16       1.5438      2.00000
     17       1.5575      2.00000
     18       1.6258      2.00000
     19       2.7194      2.00000
     20       3.0281      2.00000
     21       4.1944      0.00000
     22       4.5527      0.00000
     23       4.7178      0.00000
     24       5.3606      0.00000
     25       5.4152      0.00000
     26       5.7339      0.00000
     27       5.9340      0.00000
     28       6.7889      0.00000
     29       6.8834      0.00000
     30       7.3129      0.00000
     31       7.6372      0.00000
     32       8.9871      0.00000

 k-point     4 :       0.5000    0.0000    0.0000
  band No.  band energies     occupation 
      1      -9.6527      2.00000
      2      -9.6527      2.00000
      3      -9.4053      2.00000
      4      -9.4053      2.00000
      5      -5.3123      2.00000
      6      -5.3123      2.00000
      7      -4.5053      2.00000
      8      -4.5053      2.00000
      9      -0.3468      2.00000
     10      -0.3468      2.00000
     11       0.4339      2.00000
     12       0.4339      2.00000
     13       0.9001      2.00000
     14       0.9001      2.00000
     15       1.1894      2.00000
     16       1.1894      2.00000
     17       1.5611      2.00000
     18       1.5611      2.00000
     19       2.5381      2.00000
     20       2.5381      2.00000
     21       4.1408      0.00000
     22       4.1408      0.00000
     23       4.8210      0.00000
     24       4.8210      0.00000
     25       5.1636      0.00000
     26       5.1636      0.00000
     27       5.7441      0.00000
     28       5.7441      0.00000
     29       6.3856      0.00000
     30       6.3856      0.00000
     31       8.2731      0.00000
     32       8.2731      0.00000

 k-point     5 :       0.0000    0.1667    0.0000
  band No.  band energies     occupation 
      1     -10.8505      2.00000
      2     -10.4989      2.00000
      3      -9.7269      2.00000
      4      -9.2271      2.00000
      5      -5.0696      2.00000
      6      -4.2350      2.00000
      7      -3.4396      2.00000
      8      -2.6209      2.00000
      9      -1.6795      2.00000
     10      -0.0879      2.00000
     11       0.4180      2.00000
     12       0.4391      2.00000
     13       0.4550      2.00000
     14       0.4960      2.00000
     15       1.5846      2.00000
     16       1.6471      2.00000
     17       1.8339      2.00000
     18       1.9649      2.00000
     19       2.7130      2.00000
     20       3.4568      2.00000
     21       4.1686      0.00000
     22       5.1922      0.00000
     23       5.7657      0.00000
     24       5.9271      0.00000
     25       6.1317      0.00000
     26       6.5841      0.00000
     27       6.6474      0.00000
     28       6.8533      0.00000
     29       7.8709      0.00000
     30       7.8912      0.00000
     31       7.9725      0.00000
     32       9.2963      0.00000

 k-point     6 :       0.1667    0.1667    0.0000
  band No.  band energies     occupation 
      1     -10.6672      2.00000
      2     -10.3275      2.00000
      3      -9.6181      2.00000
      4      -9.1570      2.00000
      5      -5.1780      2.00000
      6      -4.3241      2.00000
      7      -3.7008      2.00000
      8      -2.7958      2.00000
      9      -1.5107      2.00000
     10      -0.7148      2.00000
     11      -0.4859      2.00000
     12       0.0694      2.00000
     13       0.8181      2.00000
     14       0.9418      2.00000
     15       1.0785      2.00000
     16       1.3760      2.00000
     17       1.8784      2.00000
     18       2.0223      2.00000
     19       2.7727      2.00000
     20       3.4558      2.00000
     21       4.2732      0.00000
     22       5.0773      0.00000
     23       5.4970      0.00000
     24       5.5786      0.00000
     25       6.4642      0.00000
     26       6.7231      0.00000
     27       7.1775      0.00000
     28       7.2025      0.00000
     29       7.4012      0.00000
     30       7.5133      0.00000
     31       8.0034      0.00000
     32       9.5949      0.00000

 k-point     7 :       0.1667   -0.1667    0.0000
  band No.  band energies     occupation 
      1     -10.6683      2.00000
      2     -10.3270      2.00000
      3      -9.6158      2.00000
      4      -9.1638      2.00000
      5      -5.1057      2.00000
      6      -4.3963      2.00000
      7      -3.5277      2.00000
      8      -3.0128      2.00000
      9      -1.5522      2.00000
     10      -0.7513      2.00000
     11      -0.5352      2.00000
     12       0.1963      2.00000
     13       0.8349      2.00000
     14       0.9101      2.00000
     15       1.2779      2.00000
     16       1.2787      2.00000
     17       1.8672      2.00000
     18       2.0425      2.00000
     19       2.8991      2.00000
     20       3.2140      2.00000
     21       4.4133      0.00000
     22       5.1272      0.00000
     23       5.5707      0.00000
     24       5.7029      0.00000
     25       6.3588      0.00000
     26       6.4586      0.00000
     27       6.8460      0.00000
     28       7.0297      0.00000
     29       7.5305      0.00000
     30       7.9866      0.00000
     31       8.2056      0.00000
     32       8.7303      0.00000

 k-point     8 :       0.3333    0.1667    0.0000
  band No.  band energies     occupation 
      1     -10.1752      2.00000
      2      -9.8764      2.00000
      3      -9.4403      2.00000
      4      -9.1048      2.00000
      5      -5.3948      2.00000
      6      -4.5969      2.00000
      7      -4.4565      2.00000
      8      -3.5991      2.00000
      9      -1.0800      2.00000
     10      -0.9855      2.00000
     11      -0.6150      2.00000
     12      -0.1050      2.00000
     13       0.6100      2.00000
     14       0.7131      2.00000
     15       1.0169      2.00000
     16       1.3089      2.00000
     17       1.4728      2.00000
     18       1.9142      2.00000
     19       2.3927      2.00000
     20       3.0118      2.00000
     21       4.2435      0.00000
     22       4.9152      0.00000
     23       4.9368      0.00000
     24       5.4957      0.00000
     25       5.9554      0.00000
     26       6.1601      0.00000
     27       6.8237      0.00000
     28       6.8936      0.00000
     29       7.1816      0.00000
     30       7.8458      0.00000
     31       8.5089      0.00000
     32       8.8921      0.00000

 k-point     9 :       0.3333   -0.1667    0.0000
  band No.  band energies     occupation 
      1     -10.1780      2.00000
      2      -9.8743      2.00000
      3      -9.4316      2.00000
      4      -9.1203      2.00000
      5      -5.3148      2.00000
      6      -4.6750      2.00000
      7      -4.3108      2.00000
      8      -3.7783      2.00000
      9      -1.0335      2.00000
     10      -0.9862      2.00000
     11      -0.8215      2.00000
     12      -0.0573      2.00000
     13       0.8544      2.00000
     14       0.9967      2.00000
     15       1.0074      2.00000
     16       1.1141      2.00000
     17       1.3630      2.00000
     18       1.7226      2.00000
     19       2.5992      2.00000
     20       2.9441      2.00000
     21       4.2641      0.00000
     22       5.0512      0.00000
     23       5.1299      0.00000
     24       5.2588      0.00000
     25       5.7090      0.00000
     26       6.3357      0.00000
     27       6.7296      0.00000
     28       6.8318      0.00000
     29       7.5008      0.00000
     30       7.7236      0.00000
     31       8.1838      0.00000
     32       8.6487      0.00000

 k-point    10 :       0.5000    0.1667    0.0000
  band No.  band energies     occupation 
      1      -9.6165      2.00000
      2      -9.6081      2.00000
      3      -9.3736      2.00000
      4      -9.3631      2.00000
      5      -5.2167      2.00000
      6      -5.1985      2.00000
      7      -4.4794      2.00000
      8      -4.4512      2.00000
      9      -0.6090      2.00000
     10      -0.5112      2.00000
     11      -0.3451      2.00000
     12       0.0419      2.00000
     13       0.0713      2.00000
     14       0.4306      2.00000
     15       0.7796      2.00000
     16       0.7982      2.00000
     17       1.4769      2.00000
     18       1.5272      2.00000
     19       2.6853      2.00000
     20       2.7830      2.00000
     21       4.2482      0.00000
     22       4.3080      0.00000
     23       5.3206      0.00000
     24       5.6007      0.00000
     25       5.9642      0.00000
     26       6.1262      0.00000
     27       6.2124      0.00000
     28       6.6052      0.00000
     29       7.1464      0.00000
     30       7.2091      0.00000
     31       7.9360      0.00000
     32       7.9566      0.00000

 k-point    11 :       0.0000    0.3333    0.0000
  band No.  band energies     occupation 
      1     -10.5391      2.00000
      2     -10.1989      2.00000
      3      -9.8364      2.00000
      4      -9.4345      2.00000
      5      -5.4060      2.00000
      6      -4.4878      2.00000
      7      -4.3670      2.00000
      8      -3.4445      2.00000
      9      -1.2268      2.00000
     10       0.2783      2.00000
     11       0.7650      2.00000
     12       0.8631      2.00000
     13       1.2092      2.00000
     14       1.2567      2.00000
     15       1.5692      2.00000
     16       1.6431      2.00000
     17       1.6893      2.00000
     18       2.7656      2.00000
     19       2.9797      2.00000
     20       3.1841      2.00000
     21       4.3641      0.00000
     22       4.7176      0.00000
     23       4.9831      0.00000
     24       5.4967      0.00000
     25       5.9953      0.00000
     26       6.0197      0.00000
     27       6.1456      0.00000
     28       6.8661      0.00000
     29       6.9230      0.00000
     30       6.9837      0.00000
     31       7.9133      0.00000
     32       9.3957      0.00000

 k-point    12 :       0.1667    0.3333    0.0000
  band No.  band energies     occupation 
      1     -10.3724      2.00000
      2     -10.0462      2.00000
      3      -9.7234      2.00000
      4      -9.3409      2.00000
      5      -5.3341      2.00000
      6      -4.4930      2.00000
      7      -4.3405      2.00000
      8      -3.4417      2.00000
      9      -1.0373      2.00000
     10      -0.6498      2.00000
     11      -0.5140      2.00000
     12       0.0791      2.00000
     13       0.5661      2.00000
     14       0.5842      2.00000
     15       1.3684      2.00000
     16       1.9367      2.00000
     17       2.1651      2.00000
     18       2.3293      2.00000
     19       2.6417      2.00000
     20       3.0269      2.00000
     21       4.6178      0.00000
     22       5.1736      0.00000
     23       5.5720      0.00000
     24       5.6552      0.00000
     25       5.9563      0.00000
     26       6.3812      0.00000
     27       6.9719      0.00000
     28       7.1143      0.00000
     29       7.3758      0.00000
     30       7.8841      0.00000
     31       7.9962      0.00000
     32       9.2387      0.00000

 k-point    13 :       0.1667   -0.3333    0.0000
  band No.  band energies     occupation 
      1     -10.3747      2.00000
      2     -10.0445      2.00000
      3      -9.7193      2.00000
      4      -9.3494      2.00000
      5      -5.3041      2.00000
      6      -4.3846      2.00000
      7      -4.3550      2.00000
      8      -3.5876      2.00000
      9      -1.0901      2.00000
     10      -0.8205      2.00000
     11      -0.4496      2.00000
     12       0.2690      2.00000
     13       0.5154      2.00000
     14       0.7826      2.00000
     15       1.4172      2.00000
     16       1.7155      2.00000
     17       1.9050      2.00000
     18       2.2737      2.00000
     19       3.0197      2.00000
     20       3.0917      2.00000
     21       4.5901      0.00000
     22       5.3145      0.00000
     23       5.4996      0.00000
     24       5.7492      0.00000
     25       5.8512      0.00000
     26       6.2049      0.00000
     27       6.8903      0.00000
     28       7.2707      0.00000
     29       7.5491      0.00000
     30       7.6177      0.00000
     31       8.2368      0.00000
     32       8.6336      0.00000

 k-point    14 :       0.3333    0.3333    0.0000
  band No.  band energies     occupation 
      1      -9.9446      2.00000
      2      -9.6635      2.00000
      3      -9.5039      2.00000
      4      -9.1926      2.00000
      5      -5.1987      2.00000
      6      -4.6414      2.00000
      7      -4.4191      2.00000
      8      -3.7900      2.00000
      9      -1.5748      2.00000
     10      -1.1523      2.00000
     11      -0.9303      2.00000
     12      -0.5935      2.00000
     13      -0.2350      2.00000
     14       0.2968      2.00000
     15       0.3890      2.00000
     16       1.0909      2.00000
     17       1.2085      2.00000
     18       1.6833      2.00000
     19       2.3286      2.00000
     20       3.1382      2.00000
     21       4.3110      0.00000
     22       5.9600      0.00000
     23       5.9820      0.00000
     24       6.5272      0.00000
     25       6.5481      0.00000
     26       6.9431      0.00000
     27       7.1670      0.00000
     28       7.5799      0.00000
     29       8.1371      0.00000
     30       8.4677      0.00000
     31       8.6664      0.00000
     32       9.4445      0.00000

 k-point    15 :       0.3333   -0.3333    0.0000
  band No.  band energies     occupation 
      1      -9.9508      2.00000
      2      -9.6575      2.00000
      3      -9.4908      2.00000
      4      -9.2130      2.00000
      5      -5.1356      2.00000
      6      -4.4700      2.00000
      7      -4.4081      2.00000
      8      -4.0859      2.00000
      9      -1.5623      2.00000
     10      -1.2680      2.00000
     11      -0.8746      2.00000
     12      -0.6061      2.00000
     13      -0.1816      2.00000
     14       0.5378      2.00000
     15       0.6802      2.00000
     16       0.6908      2.00000
     17       0.9326      2.00000
     18       1.9656      2.00000
     19       2.6260      2.00000
     20       2.6283      2.00000
     21       4.4968      0.00000
     22       6.0653      0.00000
     23       6.2824      0.00000
     24       6.3364      0.00000
     25       6.5932      0.00000
     26       6.7262      0.00000
     27       6.8529      0.00000
     28       7.7751      0.00000
     29       8.2025      0.00000
     30       8.3752      0.00000
     31       8.7613      0.00000
     32       9.5581      0.00000

 k-point    16 :       0.5000    0.3333    0.0000
  band No.  band energies     occupation 
      1      -9.5356      2.00000
      2      -9.5198      2.00000
      3      -9.3014      2.00000
      4      -9.2819      2.00000
      5      -4.9794      2.00000
      6      -4.9262      2.00000
      7      -4.4515      2.00000
      8      -4.3751      2.00000
      9      -1.2686      2.00000
     10      -1.2564      2.00000
     11      -0.8631      2.00000
     12      -0.7613      2.00000
     13      -0.3680      2.00000
     14      -0.2706      2.00000
     15       0.1785      2.00000
     16       0.3193      2.00000
     17       0.8029      2.00000
     18       1.1458      2.00000
     19       2.3849      2.00000
     20       2.8629      2.00000
     21       5.2378      0.00000
     22       5.3131      0.00000
     23       6.5027      0.00000
     24       6.6282      0.00000
     25       6.8713      0.00000
     26       7.0338      0.00000
     27       7.3842      0.00000
     28       7.4756      0.00000
     29       8.0439      0.00000
     30       8.3224      0.00000
     31       8.9956      0.00000
     32       9.3037      0.00000

 k-point    17 :       0.0000    0.5000    0.0000
  band No.  band energies     occupation 
      1     -10.1396      2.00000
      2     -10.1396      2.00000
      3      -9.7970      2.00000
      4      -9.7970      2.00000
      5      -5.2255      2.00000
      6      -5.2255      2.00000
      7      -4.1161      2.00000
      8      -4.1161      2.00000
      9      -0.4859      2.00000
     10      -0.4859      2.00000
     11       1.2534      2.00000
     12       1.2534      2.00000
     13       1.2938      2.00000
     14       1.2938      2.00000
     15       1.9790      2.00000
     16       1.9790      2.00000
     17       2.2523      2.00000
     18       2.2523      2.00000
     19       2.9200      2.00000
     20       2.9200      2.00000
     21       4.6482      0.00000
     22       4.6482      0.00000
     23       5.1739      0.00000
     24       5.1739      0.00000
     25       5.6384      0.00000
     26       5.6384      0.00000
     27       6.2415      0.00000
     28       6.2415      0.00000
     29       6.3213      0.00000
     30       6.3213      0.00000
     31       8.8601      0.00000
     32       8.8601      0.00000

 k-point    18 :       0.1667    0.5000    0.0000
  band No.  band energies     occupation 
      1     -10.0033      2.00000
      2      -9.9997      2.00000
      3      -9.6758      2.00000
      4      -9.6711      2.00000
      5      -5.1204      2.00000
      6      -5.0856      2.00000
      7      -4.1054      2.00000
      8      -4.0454      2.00000
      9      -0.5044      2.00000
     10      -0.4971      2.00000
     11      -0.2202      2.00000
     12      -0.1082      2.00000
     13       0.0976      2.00000
     14       0.1982      2.00000
     15       1.5495      2.00000
     16       1.8834      2.00000
     17       1.9611      2.00000
     18       2.5080      2.00000
     19       2.8821      2.00000
     20       3.0675      2.00000
     21       4.7866      0.00000
     22       4.8639      0.00000
     23       5.8159      0.00000
     24       5.8381      0.00000
     25       6.1537      0.00000
     26       6.4278      0.00000
     27       6.9230      0.00000
     28       7.0506      0.00000
     29       7.3567      0.00000
     30       7.4493      0.00000
     31       8.3606      0.00000
     32       8.5119      0.00000

 k-point    19 :       0.3333    0.5000    0.0000
  band No.  band energies     occupation 
      1      -9.6851      2.00000
      2      -9.6745      2.00000
      3      -9.4074      2.00000
      4      -9.3937      2.00000
      5      -4.9129      2.00000
      6      -4.8330      2.00000
      7      -4.2511      2.00000
      8      -4.1239      2.00000
      9      -1.5180      2.00000
     10      -1.3887      2.00000
     11      -0.9892      2.00000
     12      -0.9768      2.00000
     13      -0.1909      2.00000
     14      -0.0922      2.00000
     15       0.4276      2.00000
     16       0.5548      2.00000
     17       1.0266      2.00000
     18       1.4659      2.00000
     19       2.4154      2.00000
     20       2.8897      2.00000
     21       5.3115      0.00000
     22       5.3217      0.00000
     23       6.8144      0.00000
     24       6.9839      0.00000
     25       7.2535      0.00000
     26       7.2866      0.00000
     27       7.6406      0.00000
     28       7.7706      0.00000
     29       8.4413      0.00000
     30       8.6608      0.00000
     31       9.1830      0.00000
     32       9.4568      0.00000

 k-point    20 :       0.5000    0.5000    0.0000
  band No.  band energies     occupation 
      1      -9.4929      2.00000
      2      -9.4739      2.00000
      3      -9.2635      2.00000
      4      -9.2400      2.00000
      5      -4.8281      2.00000
      6      -4.7121      2.00000
      7      -4.5077      2.00000
      8      -4.3597      2.00000
      9      -1.5620      2.00000
     10      -1.4619      2.00000
     11      -1.2280      2.00000
     12      -1.0594      2.00000
     13      -0.7265      2.00000
     14      -0.2706      2.00000
     15      -0.1958      2.00000
     16       0.0235      2.00000
     17       0.5543      2.00000
     18       1.1554      2.00000
[...]
     32       8.1999      0.00000

 k-point    32 :       0.1667    0.3333    0.5000
  band No.  band energies     occupation 
      1     -10.2513      2.00000
      2     -10.2513      2.00000
      3      -9.4915      2.00000
      4      -9.4915      2.00000
      5      -5.0178      2.00000
      6      -5.0178      2.00000
      7      -3.8568      2.00000
      8      -3.8568      2.00000
      9      -0.7837      2.00000
     10      -0.7837      2.00000
     11       0.0909      2.00000
     12       0.0909      2.00000
     13       0.4775      2.00000
     14       0.4775      2.00000
     15       1.4669      2.00000
     16       1.4669      2.00000
     17       2.1246      2.00000
     18       2.1246      2.00000
     19       2.5908      2.00000
     20       2.5908      2.00000
     21       5.3283      0.00000
     22       5.3283      0.00000
     23       5.6215      0.00000
     24       5.6215      0.00000
     25       6.4641      0.00000
     26       6.4641      0.00000
     27       6.8249      0.00000
     28       6.8249      0.00000
     29       7.7877      0.00000
     30       7.7877      0.00000
     31       8.3532      0.00000
     32       8.3532      0.00000

 k-point    33 :       0.1667   -0.3333    0.5000
  band No.  band energies     occupation 
      1     -10.2516      2.00000
      2     -10.2516      2.00000
      3      -9.4932      2.00000
      4      -9.4932      2.00000
      5      -4.9749      2.00000
      6      -4.9749      2.00000
      7      -3.9033      2.00000
      8      -3.9033      2.00000
      9      -0.7379      2.00000
     10      -0.7379      2.00000
     11      -0.0314      2.00000
     12      -0.0314      2.00000
     13       0.4409      2.00000
     14       0.4409      2.00000
     15       1.5368      2.00000
     16       1.5368      2.00000
     17       2.0528      2.00000
     18       2.0528      2.00000
     19       2.8234      2.00000
     20       2.8234      2.00000
     21       5.2641      0.00000
     22       5.2641      0.00000
     23       5.6922      0.00000
     24       5.6922      0.00000
     25       6.4069      0.00000
     26       6.4069      0.00000
     27       7.0027      0.00000
     28       7.0027      0.00000
     29       7.3194      0.00000
     30       7.3194      0.00000
     31       8.1734      0.00000
     32       8.1734      0.00000

 k-point    34 :       0.3333    0.3333    0.5000
  band No.  band energies     occupation 
      1      -9.8459      2.00000
      2      -9.8459      2.00000
      3      -9.3078      2.00000
      4      -9.3078      2.00000
      5      -4.9596      2.00000
      6      -4.9596      2.00000
      7      -4.0969      2.00000
      8      -4.0969      2.00000
      9      -1.4996      2.00000
     10      -1.4996      2.00000
     11      -0.6079      2.00000
     12      -0.6079      2.00000
     13       0.1545      2.00000
     14       0.1545      2.00000
     15       0.8062      2.00000
     16       0.8062      2.00000
     17       1.4595      2.00000
     18       1.4595      2.00000
     19       2.1945      2.00000
     20       2.1945      2.00000
     21       5.4763      0.00000
     22       5.4763      0.00000
     23       6.2046      0.00000
     24       6.2046      0.00000
     25       6.8228      0.00000
     26       6.8228      0.00000
     27       7.7137      0.00000
     28       7.7137      0.00000
     29       8.0656      0.00000
     30       8.0656      0.00000
     31       9.0120      0.00000
     32       9.0120      0.00000

 k-point    35 :       0.3333   -0.3333    0.5000
  band No.  band energies     occupation 
      1      -9.8459      2.00000
      2      -9.8459      2.00000
      3      -9.3107      2.00000
      4      -9.3107      2.00000
      5      -4.8620      2.00000
      6      -4.8620      2.00000
      7      -4.2158      2.00000
      8      -4.2158      2.00000
      9      -1.4363      2.00000
     10      -1.4363      2.00000
     11      -0.6531      2.00000
     12      -0.6531      2.00000
     13       0.0934      2.00000
     14       0.0934      2.00000
     15       0.8188      2.00000
     16       0.8188      2.00000
     17       1.3717      2.00000
     18       1.3717      2.00000
     19       2.4189      2.00000
     20       2.4189      2.00000
     21       5.5436      0.00000
     22       5.5436      0.00000
     23       6.1529      0.00000
     24       6.1529      0.00000
     25       6.7622      0.00000
     26       6.7622      0.00000
     27       7.3731      0.00000
     28       7.3731      0.00000
     29       7.9526      0.00000
     30       7.9526      0.00000
     31       9.4029      0.00000
     32       9.4029      0.00000

 k-point    36 :       0.5000    0.3333    0.5000
  band No.  band energies     occupation 
      1      -9.5231      2.00000
      2      -9.5231      2.00000
      3      -9.2976      2.00000
      4      -9.2976      2.00000
      5      -4.8723      2.00000
      6      -4.8723      2.00000
      7      -4.5103      2.00000
      8      -4.5103      2.00000
      9      -1.2172      2.00000
     10      -1.2172      2.00000
     11      -0.9253      2.00000
     12      -0.9253      2.00000
     13      -0.2179      2.00000
     14      -0.2179      2.00000
     15       0.1412      2.00000
     16       0.1412      2.00000
     17       1.5126      2.00000
     18       1.5126      2.00000
     19       1.9800      2.00000
     20       1.9800      2.00000
     21       5.7538      0.00000
     22       5.7538      0.00000
     23       6.2764      0.00000
     24       6.2764      0.00000
     25       6.8869      0.00000
     26       6.8869      0.00000
     27       7.3942      0.00000
     28       7.3942      0.00000
     29       8.4715      0.00000
     30       8.4715      0.00000
     31       8.9202      0.00000
     32       8.9202      0.00000

 k-point    37 :       0.0000    0.5000    0.5000
  band No.  band energies     occupation 
      1     -10.1345      2.00000
      2     -10.1345      2.00000
      3      -9.8044      2.00000
      4      -9.8044      2.00000
      5      -5.1090      2.00000
      6      -5.1090      2.00000
      7      -4.3197      2.00000
      8      -4.3197      2.00000
      9       0.2874      2.00000
     10       0.2874      2.00000
     11       0.7333      2.00000
     12       0.7333      2.00000
     13       1.2796      2.00000
     14       1.2796      2.00000
     15       1.3187      2.00000
     16       1.3187      2.00000
     17       2.5297      2.00000
     18       2.5297      2.00000
     19       2.9131      2.00000
     20       2.9131      2.00000
     21       4.7250      0.00000
     22       4.7250      0.00000
     23       5.0098      0.00000
     24       5.0098      0.00000
     25       6.1435      0.00000
     26       6.1435      0.00000
     27       6.1905      0.00000
     28       6.1905      0.00000
     29       6.8552      0.00000
     30       6.8552      0.00000
     31       8.0738      0.00000
     32       8.0738      0.00000

 k-point    38 :       0.1667    0.5000    0.5000
  band No.  band energies     occupation 
      1      -9.9967      2.00000
      2      -9.9967      2.00000
      3      -9.6803      2.00000
      4      -9.6803      2.00000
      5      -4.9970      2.00000
      6      -4.9970      2.00000
      7      -4.2512      2.00000
      8      -4.2512      2.00000
      9      -0.3861      2.00000
     10      -0.3861      2.00000
     11      -0.1295      2.00000
     12      -0.1295      2.00000
     13       0.7584      2.00000
     14       0.7584      2.00000
     15       0.9173      2.00000
     16       0.9173      2.00000
     17       2.1598      2.00000
     18       2.1598      2.00000
     19       2.7440      2.00000
     20       2.7440      2.00000
     21       5.4993      0.00000
     22       5.4993      0.00000
     23       5.6951      0.00000
     24       5.6951      0.00000
     25       6.5357      0.00000
     26       6.5357      0.00000
     27       7.0334      0.00000
     28       7.0334      0.00000
     29       7.3900      0.00000
     30       7.3900      0.00000
     31       8.0734      0.00000
     32       8.0734      0.00000

 k-point    39 :       0.3333    0.5000    0.5000
  band No.  band energies     occupation 
      1      -9.6758      2.00000
      2      -9.6758      2.00000
      3      -9.4060      2.00000
      4      -9.4060      2.00000
      5      -4.7997      2.00000
      6      -4.7997      2.00000
      7      -4.2832      2.00000
      8      -4.2832      2.00000
      9      -1.3245      2.00000
     10      -1.3245      2.00000
     11      -1.2681      2.00000
     12      -1.2681      2.00000
     13       0.2450      2.00000
     14       0.2450      2.00000
     15       0.4598      2.00000
     16       0.4598      2.00000
     17       1.4327      2.00000
     18       1.4327      2.00000
     19       2.0216      2.00000
     20       2.0216      2.00000
     21       5.9635      0.00000
     22       5.9635      0.00000
     23       6.5049      0.00000
     24       6.5049      0.00000
     25       7.3328      0.00000
     26       7.3328      0.00000
     27       7.6630      0.00000
     28       7.6630      0.00000
     29       8.6808      0.00000
     30       8.6808      0.00000
     31       9.2209      0.00000
     32       9.2209      0.00000

 k-point    40 :       0.5000    0.5000    0.5000
  band No.  band energies     occupation 
      1      -9.4804      2.00000
      2      -9.4804      2.00000
      3      -9.2557      2.00000
      4      -9.2557      2.00000
      5      -4.7153      2.00000
      6      -4.7153      2.00000
      7      -4.4938      2.00000
      8      -4.4938      2.00000
      9      -1.5002      2.00000
     10      -1.5002      2.00000
     11      -1.1115      2.00000
     12      -1.1115      2.00000
     13      -0.6070      2.00000
     14      -0.6070      2.00000
     15      -0.2703      2.00000
     16      -0.2703      2.00000
     17       1.5609      2.00000
     18       1.5609      2.00000
     19       2.0015      2.00000
     20       2.0015      2.00000
     21       5.7399      0.00000
     22       5.7399      0.00000
     23       6.3247      0.00000
     24       6.3247      0.00000
     25       7.7487      0.00000
     26       7.7487      0.00000
     27       8.1239      0.00000
     28       8.1239      0.00000
     29       9.0337      0.00000
     30       9.0337      0.00000
     31      10.0044      0.00000
     32      10.0044      0.00000


--------------------------------------------------------------------------------------------------------


 soft charge-density along one line, spin component            1
         0         1         2         3         4         5         6         7         8         9
 total charge-density along one line
 
 pseudopotential strength for first ion, spin component:            1
 14.507  18.099   0.039   0.042  -0.003   0.071   0.075  -0.006
 18.099  22.596   0.050   0.053  -0.004   0.090   0.095  -0.008
  0.039   0.050   3.223  -0.003   0.000   5.486  -0.004   0.001
  0.042   0.053  -0.003   3.221   0.000  -0.004   5.483   0.000
 -0.003  -0.004   0.000   0.000   3.224   0.001   0.000   5.489
  0.071   0.090   5.486  -0.004   0.001   9.397  -0.007   0.001
  0.075   0.095  -0.004   5.483   0.000  -0.007   9.390   0.000
 -0.006  -0.008   0.001   0.000   5.489   0.001   0.000   9.401
  0.001   0.001  -0.001   0.000   0.006  -0.002   0.000   0.012
 -0.005  -0.007   0.011   0.013   0.000   0.019   0.022   0.000
 -0.004  -0.005  -0.003   0.011   0.001  -0.006   0.020   0.001
  0.000   0.000   0.000  -0.001   0.011   0.000  -0.001   0.019
  0.001   0.002  -0.012   0.000  -0.001  -0.021   0.000  -0.002
 total augmentation occupancy for first ion, spin component:            1
  2.764  -0.733   0.323   0.334  -0.023  -0.060  -0.061   0.003   0.005  -0.002  -0.000   0.008   0.009
 -0.733   0.695  -0.415  -0.442   0.030   0.066   0.069  -0.004  -0.006   0.000  -0.001  -0.009  -0.006
  0.323  -0.415   1.239   0.078   0.000  -0.203  -0.005  -0.001  -0.003   0.042  -0.100  -0.004   0.003
  0.334  -0.442   0.078   1.330   0.014  -0.005  -0.216  -0.004  -0.004  -0.025   0.092  -0.007  -0.003
 -0.023   0.030   0.000   0.014   1.250  -0.002  -0.004  -0.215   0.143  -0.003  -0.003   0.038  -0.001
 -0.060   0.066  -0.203  -0.005  -0.002   0.037  -0.000   0.000   0.001  -0.007   0.017   0.001  -0.000
 -0.061   0.069  -0.005  -0.216  -0.004  -0.000   0.040   0.001   0.001   0.004  -0.016   0.001   0.000
  0.003  -0.004  -0.001  -0.004  -0.215   0.000   0.001   0.041  -0.025   0.001   0.000  -0.006   0.000
  0.005  -0.006  -0.003  -0.004   0.143   0.001   0.001  -0.025   0.031   0.001   0.001   0.004  -0.000
 -0.002   0.000   0.042  -0.025  -0.003  -0.007   0.004   0.001   0.001   0.012  -0.006   0.001   0.001
 -0.000  -0.001  -0.100   0.092  -0.003   0.017  -0.016   0.000   0.001  -0.006   0.031   0.001  -0.002
  0.008  -0.009  -0.004  -0.007   0.038   0.001   0.001  -0.006   0.004   0.001   0.001   0.010   0.000
  0.009  -0.006   0.003  -0.003  -0.001  -0.000   0.000   0.000  -0.000   0.001  -0.002   0.000   0.008


------------------------ aborting loop because EDIFF is reached ----------------------------------------


    CHARGE:  cpu time      0.0090: real time      0.0090
    FORLOC:  cpu time      0.0004: real time      0.0004
    FORNL :  cpu time      0.0637: real time      0.0638
    STRESS:  cpu time      0.4445: real time      0.4465
    FORCOR:  cpu time      0.0092: real time      0.0093
    FORHAR:  cpu time      0.0021: real time      0.0021
    MIXING:  cpu time      0.0023: real time      0.0023
    OFIELD:  cpu time      0.0000: real time      0.0000

  FORCE on cell =-STRESS in cart. coord.  units (eV):
  Direction    XX          YY          ZZ          XY          YZ          ZX
  --------------------------------------------------------------------------------------
  Alpha Z    87.52689    87.52689    87.52689
  Ewald    -439.89360  -489.30978  -489.62654     7.36924    -0.00000    -0.00000
  Hartree    62.28343    39.78574    35.52790     2.55717     0.00000     0.00000
  E(xc)    -141.27385  -141.28565  -141.46177     0.06516    -0.00000     0.00000
  Local    -186.95036  -120.97067  -120.42025    -9.87171    -0.00000    -0.00000
  n-local   240.61236   240.15110   241.68310    -0.00810    -0.00000    -0.00000
  augment   -11.36416   -11.77229   -12.14153    -0.02064     0.00000    -0.00000
  Kinetic   390.38501   396.50103   401.62120     0.80848    -0.00000     0.00000
  Fock        0.00000     0.00000     0.00000     0.00000     0.00000     0.00000
  -------------------------------------------------------------------------------------
  Total       1.32573     0.62637     2.70899     0.89961    -0.00000     0.00000
  in kB      10.97183     5.18389    22.41980     7.44524    -0.00000     0.00000
  external pressure =       12.86 kB  Pullay stress =        0.00 kB


 VOLUME and BASIS-vectors are now :
 -----------------------------------------------------------------------------
  energy-cutoff  :      520.00
  volume of cell :      193.59
      direct lattice vectors                 reciprocal lattice vectors
     3.858100176  0.000000000  0.000000000     0.259194929  0.000000000  0.000000000
     0.000000000  4.526575088  0.000000000     0.000000000  0.220917577  0.000000000
     0.000000000  0.000000000 11.085176468     0.000000000  0.000000000  0.090210562

  length of vectors
     3.858100176  4.526575088 11.085176468     0.259194929  0.220917577  0.090210562


 FORCES acting on ions
    electron-ion (+dipol)            ewald-force                    non-local-force                 convergence-correction
 -----------------------------------------------------------------------------------------------
   -.182E+00 0.153E+02 0.259E+02   0.443E+00 -.178E+02 -.285E+02   -.204E+00 0.244E+01 0.273E+01   0.313E-05 -.370E-04 -.127E-02
   -.182E+00 0.153E+02 -.259E+02   0.443E+00 -.178E+02 0.285E+02   -.204E+00 0.244E+01 -.273E+01   0.230E-05 -.386E-04 0.127E-02
   0.182E+00 -.153E+02 -.259E+02   -.443E+00 0.178E+02 0.285E+02   0.204E+00 -.244E+01 -.273E+01   -.266E-05 0.394E-04 0.127E-02
   0.182E+00 -.153E+02 0.259E+02   -.443E+00 0.178E+02 -.285E+02   0.204E+00 -.244E+01 0.273E+01   -.335E-05 0.347E-04 -.128E-02
   -.101E+01 -.147E+02 -.229E+02   0.836E+00 0.162E+02 0.244E+02   0.322E+00 -.148E+01 -.157E+01   0.399E-04 0.394E-03 0.246E-02
   -.101E+01 -.147E+02 0.229E+02   0.836E+00 0.162E+02 -.244E+02   0.322E+00 -.148E+01 0.157E+01   0.381E-04 0.397E-03 -.245E-02
   0.101E+01 0.147E+02 0.229E+02   -.836E+00 -.162E+02 -.244E+02   -.322E+00 0.148E+01 0.157E+01   -.372E-04 -.396E-03 -.246E-02
   0.101E+01 0.147E+02 -.229E+02   -.836E+00 -.162E+02 0.244E+02   -.322E+00 0.148E+01 -.157E+01   -.392E-04 -.389E-03 0.245E-02
 -----------------------------------------------------------------------------------------------
   -.909E-05 0.581E-05 0.501E-05   -.344E-14 -.178E-13 0.000E+00   -.195E-03 0.553E-03 0.850E-06   0.110E-05 0.423E-05 -.486E-05
 
 
 POSITION                                       TOTAL-FORCE (eV/Angst)
 -----------------------------------------------------------------------------------
      0.06989      0.64778      1.36328         0.056926     -0.024507      0.150046
      1.99894      2.91107      4.17930         0.056926     -0.024508     -0.150045
      2.89358      4.01000      9.72189        -0.056903      0.024336     -0.150026
      0.96453      1.74671      6.90587        -0.056903      0.024334      0.150026
      0.06989      0.10092      3.90621         0.147238      0.046695     -0.044305
      1.99894      2.36421      1.63637         0.147237      0.046696      0.044305
      2.89358      0.03028      7.17896        -0.147261     -0.046523      0.044320
      0.96453      2.29357      9.44880        -0.147260     -0.046523     -0.044320
 -----------------------------------------------------------------------------------
    total drift:                               -0.000203      0.000563      0.000001


--------------------------------------------------------------------------------------------------------



  FREE ENERGIE OF THE ION-ELECTRON SYSTEM (eV)
  ---------------------------------------------------
  free  energy   TOTEN  =       -33.62908972 eV

  energy  without entropy=      -33.62908971  energy(sigma->0) =      -33.62908971
 


--------------------------------------------------------------------------------------------------------


    POTLOK:  cpu time      0.2287: real time      0.2292


--------------------------------------------------------------------------------------------------------


     LOOP+:  cpu time      8.0961: real time      8.1349
    4ORBIT:  cpu time      0.0000: real time      0.0000

 total amount of memory used by VASP MPI-rank0    41770. kBytes
=======================================================================

   base      :      30000. kBytes
   nonl-proj :       9056. kBytes
   fftplans  :        519. kBytes
   grid      :        766. kBytes
   one-center:         16. kBytes
   wavefun   :       1413. kBytes
 
  
  
 General timing and accounting informations for this job:
 ========================================================
  
                  Total CPU time used (sec):        9.915
                            User time (sec):        9.588
                          System time (sec):        0.328
                         Elapsed time (sec):       10.300
  
                   Maximum memory used (kb):      180104.
                   Average memory used (kb):          N/A
  
                          Minor page faults:        21853
                          Major page faults:           59
                 Voluntary context switches:         2305
