 vasp.6.4.2 20Jul23 (build Oct 12 2023 10:31:02) complex                         
 executed on              LinuxNV date 2025.05.18  11:49:56
 running  160 mpi-ranks, with    1 threads/rank, on   10 nodes
 distrk:  each k-point on   80 cores,    2 groups
 distr:  one band on NCORE=   5 cores,   16 groups


--------------------------------------------------------------------------------------------------------


 INCAR:
   ENCUT = 520.000000
   SIGMA = 0.050000
   EDIFF = 1.00e-06
   ALGO = Normal
   GGA = PE
   PREC = Normal
   SYSTEM = ./
   ICHARG = 2
   ISMEAR = 0
   ISPIN = 1
   ISTART = 0
   ISYM = 0
   KPAR = 2
   LMAXMIX = 4
   NELM = 100
   NPAR = 16
   LASPH = .TRUE.
   LCHARG = .FALSE.
   LWAVE = .FALSE.

 POTCAR:    PAW_PBE Ge 05Jan2001                  
 POTCAR:    PAW_PBE Se 06Sep2000                  
 POTCAR:    PAW_PBE Ge 05Jan2001                  
   VRHFIN =Ge: s2p2                                                                                 
   LEXCH  = PE                                                                                      
   EATOM  =   104.9960 eV,    7.7170 Ry                                                             
                                                                                                    
   TITEL  = PAW_PBE Ge 05Jan2001                                                                    
   LULTRA =        F    use ultrasoft PP ?                                                          
   IUNSCR =        1    unscreen: 0-lin 1-nonlin 2-no                                               
   RPACOR =    2.170    partial core radius                                                         
   POMASS =   72.610; ZVAL   =    4.000    mass and valenz                                          
   RCORE  =    2.300    outmost cutoff radius                                                       
   RWIGS  =    2.300; RWIGS  =    1.217    wigner-seitz radius (au A)                               
   ENMAX  =  173.807; ENMIN  =  130.355 eV                                                          
   ICORE  =        3    local potential                                                             
   LCOR   =        T    correct aug charges                                                         
   LPAW   =        T    paw PP                                                                      
   EAUG   =  385.843                                                                                
   DEXC   =    0.000                                                                                
   RMAX   =    2.342    core radius for proj-oper                                                   
   RAUG   =    1.300    factor for augmentation sphere                                              
   RDEP   =    2.318    radius for radial grids                                                     
   RDEPT  =    2.103    core radius for aug-charge                                                  
                                                                                                    
   Atomic configuration                                                                             
   10 entries                                                                                       
     n  l   j            E        occ.                                                              
     1  0  0.50    -10959.8463   2.0000                                                             
     2  0  0.50     -1371.6056   2.0000                                                             
     2  1  1.50     -1198.4791   6.0000                                                             
     3  0  0.50      -168.4733   2.0000                                                             
     3  1  1.50      -115.6019   6.0000                                                             
     3  2  2.50       -29.3106  10.0000                                                             
     4  0  0.50       -11.7309   2.0000                                                             
     4  1  0.50        -3.8952   2.0000                                                             
     4  2  1.50        -4.0817   0.0000                                                             
     4  3  2.50        -4.0817   0.0000                                                             
   Description                                                                                      
     l       E           TYP  RCUT    TYP  RCUT                                                     
     0    -11.7309493     23  2.300                                                                 
     0     -7.4578696     23  2.300                                                                 
     1     -3.8952261     23  2.300                                                                 
     1      6.1178114     23  2.300                                                                 
     2     -4.0817478     23  2.300                                                                 
     3     -1.3605826      7  2.300                                                                 
  local pseudopotential read in
  partial core-charges read in
  partial kinetic energy density read in
  atomic valenz-charges read in
  non local Contribution for L=            0  read in
    real space projection operators read in
  non local Contribution for L=            0  read in
    real space projection operators read in
  non local Contribution for L=            1  read in
    real space projection operators read in
  non local Contribution for L=            1  read in
    real space projection operators read in
  non local Contribution for L=            2  read in
    real space projection operators read in
    PAW grid and wavefunctions read in
 
   number of l-projection  operators is LMAX  =            5
   number of lm-projection operators is LMMAX =           13
 
 POTCAR:    PAW_PBE Se 06Sep2000                  
   VRHFIN =Se: s2p4                                                                                 
   LEXCH  = PE                                                                                      
   EATOM  =   257.1286 eV,   18.8984 Ry                                                             
                                                                                                    
   TITEL  = PAW_PBE Se 06Sep2000                                                                    
   LULTRA =        F    use ultrasoft PP ?                                                          
   IUNSCR =        1    unscreen: 0-lin 1-nonlin 2-no                                               
   RPACOR =    1.900    partial core radius                                                         
   POMASS =   78.960; ZVAL   =    6.000    mass and valenz                                          
   RCORE  =    2.100    outmost cutoff radius                                                       
   RWIGS  =    2.200; RWIGS  =    1.164    wigner-seitz radius (au A)                               
   ENMAX  =  211.555; ENMIN  =  158.666 eV                                                          
   ICORE  =        3    local potential                                                             
   LCOR   =        T    correct aug charges                                                         
   LPAW   =        T    paw PP                                                                      
   EAUG   =  446.842                                                                                
   DEXC   =    0.000                                                                                
   RMAX   =    2.147    core radius for proj-oper                                                   
   RAUG   =    1.300    factor for augmentation sphere                                              
   RDEP   =    2.177    radius for radial grids                                                     
   RDEPT  =    1.928    core radius for aug-charge                                                  
                                                                                                    
   Atomic configuration                                                                             
   10 entries                                                                                       
     n  l   j            E        occ.                                                              
     1  0  0.50    -12503.4787   2.0000                                                             
     2  0  0.50     -1606.9547   2.0000                                                             
     2  1  1.50     -1413.3140   6.0000                                                             
     3  0  0.50      -213.4885   2.0000                                                             
     3  1  1.50      -152.9538   6.0000                                                             
     3  2  2.50       -53.1221  10.0000                                                             
     4  0  0.50       -17.2865   2.0000                                                             
     4  1  0.50        -6.5110   4.0000                                                             
     4  2  2.50        -6.8029   0.0000                                                             
     4  3  2.50        -6.8029   0.0000                                                             
   Description                                                                                      
     l       E           TYP  RCUT    TYP  RCUT                                                     
     0    -17.2865377     23  2.100                                                                 
     0    -15.3094411     23  2.100                                                                 
     1     -6.5110275     23  2.100                                                                 
     1     -0.0695192     23  2.100                                                                 
     2     -6.8029130     23  2.100                                                                 
     3     -1.3605826      7  2.100                                                                 
  local pseudopotential read in
  partial core-charges read in
  partial kinetic energy density read in
  atomic valenz-charges read in
  non local Contribution for L=            0  read in
    real space projection operators read in
  non local Contribution for L=            0  read in
    real space projection operators read in
  non local Contribution for L=            1  read in
    real space projection operators read in
  non local Contribution for L=            1  read in
    real space projection operators read in
  non local Contribution for L=            2  read in
    real space projection operators read in
    PAW grid and wavefunctions read in
 
   number of l-projection  operators is LMAX  =            5
   number of lm-projection operators is LMMAX =           13
 
  PAW_PBE Ge 05Jan2001                  :
 energy of atom  1       EATOM= -104.9960
 kinetic energy error for atom=    0.0002 (will be added to EATOM!!)
  PAW_PBE Se 06Sep2000                  :
 energy of atom  2       EATOM= -257.1286
 kinetic energy error for atom=    0.0007 (will be added to EATOM!!)
 
 
 POSCAR: Ge Se
  positions in cartesian coordinates
  No initial velocities read in
 exchange correlation table for  LEXCH =        8
   RHO(1)=    0.500       N(1)  =     2000
   RHO(2)=  100.500       N(2)  =     4000
 


--------------------------------------------------------------------------------------------------------


 ion  position               nearest neighbor table
   1  0.772  0.578  0.123-   6 2.60   6 2.60   5 2.60
   2  0.272  0.078  0.377-   5 2.60   5 2.60   6 2.60
   3  0.750  0.886  0.877-   8 2.60   8 2.60   7 2.60
   4  0.250  0.386  0.623-   7 2.60   7 2.60   8 2.60
   5  0.772  0.457  0.352-   2 2.60   2 2.60   1 2.60
   6  0.272  0.957  0.148-   1 2.60   1 2.60   2 2.60
   7  0.750  0.007  0.648-   4 2.60   4 2.60   3 2.60
   8  0.250  0.507  0.852-   3 2.60   3 2.60   4 2.60
 

IMPORTANT INFORMATION: All symmetrisations will be switched off!
NOSYMM: (Re-)initialisation of all symmetry stuff for point group C_1.


----------------------------------------------------------------------------------------

                                     Primitive cell                                     

  volume of cell :     193.5913

  direct lattice vectors                    reciprocal lattice vectors
     3.858100176  0.000000000  0.000000000     0.259194929  0.000000000  0.000000000
     0.000000000  4.526575088  0.000000000     0.000000000  0.220917577  0.000000000
     0.000000000  0.000000000 11.085176468     0.000000000  0.000000000  0.090210562

  length of vectors
     3.858100176  4.526575088 11.085176468     0.259194929  0.220917577  0.090210562

  position of ions in fractional coordinates (direct lattice)
     0.771739130  0.577888550  0.122982664
     0.271739130  0.077888550  0.377017336
     0.750000000  0.885879566  0.877017336
     0.250000000  0.385879566  0.622982664
     0.771739130  0.457078005  0.352381810
     0.271739130  0.957078005  0.147618190
     0.750000000  0.006690111  0.647618190
     0.250000000  0.506690111  0.852381810

  ion indices of the primitive-cell ions
   primitive index   ion index
                 1           1
                 2           2
                 3           3
                 4           4
                 5           5
                 6           6
                 7           7
                 8           8

----------------------------------------------------------------------------------------

 
 
 KPOINTS: KPOINTS created by Atomic Simulation Env

Automatic generation of k-mesh.
 Grid dimensions read from file:
 generate k-points for:    6    6    2

 Generating k-lattice:

  Cartesian coordinates                     Fractional coordinates (reciprocal lattice)
     0.043199155  0.000000000  0.000000000     0.166666667  0.000000000  0.000000000
     0.000000000  0.036819596  0.000000000     0.000000000  0.166666667  0.000000000
     0.000000000  0.000000000  0.045105281     0.000000000  0.000000000  0.500000000

  Length of vectors
     0.043199155  0.036819596  0.045105281

  Shift w.r.t. Gamma in fractional coordinates (k-lattice)
     0.000000000  0.000000000  0.000000000

 
 Subroutine IBZKPT returns following result:
 ===========================================
 
 Found     40 irreducible k-points:
 
 Following reciprocal coordinates:
            Coordinates               Weight
  0.000000  0.000000  0.000000      1.000000
  0.166667  0.000000  0.000000      2.000000
  0.333333  0.000000  0.000000      2.000000
  0.500000  0.000000  0.000000      1.000000
  0.000000  0.166667  0.000000      2.000000
  0.166667  0.166667  0.000000      2.000000
  0.166667 -0.166667  0.000000      2.000000
  0.333333  0.166667  0.000000      2.000000
  0.333333 -0.166667  0.000000      2.000000
  0.500000  0.166667  0.000000      2.000000
  0.000000  0.333333  0.000000      2.000000
  0.166667  0.333333  0.000000      2.000000
  0.166667 -0.333333  0.000000      2.000000
  0.333333  0.333333  0.000000      2.000000
  0.333333 -0.333333  0.000000      2.000000
  0.500000  0.333333  0.000000      2.000000
  0.000000  0.500000  0.000000      1.000000
  0.166667  0.500000  0.000000      2.000000
  0.333333  0.500000  0.000000      2.000000
  0.500000  0.500000  0.000000      1.000000
  0.000000  0.000000  0.500000      1.000000
  0.166667  0.000000  0.500000      2.000000
  0.333333  0.000000  0.500000      2.000000
  0.500000  0.000000  0.500000      1.000000
  0.000000  0.166667  0.500000      2.000000
  0.166667  0.166667  0.500000      2.000000
  0.166667 -0.166667  0.500000      2.000000
  0.333333  0.166667  0.500000      2.000000
  0.333333 -0.166667  0.500000      2.000000
  0.500000  0.166667  0.500000      2.000000
  0.000000  0.333333  0.500000      2.000000
  0.166667  0.333333  0.500000      2.000000
  0.166667 -0.333333  0.500000      2.000000
  0.333333  0.333333  0.500000      2.000000
  0.333333 -0.333333  0.500000      2.000000
  0.500000  0.333333  0.500000      2.000000
  0.000000  0.500000  0.500000      1.000000
  0.166667  0.500000  0.500000      2.000000
  0.333333  0.500000  0.500000      2.000000
  0.500000  0.500000  0.500000      1.000000
 
 Following cartesian coordinates:
            Coordinates               Weight
  0.000000  0.000000  0.000000      1.000000
  0.043199  0.000000  0.000000      2.000000
  0.086398  0.000000  0.000000      2.000000
  0.129597  0.000000  0.000000      1.000000
  0.000000  0.036820  0.000000      2.000000
  0.043199  0.036820  0.000000      2.000000
  0.043199 -0.036820  0.000000      2.000000
  0.086398  0.036820  0.000000      2.000000
  0.086398 -0.036820  0.000000      2.000000
  0.129597  0.036820  0.000000      2.000000
  0.000000  0.073639  0.000000      2.000000
  0.043199  0.073639  0.000000      2.000000
  0.043199 -0.073639  0.000000      2.000000
  0.086398  0.073639  0.000000      2.000000
  0.086398 -0.073639  0.000000      2.000000
  0.129597  0.073639  0.000000      2.000000
  0.000000  0.110459  0.000000      1.000000
  0.043199  0.110459  0.000000      2.000000
  0.086398  0.110459  0.000000      2.000000
  0.129597  0.110459  0.000000      1.000000
  0.000000  0.000000  0.045105      1.000000
  0.043199  0.000000  0.045105      2.000000
  0.086398  0.000000  0.045105      2.000000
  0.129597  0.000000  0.045105      1.000000
  0.000000  0.036820  0.045105      2.000000
  0.043199  0.036820  0.045105      2.000000
  0.043199 -0.036820  0.045105      2.000000
  0.086398  0.036820  0.045105      2.000000
  0.086398 -0.036820  0.045105      2.000000
  0.129597  0.036820  0.045105      2.000000
  0.000000  0.073639  0.045105      2.000000
  0.043199  0.073639  0.045105      2.000000
  0.043199 -0.073639  0.045105      2.000000
  0.086398  0.073639  0.045105      2.000000
  0.086398 -0.073639  0.045105      2.000000
  0.129597  0.073639  0.045105      2.000000
  0.000000  0.110459  0.045105      1.000000
  0.043199  0.110459  0.045105      2.000000
  0.086398  0.110459  0.045105      2.000000
  0.129597  0.110459  0.045105      1.000000
 


--------------------------------------------------------------------------------------------------------




 Dimension of arrays:
   k-points           NKPTS =     40   k-points in BZ     NKDIM =     40   number of bands    NBANDS=     32
   number of dos      NEDOS =    301   number of ions     NIONS =      8
   non local maximal  LDIM  =      5   non local SUM 2l+1 LMDIM =     13
   total plane-waves  NPLWV =  43008
   max r-space proj   IRMAX =      1   max aug-charges    IRDMAX=  12272
   dimension x,y,z NGX =    24 NGY =   28 NGZ =   64
   dimension x,y,z NGXF=    48 NGYF=   56 NGZF=  128
   support grid    NGXF=    48 NGYF=   56 NGZF=  128
   ions per type =               4   4
   NGX,Y,Z   is equivalent  to a cutoff of  10.34, 10.28,  9.60 a.u.
   NGXF,Y,Z  is equivalent  to a cutoff of  20.68, 20.57, 19.20 a.u.

 SYSTEM =  ./                                      
 POSCAR =  Ge Se                                   

 Startparameter for this run:
   NWRITE =      2    write-flag & timer
   PREC   = normal    normal or accurate (medium, high low for compatibility)
   ISTART =      0    job   : 0-new  1-cont  2-samecut
   ICHARG =      2    charge: 1-file 2-atom 10-const
   ISPIN  =      1    spin polarized calculation?
   LNONCOLLINEAR =      F non collinear calculations
   LSORBIT =      F    spin-orbit coupling
   INIWAV =      1    electr: 0-lowe 1-rand  2-diag
   LASPH  =      T    aspherical Exc in radial PAW
 Electronic Relaxation 1
   ENCUT  =  520.0 eV  38.22 Ry    6.18 a.u.   7.17  8.42 20.61*2*pi/ulx,y,z
   ENINI  =  520.0     initial cutoff
   ENAUG  =  446.8 eV  augmentation charge cutoff
   NELM   =    100;   NELMIN=  2; NELMDL= -5     # of ELM steps 
   EDIFF  = 0.1E-05   stopping-criterion for ELM
   LREAL  =      F    real-space projection
   NLSPLINE    = F    spline interpolate recip. space projectors
   LCOMPAT=      F    compatible to vasp.4.4
   GGA_COMPAT  = T    GGA compatible to vasp.4.4-vasp.4.6
   LMAXPAW     = -100 max onsite density
   LMAXMIX     =    4 max onsite mixed and CHGCAR
   VOSKOWN=      0    Vosko Wilk Nusair interpolation
   ROPT   =    0.00000   0.00000
 Ionic relaxation
   EDIFFG = 0.1E-04   stopping-criterion for IOM
   NSW    =      0    number of steps for IOM
   NBLOCK =      1;   KBLOCK =      1    inner block; outer block 
   IBRION =     -1    ionic relax: 0-MD 1-quasi-New 2-CG
   NFREE  =      0    steps in history (QN), initial steepest desc. (CG)
   ISIF   =      2    stress and relaxation
   IWAVPR =     10    prediction:  0-non 1-charg 2-wave 3-comb
   ISYM   =      0    0-nonsym 1-usesym 2-fastsym
   LCORR  =      T    Harris-Foulkes like correction to forces

   POTIM  = 0.5000    time-step for ionic-motion
   TEIN   =    0.0    initial temperature
   TEBEG  =    0.0;   TEEND  =   0.0 temperature during run
   SMASS  =  -3.00    Nose mass-parameter (am)
   estimated Nose-frequenzy (Omega)   =  0.10E-29 period in steps = 0.13E+47 mass=  -0.340E-27a.u.
   SCALEE = 1.0000    scale energy and forces
   NPACO  =    256;   APACO  = 10.0  distance and # of slots for P.C.
   PSTRESS=    0.0 pullay stress

  Mass of Ions in am
   POMASS =  72.61 78.96
  Ionic Valenz
   ZVAL   =   4.00  6.00
  Atomic Wigner-Seitz radii
   RWIGS  =  -1.00 -1.00
  virtual crystal weights 
   VCA    =   1.00  1.00
   NELECT =      40.0000    total number of electrons
   NUPDOWN=      -1.0000    fix difference up-down

 DOS related values:
   EMIN   =  10.00;   EMAX   =-10.00  energy-range for DOS
   EFERMI =   0.00;   METHOD = LEGACY      
   ISMEAR =     0;   SIGMA  =   0.05  broadening in eV -4-tet -1-fermi 0-gaus

 Electronic relaxation 2 (details)
   IALGO  =     38    algorithm
   LDIAG  =      T    sub-space diagonalisation (order eigenvalues)
   LSUBROT=      F    optimize rotation matrix (better conditioning)
   TURBO    =      0    0=normal 1=particle mesh
   IRESTART =      0    0=no restart 2=restart with 2 vectors
   NREBOOT  =      0    no. of reboots
   NMIN     =      0    reboot dimension
   EREF     =   0.00    reference energy to select bands
   IMIX   =      4    mixing-type and parameters
     AMIX     =   0.40;   BMIX     =  1.00
     AMIX_MAG =   1.60;   BMIX_MAG =  1.00
     AMIN     =   0.10
     WC   =   100.;   INIMIX=   1;  MIXPRE=   1;  MAXMIX= -45

 Intra band minimization:
   WEIMIN = 0.0000     energy-eigenvalue tresh-hold
   EBREAK =  0.78E-08  absolut break condition
   DEPER  =   0.30     relativ break condition  

   TIME   =   0.40     timestep for ELM

  volume/ion in A,a.u.               =      24.20       163.30
  Fermi-wavevector in a.u.,A,eV,Ry     =   0.967831  1.828935 12.744535  0.936697
  Thomas-Fermi vector in A             =   2.097750
 
 Write flags
   LWAVE        =      F    write WAVECAR
   LDOWNSAMPLE  =      F    k-point downsampling of WAVECAR
   LCHARG       =      F    write CHGCAR
   LVTOT        =      F    write LOCPOT, total local potential
   LVHAR        =      F    write LOCPOT, Hartree potential only
   LELF         =      F    write electronic localiz. function (ELF)
   LORBIT       =      0    0 simple, 1 ext, 2 COOP (PROOUT), +10 PAW based schemes


 Dipole corrections
   LMONO  =      F    monopole corrections only (constant potential shift)
   LDIPOL =      F    correct potential (dipole corrections)
   IDIPOL =      0    1-x, 2-y, 3-z, 4-all directions 
   EPSILON=  1.0000000 bulk dielectric constant

 Exchange correlation treatment:
   GGA     =    PE    GGA type
   LEXCH   =     8    internal setting for exchange type
   LIBXC   =     F    Libxc                    
   VOSKOWN =     0    Vosko Wilk Nusair interpolation
   LHFCALC =     F    Hartree Fock is set to
   LHFONE  =     F    Hartree Fock one center treatment
   AEXX    =    0.0000 exact exchange contribution

 Linear response parameters
   LEPSILON=     F    determine dielectric tensor
   LRPA    =     F    only Hartree local field effects (RPA)
   LNABLA  =     F    use nabla operator in PAW spheres
   LVEL    =     F    velocity operator in full k-point grid
   CSHIFT  =0.1000    complex shift for real part using Kramers Kronig
   OMEGAMAX=  -1.0    maximum frequency
   DEG_THRESHOLD= 0.2000000E-02 threshold for treating states as degnerate
   RTIME   =   -0.100 relaxation time in fs
  (WPLASMAI=    0.000 imaginary part of plasma frequency in eV, 0.658/RTIME)
   DFIELD  = 0.0000000 0.0000000 0.0000000 field for delta impulse in time
 
  Optional k-point grid parameters
   LKPOINTS_OPT  =     F    use optional k-point grid
   KPOINTS_OPT_MODE=     1    mode for optional k-point grid
 
 Orbital magnetization related:
   ORBITALMAG=     F  switch on orbital magnetization
   LCHIMAG   =     F  perturbation theory with respect to B field
   DQ        =  0.001000  dq finite difference perturbation B field
   LLRAUG    =     F  two centre corrections for induced B field
   LBONE     =     F  B-component reconstruction in AE one-centre
   LVGVCALC  =     T  calculate vGv susceptibility
   LVGVAPPL  =     F  apply vGv susceptibility instead of pGv for G=0

 Random number generation:
   RANDOM_GENERATOR = DEFAULT
   PCG_SEED         = not used


--------------------------------------------------------------------------------------------------------


 Static calculation
 charge density and potential will be updated during run
 non-spin polarized calculation
 Variant of blocked Davidson
 Davidson routine will perform the subspace rotation
 perform sub-space diagonalisation
    after iterative eigenvector-optimisation
 modified Broyden-mixing scheme, WC =      100.0
 initial mixing is a Kerker type mixing with AMIX =  0.4000 and BMIX =      1.0000
 Hartree-type preconditioning will be used
 using additional bands            12
 reciprocal scheme for non local part
 use partial core corrections
 calculate Harris-corrections to forces 
   (improved forces if not selfconsistent)
 use gradient corrections 
 use of overlap-Matrix (Vanderbilt PP)
 Gauss-broadening in eV      SIGMA  =   0.05


--------------------------------------------------------------------------------------------------------


  energy-cutoff  :      520.00
  volume of cell :      193.59
      direct lattice vectors                 reciprocal lattice vectors
     3.858100176  0.000000000  0.000000000     0.259194929  0.000000000  0.000000000
     0.000000000  4.526575088  0.000000000     0.000000000  0.220917577  0.000000000
     0.000000000  0.000000000 11.085176468     0.000000000  0.000000000  0.090210562

  length of vectors
     3.858100176  4.526575088 11.085176468     0.259194929  0.220917577  0.090210562


 
 k-points in units of 2pi/SCALE and weight: KPOINTS created by Atomic Simulation Env
   0.00000000  0.00000000  0.00000000       0.014
   0.04319915  0.00000000  0.00000000       0.028
   0.08639831  0.00000000  0.00000000       0.028
   0.12959746  0.00000000  0.00000000       0.014
   0.00000000  0.03681960  0.00000000       0.028
   0.04319915  0.03681960  0.00000000       0.028
   0.04319915 -0.03681960  0.00000000       0.028
   0.08639831  0.03681960  0.00000000       0.028
   0.08639831 -0.03681960  0.00000000       0.028
   0.12959746  0.03681960  0.00000000       0.028
   0.00000000  0.07363919  0.00000000       0.028
   0.04319915  0.07363919  0.00000000       0.028
   0.04319915 -0.07363919  0.00000000       0.028
   0.08639831  0.07363919  0.00000000       0.028
   0.08639831 -0.07363919  0.00000000       0.028
   0.12959746  0.07363919  0.00000000       0.028
   0.00000000  0.11045879  0.00000000       0.014
   0.04319915  0.11045879  0.00000000       0.028
   0.08639831  0.11045879  0.00000000       0.028
   0.12959746  0.11045879  0.00000000       0.014
   0.00000000  0.00000000  0.04510528       0.014
   0.04319915  0.00000000  0.04510528       0.028
   0.08639831  0.00000000  0.04510528       0.028
   0.12959746  0.00000000  0.04510528       0.014
   0.00000000  0.03681960  0.04510528       0.028
   0.04319915  0.03681960  0.04510528       0.028
   0.04319915 -0.03681960  0.04510528       0.028
   0.08639831  0.03681960  0.04510528       0.028
   0.08639831 -0.03681960  0.04510528       0.028
   0.12959746  0.03681960  0.04510528       0.028
   0.00000000  0.07363919  0.04510528       0.028
   0.04319915  0.07363919  0.04510528       0.028
   0.04319915 -0.07363919  0.04510528       0.028
   0.08639831  0.07363919  0.04510528       0.028
   0.08639831 -0.07363919  0.04510528       0.028
   0.12959746  0.07363919  0.04510528       0.028
   0.00000000  0.11045879  0.04510528       0.014
   0.04319915  0.11045879  0.04510528       0.028
   0.08639831  0.11045879  0.04510528       0.028
   0.12959746  0.11045879  0.04510528       0.014
 
 k-points in reciprocal lattice and weights: KPOINTS created by Atomic Simulation Env
   0.00000000  0.00000000  0.00000000       0.014
   0.16666667  0.00000000  0.00000000       0.028
   0.33333333  0.00000000  0.00000000       0.028
   0.50000000  0.00000000  0.00000000       0.014
   0.00000000  0.16666667  0.00000000       0.028
   0.16666667  0.16666667  0.00000000       0.028
   0.16666667 -0.16666667  0.00000000       0.028
   0.33333333  0.16666667  0.00000000       0.028
   0.33333333 -0.16666667  0.00000000       0.028
   0.50000000  0.16666667  0.00000000       0.028
   0.00000000  0.33333333  0.00000000       0.028
   0.16666667  0.33333333  0.00000000       0.028
   0.16666667 -0.33333333  0.00000000       0.028
   0.33333333  0.33333333  0.00000000       0.028
   0.33333333 -0.33333333  0.00000000       0.028
   0.50000000  0.33333333  0.00000000       0.028
   0.00000000  0.50000000  0.00000000       0.014
   0.16666667  0.50000000  0.00000000       0.028
   0.33333333  0.50000000  0.00000000       0.028
   0.50000000  0.50000000  0.00000000       0.014
   0.00000000  0.00000000  0.50000000       0.014
   0.16666667  0.00000000  0.50000000       0.028
   0.33333333  0.00000000  0.50000000       0.028
   0.50000000  0.00000000  0.50000000       0.014
   0.00000000  0.16666667  0.50000000       0.028
   0.16666667  0.16666667  0.50000000       0.028
   0.16666667 -0.16666667  0.50000000       0.028
   0.33333333  0.16666667  0.50000000       0.028
   0.33333333 -0.16666667  0.50000000       0.028
   0.50000000  0.16666667  0.50000000       0.028
   0.00000000  0.33333333  0.50000000       0.028
   0.16666667  0.33333333  0.50000000       0.028
   0.16666667 -0.33333333  0.50000000       0.028
   0.33333333  0.33333333  0.50000000       0.028
   0.33333333 -0.33333333  0.50000000       0.028
   0.50000000  0.33333333  0.50000000       0.028
   0.00000000  0.50000000  0.50000000       0.014
   0.16666667  0.50000000  0.50000000       0.028
   0.33333333  0.50000000  0.50000000       0.028
   0.50000000  0.50000000  0.50000000       0.014
 
 position of ions in fractional coordinates (direct lattice) 
   0.77173913  0.57788855  0.12298266
   0.27173913  0.07788855  0.37701734
   0.75000000  0.88587957  0.87701734
   0.25000000  0.38587957  0.62298266
   0.77173913  0.45707800  0.35238181
   0.27173913  0.95707800  0.14761819
   0.75000000  0.00669011  0.64761819
   0.25000000  0.50669011  0.85238181
 
 position of ions in cartesian coordinates  (Angst):
   2.97744687  2.61585592  1.36328454
   1.04839679  0.35256837  4.17930370
   2.89357513  4.01000037  9.72189193
   0.96452504  1.74671283  6.90587277
   2.97744687  2.06899791  3.90621455
   1.04839679  4.33228545  1.63637368
   2.89357513  0.03028329  7.17896192
   0.96452504  2.29357083  9.44880278
 


--------------------------------------------------------------------------------------------------------


 k-point   1 :   0.0000 0.0000 0.0000  plane waves:    5211
 k-point   2 :   0.1667 0.0000 0.0000  plane waves:    5225
 k-point   3 :   0.3333 0.0000 0.0000  plane waves:    5224
 k-point   4 :   0.5000 0.0000 0.0000  plane waves:    5258
 k-point   5 :   0.0000 0.1667 0.0000  plane waves:    5209
 k-point   6 :   0.1667 0.1667 0.0000  plane waves:    5201
 k-point   7 :   0.1667-0.1667 0.0000  plane waves:    5201
 k-point   8 :   0.3333 0.1667 0.0000  plane waves:    5230
 k-point   9 :   0.3333-0.1667 0.0000  plane waves:    5230
 k-point  10 :   0.5000 0.1667 0.0000  plane waves:    5236
 k-point  11 :   0.0000 0.3333 0.0000  plane waves:    5213
 k-point  12 :   0.1667 0.3333 0.0000  plane waves:    5199
 k-point  13 :   0.1667-0.3333 0.0000  plane waves:    5199
 k-point  14 :   0.3333 0.3333 0.0000  plane waves:    5211
 k-point  15 :   0.3333-0.3333 0.0000  plane waves:    5211
 k-point  16 :   0.5000 0.3333 0.0000  plane waves:    5230
 k-point  17 :   0.0000 0.5000 0.0000  plane waves:    5220
 k-point  18 :   0.1667 0.5000 0.0000  plane waves:    5208
 k-point  19 :   0.3333 0.5000 0.0000  plane waves:    5230
 k-point  20 :   0.5000 0.5000 0.0000  plane waves:    5180
 k-point  21 :   0.0000 0.0000 0.5000  plane waves:    5210
 k-point  22 :   0.1667 0.0000 0.5000  plane waves:    5178
 k-point  23 :   0.3333 0.0000 0.5000  plane waves:    5214
 k-point  24 :   0.5000 0.0000 0.5000  plane waves:    5232
 k-point  25 :   0.0000 0.1667 0.5000  plane waves:    5224
 k-point  26 :   0.1667 0.1667 0.5000  plane waves:    5210
 k-point  27 :   0.1667-0.1667 0.5000  plane waves:    5210
 k-point  28 :   0.3333 0.1667 0.5000  plane waves:    5196
 k-point  29 :   0.3333-0.1667 0.5000  plane waves:    5196
 k-point  30 :   0.5000 0.1667 0.5000  plane waves:    5224
 k-point  31 :   0.0000 0.3333 0.5000  plane waves:    5202
 k-point  32 :   0.1667 0.3333 0.5000  plane waves:    5214
 k-point  33 :   0.1667-0.3333 0.5000  plane waves:    5214
 k-point  34 :   0.3333 0.3333 0.5000  plane waves:    5216
 k-point  35 :   0.3333-0.3333 0.5000  plane waves:    5216
 k-point  36 :   0.5000 0.3333 0.5000  plane waves:    5216
 k-point  37 :   0.0000 0.5000 0.5000  plane waves:    5212
 k-point  38 :   0.1667 0.5000 0.5000  plane waves:    5192
 k-point  39 :   0.3333 0.5000 0.5000  plane waves:    5208
 k-point  40 :   0.5000 0.5000 0.5000  plane waves:    5208

 maximum and minimum number of plane-waves per node :      1076     1017

 maximum number of plane-waves:      5258
 maximum index in each direction: 
   IXMAX=    7   IYMAX=    8   IZMAX=   20
   IXMIN=   -7   IYMIN=   -8   IZMIN=  -21


 parallel 3D FFT for wavefunctions:
    minimum data exchange during FFTs selected (reduces bandwidth)
 parallel 3D FFT for charge:
    minimum data exchange during FFTs selected (reduces bandwidth)


 total amount of memory used by VASP MPI-rank0    41770. kBytes
=======================================================================

   base      :      30000. kBytes
   nonl-proj :       9056. kBytes
   fftplans  :        519. kBytes
   grid      :        766. kBytes
   one-center:         16. kBytes
   wavefun   :       1413. kBytes
 
     INWAV:  cpu time      0.0000: real time      0.0001
 Broyden mixing: mesh for mixing (old mesh)
   NGX = 15   NGY = 17   NGZ = 41
  (NGX  = 48   NGY  = 56   NGZ  =128)
  gives a total of  10455 points

 initial charge density was supplied:
 charge density of overlapping atoms calculated
 number of electron      40.0000000 magnetization 
 keeping initial charge density in first step


--------------------------------------------------------------------------------------------------------


 Maximum index for augmentation-charges           258 (set IRDMAX)


--------------------------------------------------------------------------------------------------------


 First call to EWALD:  gamma=   0.306
 Maximum number of real-space cells 4x 3x 2
 Maximum number of reciprocal cells 2x 2x 5

    FEWALD:  cpu time      0.0011: real time      0.0011


--------------------------------------- Ionic step        1  -------------------------------------------




--------------------------------------- Iteration      1(   1)  ---------------------------------------


    POTLOK:  cpu time      0.0109: real time      0.0111
    SETDIJ:  cpu time      0.2189: real time      0.2194
     EDDAV:  cpu time      0.3511: real time      0.3529
       DOS:  cpu time      0.0013: real time      0.0013
    --------------------------------------------
      LOOP:  cpu time      0.5823: real time      0.5847

 eigenvalue-minimisations  :  2560
 total energy-change (2. order) : 0.1633232E+03  (-0.1589059E+04)
 number of electron      40.0000000 magnetization 
 augmentation part       40.0000000 magnetization 

 Free energy of the ion-electron system (eV)
  ---------------------------------------------------
  alpha Z        PSCENC =        87.52689448
  Ewald energy   TEWEN  =     -1416.38850822
  -Hartree energ DENC   =      -130.08584720
  -exchange      EXHF   =         0.00000000
  -V(xc)+E(xc)   XCENC  =       -33.32882896
  PAW double counting   =      1193.78262552    -1080.73714043
  entropy T*S    EENTRO =        -0.00510460
  eigenvalues    EBANDS =        94.06446912
  atomic energy  EATOM  =      1448.49460871
  Solvation  Ediel_sol  =         0.00000000
  ---------------------------------------------------
  free energy    TOTEN  =       163.32316841 eV

  energy without entropy =      163.32827301  energy(sigma->0) =      163.32572071


--------------------------------------------------------------------------------------------------------




--------------------------------------- Iteration      1(   2)  ---------------------------------------


     EDDAV:  cpu time      0.4848: real time      0.4886
       DOS:  cpu time      0.0040: real time      0.0040
    --------------------------------------------
      LOOP:  cpu time      0.4888: real time      0.4926

 eigenvalue-minimisations  :  3696
 total energy-change (2. order) :-0.1859645E+03  (-0.1804057E+03)
 number of electron      40.0000000 magnetization 
 augmentation part       40.0000000 magnetization 

 Free energy of the ion-electron system (eV)
  ---------------------------------------------------
  alpha Z        PSCENC =        87.52689448
  Ewald energy   TEWEN  =     -1416.38850822
  -Hartree energ DENC   =      -130.08584720
  -exchange      EXHF   =         0.00000000
  -V(xc)+E(xc)   XCENC  =       -33.32882896
  PAW double counting   =      1193.78262552    -1080.73714043
  entropy T*S    EENTRO =        -0.00112212
  eigenvalues    EBANDS =       -91.90404325
  atomic energy  EATOM  =      1448.49460871
  Solvation  Ediel_sol  =         0.00000000
  ---------------------------------------------------
  free energy    TOTEN  =       -22.64136148 eV

  energy without entropy =      -22.64023936  energy(sigma->0) =      -22.64080042


--------------------------------------------------------------------------------------------------------




--------------------------------------- Iteration      1(   3)  ---------------------------------------


     EDDAV:  cpu time      0.5081: real time      0.5104
       DOS:  cpu time      0.0010: real time      0.0010
    --------------------------------------------
      LOOP:  cpu time      0.5091: real time      0.5114

 eigenvalue-minimisations  :  3328
 total energy-change (2. order) :-0.1126237E+02  (-0.1123089E+02)
 number of electron      40.0000000 magnetization 
 augmentation part       40.0000000 magnetization 

 Free energy of the ion-electron system (eV)
  ---------------------------------------------------
  alpha Z        PSCENC =        87.52689448
  Ewald energy   TEWEN  =     -1416.38850822
  -Hartree energ DENC   =      -130.08584720
  -exchange      EXHF   =         0.00000000
  -V(xc)+E(xc)   XCENC  =       -33.32882896
  PAW double counting   =      1193.78262552    -1080.73714043
  entropy T*S    EENTRO =        -0.00022124
  eigenvalues    EBANDS =      -103.16731112
  atomic energy  EATOM  =      1448.49460871
  Solvation  Ediel_sol  =         0.00000000
  ---------------------------------------------------
  free energy    TOTEN  =       -33.90372846 eV

  energy without entropy =      -33.90350722  energy(sigma->0) =      -33.90361784


--------------------------------------------------------------------------------------------------------




--------------------------------------- Iteration      1(   4)  ---------------------------------------


     EDDAV:  cpu time      0.4466: real time      0.4491
       DOS:  cpu time      0.0009: real time      0.0010
    --------------------------------------------
      LOOP:  cpu time      0.4476: real time      0.4500

 eigenvalue-minimisations  :  3168
 total energy-change (2. order) :-0.8747878E-01  (-0.8746290E-01)
 number of electron      40.0000000 magnetization 
 augmentation part       40.0000000 magnetization 

 Free energy of the ion-electron system (eV)
  ---------------------------------------------------
  alpha Z        PSCENC =        87.52689448
  Ewald energy   TEWEN  =     -1416.38850822
  -Hartree energ DENC   =      -130.08584720
  -exchange      EXHF   =         0.00000000
  -V(xc)+E(xc)   XCENC  =       -33.32882896
  PAW double counting   =      1193.78262552    -1080.73714043
  entropy T*S    EENTRO =        -0.00022283
  eigenvalues    EBANDS =      -103.25478830
  atomic energy  EATOM  =      1448.49460871
  Solvation  Ediel_sol  =         0.00000000
  ---------------------------------------------------
  free energy    TOTEN  =       -33.99120724 eV

  energy without entropy =      -33.99098441  energy(sigma->0) =      -33.99109582


--------------------------------------------------------------------------------------------------------




--------------------------------------- Iteration      1(   5)  ---------------------------------------


     EDDAV:  cpu time      0.5275: real time      0.5302
       DOS:  cpu time      0.0010: real time      0.0010
    CHARGE:  cpu time      0.0090: real time      0.0091
    MIXING:  cpu time      0.0006: real time      0.0006
    --------------------------------------------
      LOOP:  cpu time      0.5382: real time      0.5409

 eigenvalue-minimisations  :  3312
 total energy-change (2. order) :-0.5668565E-03  (-0.5668503E-03)
 number of electron      40.0000000 magnetization 
 augmentation part       -7.4030502 magnetization 

 Broyden mixing:
  rms(total) = 0.64115E+00    rms(broyden)= 0.64114E+00
  rms(prec ) = 0.72298E+00
  weight for this iteration     100.00

 Free energy of the ion-electron system (eV)
  ---------------------------------------------------
  alpha Z        PSCENC =        87.52689448
  Ewald energy   TEWEN  =     -1416.38850822
  -Hartree energ DENC   =      -130.08584720
  -exchange      EXHF   =         0.00000000
  -V(xc)+E(xc)   XCENC  =       -33.32882896
  PAW double counting   =      1193.78262552    -1080.73714043
  entropy T*S    EENTRO =        -0.00022283
  eigenvalues    EBANDS =      -103.25535516
  atomic energy  EATOM  =      1448.49460871
  Solvation  Ediel_sol  =         0.00000000
  ---------------------------------------------------
  free energy    TOTEN  =       -33.99177410 eV

  energy without entropy =      -33.99155127  energy(sigma->0) =      -33.99166268


--------------------------------------------------------------------------------------------------------




--------------------------------------- Iteration      1(   6)  ---------------------------------------


    POTLOK:  cpu time      0.0101: real time      0.0103
    SETDIJ:  cpu time      0.2341: real time      0.2348
     EDDAV:  cpu time      0.5417: real time      0.5458
       DOS:  cpu time      0.0010: real time      0.0010
    CHARGE:  cpu time      0.0086: real time      0.0088
    MIXING:  cpu time      0.0006: real time      0.0006
    --------------------------------------------
      LOOP:  cpu time      0.7962: real time      0.8011

 eigenvalue-minimisations  :  3232
 total energy-change (2. order) : 0.3671593E+00  (-0.7693756E-01)
 number of electron      40.0000000 magnetization 
 augmentation part       -7.3477684 magnetization 

 Broyden mixing:
  rms(total) = 0.40267E+00    rms(broyden)= 0.40267E+00
  rms(prec ) = 0.42313E+00
  weight for this iteration     100.00

 eigenvalues of (default mixing * dielectric matrix)
  average eigenvalue GAMMA=   2.1735
  2.1735

 Free energy of the ion-electron system (eV)
  ---------------------------------------------------
  alpha Z        PSCENC =        87.52689448
  Ewald energy   TEWEN  =     -1416.38850822
  -Hartree energ DENC   =      -135.64510524
  -exchange      EXHF   =         0.00000000
  -V(xc)+E(xc)   XCENC  =       -32.73657530
  PAW double counting   =      1455.81015630    -1343.08575143
  entropy T*S    EENTRO =        -0.00104490
  eigenvalues    EBANDS =       -97.59928918
  atomic energy  EATOM  =      1448.49460871
  Solvation  Ediel_sol  =         0.00000000
  ---------------------------------------------------
  free energy    TOTEN  =       -33.62461478 eV

  energy without entropy =      -33.62356988  energy(sigma->0) =      -33.62409233


--------------------------------------------------------------------------------------------------------




--------------------------------------- Iteration      1(   7)  ---------------------------------------


    POTLOK:  cpu time      0.0100: real time      0.0101
    SETDIJ:  cpu time      0.2199: real time      0.2207
     EDDAV:  cpu time      0.3972: real time      0.3991
       DOS:  cpu time      0.0010: real time      0.0010
    CHARGE:  cpu time      0.0086: real time      0.0086
    MIXING:  cpu time      0.0007: real time      0.0007
    --------------------------------------------
      LOOP:  cpu time      0.6374: real time      0.6403

 eigenvalue-minimisations  :  2960
 total energy-change (2. order) : 0.1065082E-01  (-0.2046056E-01)
 number of electron      40.0000000 magnetization 
 augmentation part       -7.3357119 magnetization 

 Broyden mixing:
  rms(total) = 0.12932E+00    rms(broyden)= 0.12932E+00
  rms(prec ) = 0.13767E+00
  weight for this iteration     100.00

 eigenvalues of (default mixing * dielectric matrix)
  average eigenvalue GAMMA=   1.7866
  1.1820  2.3912

 Free energy of the ion-electron system (eV)
  ---------------------------------------------------
  alpha Z        PSCENC =        87.52689448
  Ewald energy   TEWEN  =     -1416.38850822
  -Hartree energ DENC   =      -138.01916343
  -exchange      EXHF   =         0.00000000
  -V(xc)+E(xc)   XCENC  =       -32.28656133
  PAW double counting   =      1776.23584988    -1663.75033104
  entropy T*S    EENTRO =        -0.00095716
  eigenvalues    EBANDS =       -95.42579585
  atomic energy  EATOM  =      1448.49460871
  Solvation  Ediel_sol  =         0.00000000
  ---------------------------------------------------
  free energy    TOTEN  =       -33.61396396 eV

  energy without entropy =      -33.61300680  energy(sigma->0) =      -33.61348538


--------------------------------------------------------------------------------------------------------




--------------------------------------- Iteration      1(   8)  ---------------------------------------


    POTLOK:  cpu time      0.0101: real time      0.0102
    SETDIJ:  cpu time      0.2196: real time      0.2201
     EDDAV:  cpu time      0.3924: real time      0.3943
       DOS:  cpu time      0.0011: real time      0.0011
    CHARGE:  cpu time      0.0169: real time      0.0170
    MIXING:  cpu time      0.0006: real time      0.0006
    --------------------------------------------
      LOOP:  cpu time      0.6406: real time      0.6432

 eigenvalue-minimisations  :  2912
 total energy-change (2. order) : 0.1729177E-02  (-0.2019726E-02)
 number of electron      40.0000000 magnetization 
 augmentation part       -7.3436498 magnetization 

 Broyden mixing:
  rms(total) = 0.16745E-01    rms(broyden)= 0.16745E-01
  rms(prec ) = 0.20108E-01
  weight for this iteration     100.00

 eigenvalues of (default mixing * dielectric matrix)
  average eigenvalue GAMMA=   1.6890
  2.4893  1.2889  1.2889

 Free energy of the ion-electron system (eV)
  ---------------------------------------------------
  alpha Z        PSCENC =        87.52689448
  Ewald energy   TEWEN  =     -1416.38850822
  -Hartree energ DENC   =      -138.10734958
  -exchange      EXHF   =         0.00000000
  -V(xc)+E(xc)   XCENC  =       -32.14756796
  PAW double counting   =      1916.22915306    -1803.80996807
  entropy T*S    EENTRO =        -0.00094023
  eigenvalues    EBANDS =       -95.40855696
  atomic energy  EATOM  =      1448.49460871
  Solvation  Ediel_sol  =         0.00000000
  ---------------------------------------------------
  free energy    TOTEN  =       -33.61223478 eV

  energy without entropy =      -33.61129455  energy(sigma->0) =      -33.61176467


--------------------------------------------------------------------------------------------------------




--------------------------------------- Iteration      1(   9)  ---------------------------------------


    POTLOK:  cpu time      0.0114: real time      0.0116
    SETDIJ:  cpu time      0.2200: real time      0.2208
     EDDAV:  cpu time      0.4632: real time      0.4655
       DOS:  cpu time      0.0150: real time      0.0151
    CHARGE:  cpu time      0.0087: real time      0.0087
    MIXING:  cpu time      0.0006: real time      0.0006
    --------------------------------------------
      LOOP:  cpu time      0.7188: real time      0.7223

 eigenvalue-minimisations  :  3392
 total energy-change (2. order) :-0.2713131E-03  (-0.2645042E-03)
 number of electron      40.0000000 magnetization 
 augmentation part       -7.3424100 magnetization 

 Broyden mixing:
  rms(total) = 0.62974E-02    rms(broyden)= 0.62974E-02
  rms(prec ) = 0.70295E-02
  weight for this iteration     100.00

 eigenvalues of (default mixing * dielectric matrix)
  average eigenvalue GAMMA=   1.7234
  2.2812  2.2812  1.1656  1.1656

 Free energy of the ion-electron system (eV)
  ---------------------------------------------------
  alpha Z        PSCENC =        87.52689448
  Ewald energy   TEWEN  =     -1416.38850822
  -Hartree energ DENC   =      -138.40898520
  -exchange      EXHF   =         0.00000000
  -V(xc)+E(xc)   XCENC  =       -32.11158141
  PAW double counting   =      1927.93917449    -1815.52882189
  entropy T*S    EENTRO =        -0.00094219
  eigenvalues    EBANDS =       -95.13434486
  atomic energy  EATOM  =      1448.49460871
  Solvation  Ediel_sol  =         0.00000000
  ---------------------------------------------------
  free energy    TOTEN  =       -33.61250609 eV

  energy without entropy =      -33.61156391  energy(sigma->0) =      -33.61203500


--------------------------------------------------------------------------------------------------------




--------------------------------------- Iteration      1(  10)  ---------------------------------------


    POTLOK:  cpu time      0.0100: real time      0.0102
    SETDIJ:  cpu time      0.2200: real time      0.2205
     EDDAV:  cpu time      0.4331: real time      0.4350
       DOS:  cpu time      0.0010: real time      0.0010
    CHARGE:  cpu time      0.0083: real time      0.0085
    MIXING:  cpu time      0.0006: real time      0.0006
    --------------------------------------------
      LOOP:  cpu time      0.6731: real time      0.6758

 eigenvalue-minimisations  :  3024
 total energy-change (2. order) :-0.8525456E-04  (-0.2090574E-04)
 number of electron      40.0000000 magnetization 
 augmentation part       -7.3422541 magnetization 

 Broyden mixing:
  rms(total) = 0.21691E-02    rms(broyden)= 0.21691E-02
  rms(prec ) = 0.26427E-02
  weight for this iteration     100.00

 eigenvalues of (default mixing * dielectric matrix)
  average eigenvalue GAMMA=   1.7392
  2.6720  2.3941  1.1645  1.2328  1.2328

 Free energy of the ion-electron system (eV)
  ---------------------------------------------------
  alpha Z        PSCENC =        87.52689448
  Ewald energy   TEWEN  =     -1416.38850822
  -Hartree energ DENC   =      -138.45694567
  -exchange      EXHF   =         0.00000000
  -V(xc)+E(xc)   XCENC  =       -32.10677283
  PAW double counting   =      1922.53860214    -1810.12425009
  entropy T*S    EENTRO =        -0.00094840
  eigenvalues    EBANDS =       -95.09527147
  atomic energy  EATOM  =      1448.49460871
  Solvation  Ediel_sol  =         0.00000000
  ---------------------------------------------------
  free energy    TOTEN  =       -33.61259135 eV

  energy without entropy =      -33.61164294  energy(sigma->0) =      -33.61211715


--------------------------------------------------------------------------------------------------------




--------------------------------------- Iteration      1(  11)  ---------------------------------------


    POTLOK:  cpu time      0.0100: real time      0.0102
    SETDIJ:  cpu time      0.2205: real time      0.2209
     EDDAV:  cpu time      0.4104: real time      0.4119
       DOS:  cpu time      0.0010: real time      0.0010
    CHARGE:  cpu time      0.0087: real time      0.0087
    MIXING:  cpu time      0.0006: real time      0.0006
    --------------------------------------------
      LOOP:  cpu time      0.6511: real time      0.6533

 eigenvalue-minimisations  :  3088
 total energy-change (2. order) :-0.2042099E-04  (-0.3192195E-05)
 number of electron      40.0000000 magnetization 
 augmentation part       -7.3424631 magnetization 

 Broyden mixing:
  rms(total) = 0.10458E-02    rms(broyden)= 0.10458E-02
  rms(prec ) = 0.11606E-02
  weight for this iteration     100.00

 eigenvalues of (default mixing * dielectric matrix)
  average eigenvalue GAMMA=   1.7281
  2.4830  2.4830  2.1127  1.1778  1.1778  0.9342

 Free energy of the ion-electron system (eV)
  ---------------------------------------------------
  alpha Z        PSCENC =        87.52689448
  Ewald energy   TEWEN  =     -1416.38850822
  -Hartree energ DENC   =      -138.47546610
  -exchange      EXHF   =         0.00000000
  -V(xc)+E(xc)   XCENC  =       -32.10160672
  PAW double counting   =      1923.80382785    -1811.38964959
  entropy T*S    EENTRO =        -0.00094925
  eigenvalues    EBANDS =       -95.08176292
  atomic energy  EATOM  =      1448.49460871
  Solvation  Ediel_sol  =         0.00000000
  ---------------------------------------------------
  free energy    TOTEN  =       -33.61261177 eV

  energy without entropy =      -33.61166252  energy(sigma->0) =      -33.61213714


--------------------------------------------------------------------------------------------------------




--------------------------------------- Iteration      1(  12)  ---------------------------------------


    POTLOK:  cpu time      0.0106: real time      0.0107
    SETDIJ:  cpu time      0.2199: real time      0.2205
     EDDAV:  cpu time      0.4407: real time      0.4428
       DOS:  cpu time      0.0010: real time      0.0010
    --------------------------------------------
      LOOP:  cpu time      0.6722: real time      0.6750

 eigenvalue-minimisations  :  3232
 total energy-change (2. order) :-0.5767679E-06  (-0.4202206E-06)
 number of electron      40.0000000 magnetization 
 augmentation part       -7.3424631 magnetization 

 Free energy of the ion-electron system (eV)
  ---------------------------------------------------
  alpha Z        PSCENC =        87.52689448
  Ewald energy   TEWEN  =     -1416.38850822
  -Hartree energ DENC   =      -138.48635881
  -exchange      EXHF   =         0.00000000
  -V(xc)+E(xc)   XCENC  =       -32.10078751
  PAW double counting   =      1923.23787782    -1810.82350030
  entropy T*S    EENTRO =        -0.00094852
  eigenvalues    EBANDS =       -95.07188999
  atomic energy  EATOM  =      1448.49460871
  Solvation  Ediel_sol  =         0.00000000
  ---------------------------------------------------
  free energy    TOTEN  =       -33.61261235 eV

  energy without entropy =      -33.61166383  energy(sigma->0) =      -33.61213809


--------------------------------------------------------------------------------------------------------




 average (electrostatic) potential at core
  the test charge radii are     1.1631  1.0808
  (the norm of the test charge is              1.0000)
       1 -33.4968       2 -33.4968       3 -33.4968       4 -33.4968       5 -54.9971
       6 -54.9971       7 -54.9971       8 -54.9971
 
 
 
 E-fermi :   3.2920     XC(G=0):  -9.2900     alpha+bet : -8.7197

 Fermi energy:         3.2920236981

 k-point     1 :       0.0000    0.0000    0.0000
  band No.  band energies     occupation 
      1     -11.0020      2.00000
      2     -10.6610      2.00000
      3      -9.7424      2.00000
      4      -9.2526      2.00000
      5      -4.8604      2.00000
      6      -4.0794      2.00000
      7      -2.8475      2.00000
      8      -2.4378      2.00000
      9      -1.7607      2.00000
     10      -0.4986      2.00000
     11       0.0921      2.00000
     12       0.1914      2.00000
     13       0.3305      2.00000
     14       0.5264      2.00000
     15       1.0848      2.00000
     16       1.2842      2.00000
     17       1.9091      2.00000
     18       2.3911      2.00000
     19       2.4304      2.00000
     20       3.0238      2.00000
     21       3.2465      1.80231
     22       5.7790      0.00000
     23       5.9267      0.00000
     24       5.9657      0.00000
     25       5.9872      0.00000
     26       7.0068      0.00000
     27       7.1492      0.00000
     28       8.0817      0.00000
     29       8.1967      0.00000
     30       8.4791      0.00000
     31       8.5252      0.00000
     32       8.9727      0.00000

 k-point     2 :       0.1667    0.0000    0.0000
  band No.  band energies     occupation 
      1     -10.8108      2.00000
      2     -10.4838      2.00000
      3      -9.6253      2.00000
      4      -9.1879      2.00000
      5      -5.1471      2.00000
      6      -4.2493      2.00000
      7      -3.2841      2.00000
      8      -2.7331      2.00000
      9      -1.8156      2.00000
     10      -0.4038      2.00000
     11      -0.0715      2.00000
     12       0.0464      2.00000
     13       0.4730      2.00000
     14       0.5120      2.00000
     15       0.9912      2.00000
     16       1.3982      2.00000
     17       1.7125      2.00000
     18       2.4607      2.00000
     19       2.4751      2.00000
     20       2.7924      2.00000
     21       3.4491      0.00001
     22       5.3297      0.00000
     23       5.9194      0.00000
     24       6.3491      0.00000
     25       6.5651      0.00000
     26       6.7448      0.00000
     27       6.8909      0.00000
     28       7.3434      0.00000
     29       7.7097      0.00000
     30       7.8950      0.00000
     31       8.3090      0.00000
     32       8.7249      0.00000

 k-point     3 :       0.3333    0.0000    0.0000
  band No.  band energies     occupation 
      1     -10.2917      2.00000
      2     -10.0077      2.00000
      3      -9.4468      2.00000
      4      -9.1460      2.00000
      5      -5.6854      2.00000
      6      -4.5757      2.00000
      7      -4.5266      2.00000
      8      -3.5857      2.00000
      9      -1.3328      2.00000
     10      -0.3966      2.00000
     11       0.0342      2.00000
     12       0.4127      2.00000
     13       0.7729      2.00000
     14       0.9331      2.00000
     15       1.1043      2.00000
     16       1.1525      2.00000
     17       1.9172      2.00000
     18       2.2027      2.00000
     19       2.3332      2.00000
     20       2.4049      2.00000
     21       4.0139      0.00000
     22       4.0961      0.00000
     23       4.8899      0.00000
     24       5.1137      0.00000
     25       5.5828      0.00000
     26       5.8429      0.00000
     27       6.1451      0.00000
     28       6.5941      0.00000
     29       6.9919      0.00000
     30       7.0177      0.00000
     31       8.6299      0.00000
     32       8.9528      0.00000

 k-point     4 :       0.5000    0.0000    0.0000
  band No.  band energies     occupation 
      1      -9.6778      2.00000
      2      -9.6778      2.00000
      3      -9.4418      2.00000
      4      -9.4418      2.00000
      5      -5.5605      2.00000
      6      -5.5605      2.00000
      7      -4.4096      2.00000
      8      -4.4096      2.00000
      9      -0.5852      2.00000
     10      -0.5852      2.00000
     11       0.6090      2.00000
     12       0.6090      2.00000
     13       0.9062      2.00000
     14       0.9062      2.00000
     15       1.1937      2.00000
     16       1.1937      2.00000
     17       1.8474      2.00000
     18       1.8474      2.00000
     19       2.1917      2.00000
     20       2.1917      2.00000
     21       4.1883      0.00000
     22       4.1883      0.00000
     23       4.7637      0.00000
     24       4.7637      0.00000
     25       4.8692      0.00000
     26       4.8692      0.00000
     27       5.9736      0.00000
     28       5.9736      0.00000
     29       6.0156      0.00000
     30       6.0156      0.00000
     31       8.9612      0.00000
     32       8.9612      0.00000

 k-point     5 :       0.0000    0.1667    0.0000
  band No.  band energies     occupation 
      1     -10.8865      2.00000
      2     -10.5559      2.00000
      3      -9.7497      2.00000
      4      -9.3203      2.00000
      5      -5.0397      2.00000
      6      -4.3287      2.00000
      7      -3.4407      2.00000
      8      -2.7803      2.00000
      9      -1.7053      2.00000
     10      -0.0064      2.00000
     11       0.2273      2.00000
     12       0.5140      2.00000
     13       0.6462      2.00000
     14       0.6568      2.00000
     15       1.3170      2.00000
     16       1.7995      2.00000
     17       1.8023      2.00000
     18       1.8996      2.00000
     19       2.6438      2.00000
     20       2.9862      2.00000
     21       3.7710      0.00000
     22       5.0798      0.00000
     23       5.8073      0.00000
     24       5.8482      0.00000
     25       6.1417      0.00000
     26       6.5799      0.00000
     27       6.7482      0.00000
     28       7.7224      0.00000
     29       7.9633      0.00000
     30       8.0118      0.00000
     31       8.1853      0.00000
     32       8.5179      0.00000

 k-point     6 :       0.1667    0.1667    0.0000
  band No.  band energies     occupation 
      1     -10.7003      2.00000
      2     -10.3847      2.00000
      3      -9.6332      2.00000
      4      -9.2495      2.00000
      5      -5.2116      2.00000
      6      -4.3683      2.00000
      7      -3.5877      2.00000
      8      -3.1201      2.00000
      9      -1.5831      2.00000
     10      -0.7041      2.00000
     11      -0.5871      2.00000
     12       0.3255      2.00000
     13       0.8257      2.00000
     14       0.9896      2.00000
     15       1.1823      2.00000
     16       1.2643      2.00000
     17       1.8984      2.00000
     18       2.2296      2.00000
     19       2.6038      2.00000
     20       2.8228      2.00000
     21       3.9052      0.00000
     22       5.1700      0.00000
     23       5.4645      0.00000
     24       5.7959      0.00000
     25       6.4249      0.00000
     26       6.6833      0.00000
     27       6.8411      0.00000
     28       7.4797      0.00000
     29       7.7251      0.00000
     30       7.8547      0.00000
     31       8.1708      0.00000
     32       8.7369      0.00000

 k-point     7 :       0.1667   -0.1667    0.0000
  band No.  band energies     occupation 
      1     -10.7002      2.00000
      2     -10.3848      2.00000
      3      -9.6326      2.00000
      4      -9.2506      2.00000
      5      -5.2030      2.00000
      6      -4.3779      2.00000
      7      -3.6302      2.00000
      8      -3.0653      2.00000
      9      -1.5867      2.00000
     10      -0.7302      2.00000
     11      -0.5562      2.00000
     12       0.3148      2.00000
     13       0.8237      2.00000
     14       0.9818      2.00000
     15       1.1946      2.00000
     16       1.2577      2.00000
     17       1.8509      2.00000
     18       2.2639      2.00000
     19       2.5844      2.00000
     20       2.8667      2.00000
     21       3.9135      0.00000
     22       5.1269      0.00000
     23       5.4655      0.00000
     24       5.8061      0.00000
     25       6.4553      0.00000
     26       6.6773      0.00000
     27       6.9592      0.00000
     28       7.5405      0.00000
     29       7.6124      0.00000
     30       7.7488      0.00000
     31       8.1233      0.00000
     32       8.7767      0.00000

 k-point     8 :       0.3333    0.1667    0.0000
  band No.  band energies     occupation 
      1     -10.2003      2.00000
      2      -9.9315      2.00000
      3      -9.4453      2.00000
      4      -9.1785      2.00000
      5      -5.5996      2.00000
      6      -4.5231      2.00000
      7      -4.5131      2.00000
      8      -3.7175      2.00000
      9      -1.1853      2.00000
     10      -0.9309      2.00000
     11      -0.9150      2.00000
     12       0.3037      2.00000
     13       0.4335      2.00000
     14       0.8852      2.00000
     15       1.0193      2.00000
     16       1.3443      2.00000
     17       1.7065      2.00000
     18       2.0596      2.00000
     19       2.1925      2.00000
     20       2.3351      2.00000
     21       4.1284      0.00000
     22       4.8313      0.00000
     23       4.9453      0.00000
     24       5.5151      0.00000
     25       5.6610      0.00000
     26       6.1988      0.00000
     27       6.6227      0.00000
     28       7.3056      0.00000
     29       7.6699      0.00000
     30       8.1915      0.00000
     31       8.4137      0.00000
     32       8.4920      0.00000

 k-point     9 :       0.3333   -0.1667    0.0000
  band No.  band energies     occupation 
      1     -10.2002      2.00000
      2      -9.9312      2.00000
      3      -9.4434      2.00000
      4      -9.1813      2.00000
      5      -5.5871      2.00000
      6      -4.5470      2.00000
      7      -4.5275      2.00000
      8      -3.6873      2.00000
      9      -1.1855      2.00000
     10      -0.9555      2.00000
     11      -0.8826      2.00000
     12       0.2945      2.00000
     13       0.4526      2.00000
     14       0.8964      2.00000
     15       0.9823      2.00000
     16       1.3458      2.00000
     17       1.6466      2.00000
     18       1.9961      2.00000
     19       2.2240      2.00000
     20       2.4442      2.00000
     21       4.1121      0.00000
     22       4.8705      0.00000
     23       4.9158      0.00000
     24       5.5485      0.00000
     25       5.6812      0.00000
     26       6.1743      0.00000
     27       6.6514      0.00000
     28       7.2013      0.00000
     29       7.6823      0.00000
     30       8.1132      0.00000
     31       8.3201      0.00000
     32       8.6394      0.00000

 k-point    10 :       0.5000    0.1667    0.0000
  band No.  band energies     occupation 
      1      -9.6301      2.00000
      2      -9.6289      2.00000
      3      -9.4162      2.00000
      4      -9.4142      2.00000
      5      -5.4752      2.00000
      6      -5.4611      2.00000
      7      -4.3691      2.00000
      8      -4.3528      2.00000
      9      -0.6948      2.00000
     10      -0.6808      2.00000
     11      -0.2413      2.00000
     12      -0.2317      2.00000
     13       0.3431      2.00000
     14       0.3757      2.00000
     15       0.8865      2.00000
     16       0.9002      2.00000
     17       1.6635      2.00000
     18       1.7241      2.00000
     19       2.3061      2.00000
     20       2.3170      2.00000
     21       4.3567      0.00000
     22       4.3613      0.00000
     23       5.0905      0.00000
     24       5.1033      0.00000
     25       6.1677      0.00000
     26       6.2132      0.00000
     27       6.3454      0.00000
     28       6.3493      0.00000
     29       7.1376      0.00000
     30       7.1587      0.00000
     31       8.5417      0.00000
     32       8.6704      0.00000

 k-point    11 :       0.0000    0.3333    0.0000
  band No.  band energies     occupation 
      1     -10.5690      2.00000
      2     -10.2709      2.00000
      3      -9.8474      2.00000
      4      -9.5466      2.00000
      5      -5.2668      2.00000
      6      -4.5601      2.00000
      7      -4.3989      2.00000
      8      -3.6248      2.00000
      9      -1.2503      2.00000
     10       0.3921      2.00000
     11       0.5952      2.00000
     12       0.9811      2.00000
     13       1.0159      2.00000
     14       1.2502      2.00000
     15       1.3090      2.00000
     16       1.7715      2.00000
     17       1.8528      2.00000
     18       2.5863      2.00000
     19       2.7666      2.00000
     20       3.2876      1.09884
     21       4.1393      0.00000
     22       4.6469      0.00000
     23       4.9764      0.00000
     24       5.4206      0.00000
     25       5.9450      0.00000
     26       6.1154      0.00000
     27       6.3078      0.00000
     28       6.6353      0.00000
     29       6.9662      0.00000
     30       7.2442      0.00000
     31       8.2838      0.00000
     32       8.5591      0.00000

 k-point    12 :       0.1667    0.3333    0.0000
  band No.  band energies     occupation 
      1     -10.3983      2.00000
      2     -10.1186      2.00000
      3      -9.7244      2.00000
      4      -9.4555      2.00000
      5      -5.2578      2.00000
      6      -4.4853      2.00000
      7      -4.3470      2.00000
      8      -3.7339      2.00000
      9      -1.0846      2.00000
     10      -0.7150      2.00000
     11      -0.5508      2.00000
     12       0.1515      2.00000
     13       0.4641      2.00000
     14       0.7642      2.00000
     15       1.3637      2.00000
     16       1.7706      2.00000
     17       2.1084      2.00000
     18       2.3554      2.00000
     19       2.6054      2.00000
     20       2.8981      2.00000
     21       4.5214      0.00000
     22       5.1504      0.00000
     23       5.4519      0.00000
     24       5.8528      0.00000
     25       5.8987      0.00000
     26       6.3022      0.00000
     27       6.7333      0.00000
     28       7.3846      0.00000
     29       7.4699      0.00000
     30       7.8403      0.00000
     31       8.3097      0.00000
     32       8.4273      0.00000

 k-point    13 :       0.1667   -0.3333    0.0000
  band No.  band energies     occupation 
      1     -10.3982      2.00000
      2     -10.1185      2.00000
      3      -9.7235      2.00000
      4      -9.4570      2.00000
      5      -5.2442      2.00000
      6      -4.4993      2.00000
      7      -4.3744      2.00000
      8      -3.7027      2.00000
      9      -1.0717      2.00000
     10      -0.7394      2.00000
     11      -0.5302      2.00000
     12       0.1346      2.00000
     13       0.4683      2.00000
     14       0.7661      2.00000
     15       1.3745      2.00000
     16       1.7133      2.00000
     17       2.1659      2.00000
     18       2.2908      2.00000
     19       2.6532      2.00000
     20       2.9130      2.00000
     21       4.5044      0.00000
     22       5.1617      0.00000
     23       5.4048      0.00000
     24       5.9030      0.00000
     25       5.9207      0.00000
     26       6.3219      0.00000
     27       6.7661      0.00000
     28       7.2933      0.00000
     29       7.5256      0.00000
     30       7.7656      0.00000
     31       8.2410      0.00000
     32       8.5128      0.00000

 k-point    14 :       0.3333    0.3333    0.0000
  band No.  band energies     occupation 
      1      -9.9578      2.00000
      2      -9.7355      2.00000
      3      -9.4866      2.00000
      4      -9.2991      2.00000
      5      -5.3514      2.00000
      6      -4.6282      2.00000
      7      -4.3815      2.00000
      8      -4.0134      2.00000
      9      -1.4797      2.00000
     10      -1.3574      2.00000
     11      -0.8421      2.00000
     12      -0.5187      2.00000
     13      -0.3850      2.00000
     14       0.2691      2.00000
     15       0.6769      2.00000
     16       0.9736      2.00000
     17       1.2919      2.00000
     18       1.9149      2.00000
     19       2.1525      2.00000
     20       2.3492      2.00000
     21       4.4710      0.00000
     22       5.7135      0.00000
     23       6.0264      0.00000
     24       6.2880      0.00000
     25       6.6824      0.00000
     26       7.2297      0.00000
     27       7.5043      0.00000
     28       7.9135      0.00000
     29       7.9639      0.00000
     30       8.4776      0.00000
     31       8.8614      0.00000
     32       9.0799      0.00000

 k-point    15 :       0.3333   -0.3333    0.0000
  band No.  band energies     occupation 
      1      -9.9581      2.00000
      2      -9.7346      2.00000
      3      -9.4832      2.00000
      4      -9.3038      2.00000
      5      -5.3254      2.00000
      6      -4.6747      2.00000
      7      -4.4111      2.00000
      8      -3.9600      2.00000
      9      -1.5031      2.00000
     10      -1.3276      2.00000
     11      -0.8121      2.00000
     12      -0.5261      2.00000
     13      -0.4167      2.00000
     14       0.3051      2.00000
     15       0.6903      2.00000
     16       0.8828      2.00000
     17       1.2506      2.00000
     18       2.0022      2.00000
     19       2.1550      2.00000
     20       2.3481      2.00000
     21       4.5035      0.00000
     22       5.7150      0.00000
     23       5.9114      0.00000
     24       6.3619      0.00000
     25       6.7333      0.00000
     26       7.2233      0.00000
     27       7.5199      0.00000
     28       7.8061      0.00000
     29       7.9429      0.00000
     30       8.5599      0.00000
     31       8.7418      0.00000
     32       9.0742      0.00000

 k-point    16 :       0.5000    0.3333    0.0000
  band No.  band energies     occupation 
      1      -9.5235      2.00000
      2      -9.5202      2.00000
      3      -9.3698      2.00000
      4      -9.3651      2.00000
      5      -5.2716      2.00000
      6      -5.2396      2.00000
      7      -4.2953      2.00000
      8      -4.2581      2.00000
      9      -1.0872      2.00000
     10      -1.0870      2.00000
     11      -0.9700      2.00000
     12      -0.9617      2.00000
     13      -0.4541      2.00000
     14      -0.4429      2.00000
     15       0.2497      2.00000
     16       0.2779      2.00000
     17       1.3288      2.00000
     18       1.3364      2.00000
     19       2.0329      2.00000
     20       2.0706      2.00000
     21       5.0637      0.00000
     22       5.1363      0.00000
     23       6.6690      0.00000
     24       6.6703      0.00000
     25       7.0671      0.00000
     26       7.1219      0.00000
     27       7.9203      0.00000
     28       8.1118      0.00000
     29       8.3450      0.00000
     30       8.3632      0.00000
     31       8.5695      0.00000
     32       8.6842      0.00000

 k-point    17 :       0.0000    0.5000    0.0000
  band No.  band energies     occupation 
      1     -10.1549      2.00000
      2     -10.1549      2.00000
      3      -9.8972      2.00000
      4      -9.8972      2.00000
      5      -5.0868      2.00000
      6      -5.0868      2.00000
      7      -4.3141      2.00000
      8      -4.3141      2.00000
      9      -0.4959      2.00000
     10      -0.4959      2.00000
     11       1.0434      2.00000
     12       1.0434      2.00000
     13       1.4391      2.00000
     14       1.4391      2.00000
     15       1.7762      2.00000
     16       1.7762      2.00000
     17       2.2905      2.00000
     18       2.2905      2.00000
     19       2.9059      2.00000
     20       2.9059      2.00000
     21       4.6366      0.00000
     22       4.6366      0.00000
     23       5.0980      0.00000
     24       5.0980      0.00000
     25       5.8566      0.00000
     26       5.8566      0.00000
     27       5.9518      0.00000
     28       5.9518      0.00000
     29       6.4842      0.00000
     30       6.4842      0.00000
     31       8.5401      0.00000
     32       8.5401      0.00000

 k-point    18 :       0.1667    0.5000    0.0000
  band No.  band energies     occupation 
      1     -10.0091      2.00000
      2     -10.0088      2.00000
      3      -9.7755      2.00000
      4      -9.7748      2.00000
      5      -5.0061      2.00000
      6      -4.9888      2.00000
      7      -4.2774      2.00000
      8      -4.2595      2.00000
      9      -0.5177      2.00000
     10      -0.4841      2.00000
     11      -0.2226      2.00000
     12      -0.2187      2.00000
     13       0.1029      2.00000
     14       0.1421      2.00000
     15       1.5607      2.00000
     16       1.6088      2.00000
     17       2.2879      2.00000
     18       2.3714      2.00000
     19       2.8650      2.00000
     20       2.8885      2.00000
     21       4.8053      0.00000
     22       4.8091      0.00000
     23       5.6891      0.00000
     24       5.7378      0.00000
     25       6.4065      0.00000
     26       6.4994      0.00000
     27       6.9889      0.00000
     28       7.0007      0.00000
     29       7.2847      0.00000
     30       7.2890      0.00000
     31       8.2400      0.00000
     32       8.3380      0.00000

 k-point    19 :       0.3333    0.5000    0.0000
  band No.  band energies     occupation 
      1      -9.6682      2.00000
      2      -9.6662      2.00000
      3      -9.5042      2.00000
      4      -9.5011      2.00000
      5      -4.9969      2.00000
      6      -4.9559      2.00000
      7      -4.2572      2.00000
      8      -4.2115      2.00000
      9      -1.3698      2.00000
     10      -1.3345      2.00000
     11      -1.1350      2.00000
     12      -1.1006      2.00000
     13      -0.0281      2.00000
     14       0.0123      2.00000
     15       0.2570      2.00000
     16       0.3379      2.00000
     17       1.4762      2.00000
     18       1.5183      2.00000
     19       2.2028      2.00000
     20       2.2147      2.00000
     21       5.3139      0.00000
     22       5.3996      0.00000
     23       6.7305      0.00000
     24       6.7358      0.00000
     25       7.3469      0.00000
     26       7.3567      0.00000
     27       8.1339      0.00000
     28       8.2578      0.00000
     29       8.6441      0.00000
     30       8.6810      0.00000
     31       8.8880      0.00000
     32       8.9075      0.00000

 k-point    20 :       0.5000    0.5000    0.0000
  band No.  band energies     occupation 
      1      -9.4603      2.00000
      2      -9.4542      2.00000
      3      -9.3550      2.00000
      4      -9.3473      2.00000
      5      -5.1512      2.00000
      6      -5.1069      2.00000
      7      -4.2740      2.00000
      8      -4.2230      2.00000
      9      -1.3399      2.00000
     10      -1.2919      2.00000
     11      -1.2707      2.00000
     12      -1.2367      2.00000
     13      -0.6256      2.00000
     14      -0.5541      2.00000
     15      -0.2807      2.00000
     16      -0.2046      2.00000
     17       1.4207      2.00000
     18       1.5572      2.00000
[...]
     32       8.1679      0.00000

 k-point    32 :       0.1667    0.3333    0.5000
  band No.  band energies     occupation 
      1     -10.2871      2.00000
      2     -10.2871      2.00000
      3      -9.5609      2.00000
      4      -9.5609      2.00000
      5      -4.9828      2.00000
      6      -4.9828      2.00000
      7      -3.9637      2.00000
      8      -3.9637      2.00000
      9      -0.8164      2.00000
     10      -0.8164      2.00000
     11      -0.0899      2.00000
     12      -0.0899      2.00000
     13       0.4253      2.00000
     14       0.4253      2.00000
     15       1.5788      2.00000
     16       1.5788      2.00000
     17       2.2602      2.00000
     18       2.2602      2.00000
     19       2.5242      2.00000
     20       2.5242      2.00000
     21       5.2293      0.00000
     22       5.2293      0.00000
     23       5.6226      0.00000
     24       5.6226      0.00000
     25       6.2277      0.00000
     26       6.2277      0.00000
     27       6.8082      0.00000
     28       6.8082      0.00000
     29       7.5263      0.00000
     30       7.5263      0.00000
     31       8.3924      0.00000
     32       8.3924      0.00000

 k-point    33 :       0.1667   -0.3333    0.5000
  band No.  band energies     occupation 
      1     -10.2869      2.00000
      2     -10.2869      2.00000
      3      -9.5612      2.00000
      4      -9.5612      2.00000
      5      -4.9824      2.00000
      6      -4.9824      2.00000
      7      -3.9646      2.00000
      8      -3.9646      2.00000
      9      -0.8141      2.00000
     10      -0.8141      2.00000
     11      -0.0857      2.00000
     12      -0.0857      2.00000
     13       0.4155      2.00000
     14       0.4155      2.00000
     15       1.5827      2.00000
     16       1.5827      2.00000
     17       2.2773      2.00000
     18       2.2773      2.00000
     19       2.5113      2.00000
     20       2.5113      2.00000
     21       5.1750      0.00000
     22       5.1750      0.00000
     23       5.6474      0.00000
     24       5.6474      0.00000
     25       6.2563      0.00000
     26       6.2563      0.00000
     27       6.8073      0.00000
     28       6.8073      0.00000
     29       7.5692      0.00000
     30       7.5692      0.00000
     31       8.3487      0.00000
     32       8.3487      0.00000

 k-point    34 :       0.3333    0.3333    0.5000
  band No.  band energies     occupation 
      1      -9.8699      2.00000
      2      -9.8699      2.00000
      3      -9.3696      2.00000
      4      -9.3696      2.00000
      5      -5.0997      2.00000
      6      -5.0997      2.00000
      7      -4.0726      2.00000
      8      -4.0726      2.00000
      9      -1.4705      2.00000
     10      -1.4705      2.00000
     11      -0.8108      2.00000
     12      -0.8108      2.00000
     13       0.1219      2.00000
     14       0.1219      2.00000
     15       1.0116      2.00000
     16       1.0116      2.00000
     17       1.3410      2.00000
     18       1.3410      2.00000
     19       2.2626      2.00000
     20       2.2626      2.00000
     21       5.1998      0.00000
     22       5.1998      0.00000
     23       5.8612      0.00000
     24       5.8612      0.00000
     25       7.1475      0.00000
     26       7.1475      0.00000
     27       7.5903      0.00000
     28       7.5903      0.00000
     29       8.1646      0.00000
     30       8.1646      0.00000
     31       9.3708      0.00000
     32       9.3708      0.00000

 k-point    35 :       0.3333   -0.3333    0.5000
  band No.  band energies     occupation 
      1      -9.8695      2.00000
      2      -9.8695      2.00000
      3      -9.3702      2.00000
      4      -9.3702      2.00000
      5      -5.0991      2.00000
      6      -5.0991      2.00000
      7      -4.0735      2.00000
      8      -4.0735      2.00000
      9      -1.4753      2.00000
     10      -1.4753      2.00000
     11      -0.8024      2.00000
     12      -0.8024      2.00000
     13       0.1214      2.00000
     14       0.1215      2.00000
     15       0.9926      2.00000
     16       0.9926      2.00000
     17       1.3770      2.00000
     18       1.3770      2.00000
     19       2.2355      2.00000
     20       2.2355      2.00000
     21       5.2111      0.00000
     22       5.2111      0.00000
     23       5.8564      0.00000
     24       5.8564      0.00000
     25       7.1754      0.00000
     26       7.1754      0.00000
     27       7.5482      0.00000
     28       7.5482      0.00000
     29       8.2151      0.00000
     30       8.2151      0.00000
     31       9.3139      0.00000
     32       9.3139      0.00000

 k-point    36 :       0.5000    0.3333    0.5000
  band No.  band energies     occupation 
      1      -9.5203      2.00000
      2      -9.5203      2.00000
      3      -9.3692      2.00000
      4      -9.3692      2.00000
      5      -5.2666      2.00000
      6      -5.2666      2.00000
      7      -4.2462      2.00000
      8      -4.2462      2.00000
      9      -1.2800      2.00000
     10      -1.2800      2.00000
     11      -0.8465      2.00000
     12      -0.8465      2.00000
     13      -0.4484      2.00000
     14      -0.4484      2.00000
     15       0.2607      2.00000
     16       0.2607      2.00000
     17       1.5307      2.00000
     18       1.5307      2.00000
     19       2.0111      2.00000
     20       2.0111      2.00000
     21       4.8532      0.00000
     22       4.8532      0.00000
     23       6.8724      0.00000
     24       6.8724      0.00000
     25       6.9050      0.00000
     26       6.9050      0.00000
     27       7.6809      0.00000
     28       7.6809      0.00000
     29       8.5217      0.00000
     30       8.5217      0.00000
     31       9.1312      0.00000
     32       9.1312      0.00000

 k-point    37 :       0.0000    0.5000    0.5000
  band No.  band energies     occupation 
      1     -10.1492      2.00000
      2     -10.1492      2.00000
      3      -9.9047      2.00000
      4      -9.9047      2.00000
      5      -4.9080      2.00000
      6      -4.9080      2.00000
      7      -4.5630      2.00000
      8      -4.5630      2.00000
      9       0.0970      2.00000
     10       0.0970      2.00000
     11       0.8226      2.00000
     12       0.8226      2.00000
     13       1.0495      2.00000
     14       1.0495      2.00000
     15       1.4331      2.00000
     16       1.4331      2.00000
     17       2.5672      2.00000
     18       2.5672      2.00000
     19       2.9375      2.00000
     20       2.9375      2.00000
     21       4.7430      0.00000
     22       4.7430      0.00000
     23       4.7939      0.00000
     24       4.7939      0.00000
     25       6.1321      0.00000
     26       6.1321      0.00000
     27       6.2407      0.00000
     28       6.2407      0.00000
     29       6.8181      0.00000
     30       6.8181      0.00000
     31       7.8824      0.00000
     32       7.8824      0.00000

 k-point    38 :       0.1667    0.5000    0.5000
  band No.  band energies     occupation 
      1     -10.0037      2.00000
      2     -10.0037      2.00000
      3      -9.7818      2.00000
      4      -9.7818      2.00000
      5      -4.8829      2.00000
      6      -4.8829      2.00000
      7      -4.4262      2.00000
      8      -4.4262      2.00000
      9      -0.5514      2.00000
     10      -0.5514      2.00000
     11      -0.1367      2.00000
     12      -0.1367      2.00000
     13       0.5745      2.00000
     14       0.5745      2.00000
     15       1.1491      2.00000
     16       1.1491      2.00000
     17       2.4074      2.00000
     18       2.4074      2.00000
     19       2.4526      2.00000
     20       2.4526      2.00000
     21       5.5836      0.00000
     22       5.5836      0.00000
     23       5.6314      0.00000
     24       5.6314      0.00000
     25       6.0851      0.00000
     26       6.0851      0.00000
     27       7.1193      0.00000
     28       7.1193      0.00000
     29       7.3561      0.00000
     30       7.3561      0.00000
     31       8.1889      0.00000
     32       8.1889      0.00000

 k-point    39 :       0.3333    0.5000    0.5000
  band No.  band energies     occupation 
      1      -9.6649      2.00000
      2      -9.6649      2.00000
      3      -9.5053      2.00000
      4      -9.5053      2.00000
      5      -4.9957      2.00000
      6      -4.9957      2.00000
      7      -4.1836      2.00000
      8      -4.1836      2.00000
      9      -1.3707      2.00000
     10      -1.3707      2.00000
     11      -1.3487      2.00000
     12      -1.3487      2.00000
     13       0.1201      2.00000
     14       0.1201      2.00000
     15       0.6226      2.00000
     16       0.6226      2.00000
     17       1.5911      2.00000
     18       1.5911      2.00000
     19       1.8633      2.00000
     20       1.8633      2.00000
     21       5.1357      0.00000
     22       5.1357      0.00000
     23       7.0887      0.00000
     24       7.0887      0.00000
     25       7.3343      0.00000
     26       7.3343      0.00000
     27       7.8806      0.00000
     28       7.8806      0.00000
     29       8.8069      0.00000
     30       8.8069      0.00000
     31       9.1539      0.00000
     32       9.1539      0.00000

 k-point    40 :       0.5000    0.5000    0.5000
  band No.  band energies     occupation 
      1      -9.4608      2.00000
      2      -9.4608      2.00000
      3      -9.3470      2.00000
      4      -9.3470      2.00000
      5      -5.1810      2.00000
      6      -5.1810      2.00000
      7      -4.1384      2.00000
      8      -4.1384      2.00000
      9      -1.5405      2.00000
     10      -1.5405      2.00000
     11      -1.1560      2.00000
     12      -1.1560      2.00000
     13      -0.7170      2.00000
     14      -0.7170      2.00000
     15      -0.2008      2.00000
     16      -0.2008      2.00000
     17       1.6856      2.00000
     18       1.6856      2.00000
     19       1.9994      2.00000
     20       1.9994      2.00000
     21       4.5773      0.00000
     22       4.5773      0.00000
     23       7.5725      0.00000
     24       7.5725      0.00000
     25       7.9459      0.00000
     26       7.9459      0.00000
     27       8.0152      0.00000
     28       8.0152      0.00000
     29       9.0686      0.00000
     30       9.0686      0.00000
     31       9.5999      0.00000
     32       9.5999      0.00000


--------------------------------------------------------------------------------------------------------


 soft charge-density along one line, spin component            1
         0         1         2         3         4         5         6         7         8         9
 total charge-density along one line
 
 pseudopotential strength for first ion, spin component:            1
 14.525  18.122   0.040   0.044   0.000   0.072   0.080   0.001
 18.122  22.624   0.051   0.056   0.000   0.091   0.100   0.001
  0.040   0.051   3.226  -0.002  -0.000   5.492  -0.004  -0.000
  0.044   0.056  -0.002   3.223  -0.000  -0.004   5.487  -0.000
  0.000   0.000  -0.000  -0.000   3.228  -0.000  -0.000   5.494
  0.072   0.091   5.492  -0.004  -0.000   9.407  -0.006  -0.000
  0.080   0.100  -0.004   5.487  -0.000  -0.006   9.399  -0.000
  0.001   0.001  -0.000  -0.000   5.494  -0.000  -0.000   9.411
 -0.000  -0.000   0.000  -0.000   0.007   0.000  -0.000   0.013
 -0.005  -0.006   0.011   0.013  -0.000   0.020   0.023  -0.000
 -0.004  -0.005  -0.003   0.011  -0.000  -0.007   0.021  -0.000
 -0.000  -0.000  -0.000   0.000   0.011  -0.000   0.000   0.020
  0.002   0.002  -0.012   0.000   0.000  -0.022   0.000   0.000
 total augmentation occupancy for first ion, spin component:            1
  2.751  -0.714   0.373   0.326  -0.000  -0.075  -0.055   0.000  -0.001  -0.016  -0.000  -0.000   0.008
 -0.714   0.667  -0.449  -0.452  -0.002   0.074   0.067   0.000   0.001   0.006   0.005   0.001  -0.005
  0.373  -0.449   1.232   0.027   0.000  -0.202   0.009   0.000  -0.000   0.044  -0.096   0.000  -0.001
  0.326  -0.452   0.027   1.360   0.002   0.009  -0.222  -0.000   0.000  -0.001   0.085  -0.001   0.001
 -0.000  -0.002   0.000   0.002   1.245   0.000  -0.000  -0.214   0.147   0.000  -0.000   0.039   0.000
 -0.075   0.074  -0.202   0.009   0.000   0.037  -0.004  -0.000   0.000  -0.007   0.016  -0.000   0.001
 -0.055   0.067   0.009  -0.222  -0.000  -0.004   0.041   0.000  -0.000  -0.000  -0.015   0.000  -0.000
  0.000   0.000   0.000  -0.000  -0.214  -0.000   0.000   0.041  -0.026  -0.000  -0.000  -0.006  -0.000
 -0.001   0.001  -0.000   0.000   0.147   0.000  -0.000  -0.026   0.031   0.000  -0.000   0.003  -0.000
 -0.016   0.006   0.044  -0.001   0.000  -0.007  -0.000  -0.000   0.000   0.013  -0.009  -0.000   0.002
 -0.000   0.005  -0.096   0.085  -0.000   0.016  -0.015  -0.000  -0.000  -0.009   0.031  -0.000  -0.003
 -0.000   0.001   0.000  -0.001   0.039  -0.000   0.000  -0.006   0.003  -0.000  -0.000   0.010  -0.000
  0.008  -0.005  -0.001   0.001   0.000   0.001  -0.000  -0.000  -0.000   0.002  -0.003  -0.000   0.009


------------------------ aborting loop because EDIFF is reached ----------------------------------------


    CHARGE:  cpu time      0.0088: real time      0.0088
    FORLOC:  cpu time      0.0004: real time      0.0004
    FORNL :  cpu time      0.0559: real time      0.0562
    STRESS:  cpu time      0.4714: real time      0.4736
    FORCOR:  cpu time      0.0131: real time      0.0132
    FORHAR:  cpu time      0.0037: real time      0.0037
    MIXING:  cpu time      0.0007: real time      0.0007
    OFIELD:  cpu time      0.0000: real time      0.0000

  FORCE on cell =-STRESS in cart. coord.  units (eV):
  Direction    XX          YY          ZZ          XY          YZ          ZX
  --------------------------------------------------------------------------------------
  Alpha Z    87.52689    87.52689    87.52689
  Ewald    -428.80645  -499.79478  -487.78884    -0.63107    -0.00000     0.00000
  Hartree    67.28356    37.41338    33.79651    -0.18755    -0.00000    -0.00000
  E(xc)    -141.19529  -141.30014  -141.46903    -0.00410    -0.00000     0.00000
  Local    -203.55676  -109.11600  -119.18489     0.80690     0.00000     0.00000
  n-local   240.33947   239.97724   241.89709     0.00051     0.00000    -0.00000
  augment   -11.43055   -11.85809   -12.08642     0.00349    -0.00000    -0.00000
  Kinetic   391.47669   397.29714   398.83942    -0.11763     0.00000     0.00000
  Fock        0.00000     0.00000     0.00000     0.00000     0.00000     0.00000
  -------------------------------------------------------------------------------------
  Total       1.63757     0.14564     1.53073    -0.12945     0.00000     0.00000
  in kB      13.55264     1.20535    12.66843    -1.07136     0.00001     0.00000
  external pressure =        9.14 kB  Pullay stress =        0.00 kB


 VOLUME and BASIS-vectors are now :
 -----------------------------------------------------------------------------
  energy-cutoff  :      520.00
  volume of cell :      193.59
      direct lattice vectors                 reciprocal lattice vectors
     3.858100176  0.000000000  0.000000000     0.259194929  0.000000000  0.000000000
     0.000000000  4.526575088  0.000000000     0.000000000  0.220917577  0.000000000
     0.000000000  0.000000000 11.085176468     0.000000000  0.000000000  0.090210562

  length of vectors
     3.858100176  4.526575088 11.085176468     0.259194929  0.220917577  0.090210562


 FORCES acting on ions
    electron-ion (+dipol)            ewald-force                    non-local-force                 convergence-correction
 -----------------------------------------------------------------------------------------------
   0.566E-01 0.188E+02 0.218E+02   -.921E-01 -.211E+02 -.247E+02   0.320E-01 0.227E+01 0.308E+01   -.172E-04 0.105E-03 -.139E-02
   0.566E-01 0.188E+02 -.218E+02   -.921E-01 -.211E+02 0.247E+02   0.320E-01 0.227E+01 -.308E+01   -.163E-04 0.104E-03 0.139E-02
   -.566E-01 -.188E+02 -.218E+02   0.921E-01 0.211E+02 0.247E+02   -.320E-01 -.227E+01 -.308E+01   0.159E-04 -.105E-03 0.139E-02
   -.566E-01 -.188E+02 0.218E+02   0.921E-01 0.211E+02 -.247E+02   -.320E-01 -.227E+01 0.308E+01   0.165E-04 -.103E-03 -.139E-02
   0.174E+00 -.196E+02 -.257E+02   -.150E+00 0.212E+02 0.272E+02   -.531E-01 -.148E+01 -.165E+01   0.560E-04 -.933E-05 0.278E-02
   0.174E+00 -.196E+02 0.257E+02   -.150E+00 0.212E+02 -.272E+02   -.531E-01 -.148E+01 0.165E+01   0.580E-04 -.729E-05 -.277E-02
   -.174E+00 0.196E+02 0.257E+02   0.150E+00 -.212E+02 -.272E+02   0.531E-01 0.148E+01 0.165E+01   -.566E-04 0.970E-05 -.278E-02
   -.174E+00 0.196E+02 -.257E+02   0.150E+00 -.212E+02 0.272E+02   0.531E-01 0.148E+01 -.165E+01   -.550E-04 0.706E-05 0.277E-02
 -----------------------------------------------------------------------------------------------
   0.241E-05 0.243E-05 0.244E-05   -.366E-14 0.355E-14 -.711E-14   0.805E-04 0.461E-04 -.132E-05   0.128E-05 -.125E-06 -.140E-05
 
 
 POSITION                                       TOTAL-FORCE (eV/Angst)
 -----------------------------------------------------------------------------------
      2.97745      2.61586      1.36328        -0.003513     -0.051494      0.227601
      1.04840      0.35257      4.17930        -0.003513     -0.051495     -0.227601
      2.89358      4.01000      9.72189         0.003493      0.051488     -0.227603
      0.96453      1.74671      6.90587         0.003493      0.051488      0.227603
      2.97745      2.06900      3.90621        -0.029334      0.124524     -0.125917
      1.04840      4.33229      1.63637        -0.029333      0.124523      0.125918
      2.89358      0.03028      7.17896         0.029354     -0.124517      0.125907
      0.96453      2.29357      9.44880         0.029354     -0.124517     -0.125907
 -----------------------------------------------------------------------------------
    total drift:                                0.000084      0.000048     -0.000000


--------------------------------------------------------------------------------------------------------



  FREE ENERGIE OF THE ION-ELECTRON SYSTEM (eV)
  ---------------------------------------------------
  free  energy   TOTEN  =       -33.61261235 eV

  energy  without entropy=      -33.61166383  energy(sigma->0) =      -33.61213809
 


--------------------------------------------------------------------------------------------------------


    POTLOK:  cpu time      0.2373: real time      0.2381


--------------------------------------------------------------------------------------------------------


     LOOP+:  cpu time      8.3627: real time      8.4041
    4ORBIT:  cpu time      0.0000: real time      0.0000

 total amount of memory used by VASP MPI-rank0    41770. kBytes
=======================================================================

   base      :      30000. kBytes
   nonl-proj :       9056. kBytes
   fftplans  :        519. kBytes
   grid      :        766. kBytes
   one-center:         16. kBytes
   wavefun   :       1413. kBytes
 
  
  
 General timing and accounting informations for this job:
 ========================================================
  
                  Total CPU time used (sec):       10.115
                            User time (sec):        9.790
                          System time (sec):        0.324
                         Elapsed time (sec):       10.439
  
                   Maximum memory used (kb):      178568.
                   Average memory used (kb):          N/A
  
                          Minor page faults:        21110
                          Major page faults:           59
                 Voluntary context switches:         2118
