 running  160 mpi-ranks, with    1 threads/rank, on   10 nodes
 distrk:  each k-point on   80 cores,    2 groups
 distr:  one band on    5 cores,   16 groups
 vasp.6.4.2 20Jul23 (build Oct 12 2023 10:31:02) complex                         
 POSCAR found type information on POSCAR GeSe
 POSCAR found :  2 types and       8 ions
 Reading from existing POTCAR
 scaLAPACK will be used
 Reading from existing POTCAR
 LDA part: xc-table for Pade appr. of Perdew
 POSCAR, INCAR and KPOINTS ok, starting setup
 FFT: planning ... GRIDC
 FFT: planning ... GRID_SOFT
 FFT: planning ... GRID
 WAVECAR not read
 entering main loop
       N       E                     dE             d eps       ncg     rms          rms(c)
DAV:   1     0.164115479028E+03    0.16412E+03   -0.15904E+04  2560   0.104E+03
DAV:   2    -0.220765258551E+02   -0.18619E+03   -0.18072E+03  3616   0.156E+02
DAV:   3    -0.337303090251E+02   -0.11654E+02   -0.11619E+02  3456   0.447E+01
DAV:   4    -0.338211077739E+02   -0.90799E-01   -0.90786E-01  3136   0.448E+00
DAV:   5    -0.338217084465E+02   -0.60067E-03   -0.60067E-03  3424   0.372E-01    0.659E+00
DAV:   6    -0.334227881133E+02    0.39892E+00   -0.78276E-01  2992   0.300E+00    0.411E+00
DAV:   7    -0.334159682263E+02    0.68199E-02   -0.25697E-01  3328   0.177E+00    0.130E+00
DAV:   8    -0.334145449740E+02    0.14233E-02   -0.30147E-02  2880   0.655E-01    0.167E-01
DAV:   9    -0.334148653393E+02   -0.32037E-03   -0.38018E-03  3008   0.274E-01    0.642E-02
DAV:  10    -0.334150379276E+02   -0.17259E-03   -0.34258E-04  3120   0.811E-02    0.243E-02
DAV:  11    -0.334150870056E+02   -0.49078E-04   -0.57728E-05  3184   0.335E-02    0.117E-02
DAV:  12    -0.334150904107E+02   -0.34051E-05   -0.93381E-06  3312   0.123E-02    0.252E-03
DAV:  13    -0.334150910992E+02   -0.68850E-06   -0.13503E-06  2160   0.502E-03
   1 F= -.33415091E+02 E0= -.33415091E+02  d E =-.232918E-13
