 running  128 mpi-ranks, with    1 threads/rank, on    7 nodes
 distrk:  each k-point on   64 cores,    2 groups
 distr:  one band on    2 cores,   32 groups
 vasp.6.4.1 05Apr23 (build May 18 2023 13:19:41) complex                         
 POSCAR found type information on POSCAR C S O 
 POSCAR found :  3 types and     367 ions
 Reading from existing POTCAR
 scaLAPACK will be used
 Reading from existing POTCAR
 -----------------------------------------------------------------------------
|                                                                             |
|               ----> ADVICE to this user running VASP <----                  |
|                                                                             |
|     You have a (more or less) 'large supercell' and for larger cells it     |
|     might be more efficient to use real-space projection operators.         |
|     Therefore, try LREAL= Auto in the INCAR file.                           |
|     Mind: If you want to do very accurate calculations, keep the            |
|     reciprocal projection scheme (i.e. LREAL=.FALSE.).                      |
|                                                                             |
 -----------------------------------------------------------------------------

 LDA part: xc-table for Pade appr. of Perdew
 POSCAR, INCAR and KPOINTS ok, starting setup
 FFT: planning ... GRIDC
 FFT: planning ... GRID_SOFT
 FFT: planning ... GRID
 WAVECAR not read
 charge-density read from file: 01_AOPT                                 
 magnetization density read from file 1
 WARNING: random wavefunctions but no delay for mixing, default for NELMDL
 entering main loop
       N       E                     dE             d eps       ncg     rms          rms(c)
DAV:   1     0.113463902425E+05    0.11346E+05   -0.41743E+05  8576   0.938E+02
DAV:   2     0.410596640079E+03   -0.10936E+05   -0.10177E+05 11168   0.213E+02
DAV:   3    -0.301672010298E+04   -0.34273E+04   -0.32756E+04  9216   0.116E+02
DAV:   4    -0.331398772150E+04   -0.29727E+03   -0.28671E+03  8992   0.388E+01
DAV:   5    -0.332558488158E+04   -0.11597E+02   -0.11368E+02 10304   0.682E+00    0.129E-01
DAV:   6    -0.332580638032E+04   -0.22150E+00   -0.21876E+00  9504   0.101E+00    0.602E-02
DAV:   7    -0.332581412798E+04   -0.77477E-02   -0.77092E-02  9920   0.194E-01    0.442E-02
DAV:   8    -0.332581436543E+04   -0.23745E-03   -0.27651E-03  9664   0.369E-02    0.356E-02
DAV:   9    -0.332581435130E+04    0.14125E-04   -0.11609E-04  9376   0.818E-03    0.276E-02
DAV:  10    -0.332581432721E+04    0.24094E-04   -0.14164E-05  8192   0.422E-03    0.172E-02
DAV:  11    -0.332581431358E+04    0.13629E-04   -0.61480E-06  8288   0.274E-03    0.101E-02
DAV:  12    -0.332581430573E+04    0.78510E-05   -0.45133E-07  6016   0.113E-03    0.691E-03
DAV:  13    -0.332581429489E+04    0.10834E-04   -0.78221E-07  5728   0.131E-03    0.254E-03
DAV:  14    -0.332581429065E+04    0.42384E-05   -0.28773E-07  5024   0.886E-04    0.752E-04
DAV:  15    -0.332581428980E+04    0.85449E-06    0.16539E-07  5056   0.491E-04
 soft stop encountered!  aborting job ...
   1 F= -.33399749E+04 E0= -.33399749E+04  d E =-.333997E+04  mag=    -0.0000
 BRION: g(F)=  0.176E-02 g(S)=  0.000E+00
 deleting file STOPCAR
 PROFILE, used timers:     327
