 running  128 mpi-ranks, with    1 threads/rank, on    7 nodes
 distrk:  each k-point on   64 cores,    2 groups
 distr:  one band on    2 cores,   32 groups
 vasp.6.4.1 05Apr23 (build May 18 2023 13:19:41) complex                         
 POSCAR found type information on POSCAR C S O 
 POSCAR found :  3 types and     367 ions
 Reading from existing POTCAR
 scaLAPACK will be used
 Reading from existing POTCAR
 -----------------------------------------------------------------------------
|                                                                             |
|               ----> ADVICE to this user running VASP <----                  |
|                                                                             |
|     You have a (more or less) 'large supercell' and for larger cells it     |
|     might be more efficient to use real-space projection operators.         |
|     Therefore, try LREAL= Auto in the INCAR file.                           |
|     Mind: If you want to do very accurate calculations, keep the            |
|     reciprocal projection scheme (i.e. LREAL=.FALSE.).                      |
|                                                                             |
 -----------------------------------------------------------------------------

 LDA part: xc-table for Pade appr. of Perdew
 POSCAR, INCAR and KPOINTS ok, starting setup
 FFT: planning ... GRIDC
 FFT: planning ... GRID_SOFT
 FFT: planning ... GRID
 WAVECAR not read
 charge-density read from file: 01_AOPT                                 
 magnetization density read from file 1
 WARNING: random wavefunctions but no delay for mixing, default for NELMDL
 entering main loop
       N       E                     dE             d eps       ncg     rms          rms(c)
DAV:   1     0.113511924630E+05    0.11351E+05   -0.41730E+05  8576   0.938E+02
DAV:   2     0.409766708858E+03   -0.10941E+05   -0.10183E+05 11232   0.213E+02
DAV:   3    -0.301646479299E+04   -0.34262E+04   -0.32750E+04  9216   0.116E+02
DAV:   4    -0.331360661340E+04   -0.29714E+03   -0.28823E+03  8992   0.388E+01
DAV:   5    -0.332546909800E+04   -0.11862E+02   -0.11619E+02 10176   0.687E+00    0.136E-01
DAV:   6    -0.332572744588E+04   -0.25835E+00   -0.25504E+00  9664   0.106E+00    0.704E-02
DAV:   7    -0.332573695788E+04   -0.95120E-02   -0.94985E-02  9984   0.199E-01    0.489E-02
DAV:   8    -0.332573718004E+04   -0.22217E-03   -0.26894E-03  9632   0.370E-02    0.376E-02
DAV:   9    -0.332573717107E+04    0.89740E-05   -0.13236E-04  9600   0.822E-03    0.306E-02
DAV:  10    -0.332573714463E+04    0.26438E-04   -0.16810E-05  7904   0.452E-03    0.196E-02
DAV:  11    -0.332573713042E+04    0.14212E-04   -0.84801E-06  8384   0.315E-03    0.118E-02
DAV:  12    -0.332573712280E+04    0.76208E-05   -0.13650E-06  6208   0.151E-03    0.804E-03
DAV:  13    -0.332573711166E+04    0.11135E-04   -0.14223E-06  6304   0.156E-03    0.303E-03
DAV:  14    -0.332573710735E+04    0.43109E-05   -0.45774E-07  5344   0.100E-03    0.930E-04
DAV:  15    -0.332573710666E+04    0.68697E-06    0.81635E-08  5120   0.583E-04
   1 F= -.33399097E+04 E0= -.33399097E+04  d E =-.333991E+04  mag=    -0.0000
 BRION: g(F)=  0.853E-02 g(S)=  0.000E+00
 bond charge predicted
       N       E                     dE             d eps       ncg     rms          rms(c)
DAV:   1    -0.332573662303E+04    0.48432E-03   -0.12079E+00  7680   0.900E-01    0.198E-01
DAV:   2    -0.332574054588E+04   -0.39229E-02   -0.44773E-02  8192   0.133E-01    0.165E-01
DAV:   3    -0.332574031454E+04    0.23134E-03   -0.93818E-04  8576   0.268E-02    0.109E-01
DAV:   4    -0.332574015635E+04    0.15819E-03   -0.49700E-04  8000   0.193E-02    0.312E-02
DAV:   5    -0.332574016007E+04   -0.37219E-05   -0.14829E-04  8384   0.941E-03    0.124E-02
DAV:   6    -0.332574015979E+04    0.28196E-06   -0.17327E-05  7552   0.418E-03    0.690E-03
DAV:   7    -0.332574016389E+04   -0.41004E-05   -0.47133E-06  7104   0.212E-03    0.351E-03
DAV:   8    -0.332574017129E+04   -0.73987E-05   -0.49688E-07  6048   0.102E-03    0.157E-03
DAV:   9    -0.332574017939E+04   -0.81031E-05   -0.26606E-07  5952   0.763E-04    0.946E-04
DAV:  10    -0.332574018914E+04   -0.97469E-05   -0.17730E-07  5600   0.562E-04    0.636E-04
DAV:  11    -0.332574019688E+04   -0.77385E-05   -0.46067E-08  5568   0.442E-04    0.396E-04
DAV:  12    -0.332574020140E+04   -0.45217E-05    0.19108E-07  5344   0.267E-04    0.267E-04
DAV:  13    -0.332574020531E+04   -0.39137E-05    0.24984E-07  4800   0.193E-04    0.181E-04
DAV:  14    -0.332574020755E+04   -0.22390E-05    0.29307E-07  4768   0.136E-04    0.122E-04
DAV:  15    -0.332574020945E+04   -0.18986E-05    0.31111E-07  4352   0.119E-04    0.839E-05
DAV:  16    -0.332574021104E+04   -0.15914E-05    0.31822E-07  4640   0.102E-04    0.722E-05
DAV:  17    -0.332574021193E+04   -0.88767E-06    0.33126E-07  4352   0.759E-05
   2 F= -.33399120E+04 E0= -.33399120E+04  d E =-.230622E-02  mag=    -0.0000
 BRION: g(F)=  0.552E-01 g(S)=  0.000E+00 retain N=  1 mean eig= 0.17
 eig:   0.174
 bond charge predicted
       N       E                     dE             d eps       ncg     rms          rms(c)
DAV:   1    -0.332574430301E+04   -0.40920E-02   -0.29611E-01  7424   0.418E-01    0.109E-01
DAV:   2    -0.332574559371E+04   -0.12907E-02   -0.15343E-02  7872   0.712E-02    0.109E-01
DAV:   3    -0.332574550030E+04    0.93405E-04   -0.33879E-04  8896   0.141E-02    0.824E-02
DAV:   4    -0.332574534783E+04    0.15247E-03   -0.27259E-04  7584   0.109E-02    0.300E-02
DAV:   5    -0.332574532758E+04    0.20253E-04   -0.11973E-04  7776   0.702E-03    0.107E-02
DAV:   6    -0.332574533120E+04   -0.36203E-05   -0.10721E-05  6848   0.276E-03    0.511E-03
DAV:   7    -0.332574533877E+04   -0.75640E-05   -0.29968E-06  6144   0.119E-03    0.208E-03
DAV:   8    -0.332574534785E+04   -0.90827E-05   -0.62154E-07  5600   0.637E-04    0.145E-03
DAV:   9    -0.332574535563E+04   -0.77822E-05   -0.61501E-08  5696   0.391E-04    0.662E-04
DAV:  10    -0.332574536365E+04   -0.80224E-05   -0.78152E-08  5472   0.312E-04    0.419E-04
DAV:  11    -0.332574536930E+04   -0.56457E-05    0.79803E-08  5440   0.247E-04    0.271E-04
DAV:  12    -0.332574537388E+04   -0.45823E-05    0.14154E-07  5248   0.207E-04    0.168E-04
DAV:  13    -0.332574537601E+04   -0.21291E-05    0.28053E-07  4864   0.140E-04    0.133E-04
DAV:  14    -0.332574537754E+04   -0.15278E-05    0.30151E-07  4544   0.109E-04    0.795E-05
DAV:  15    -0.332574537917E+04   -0.16320E-05    0.30302E-07  4736   0.111E-04    0.443E-05
DAV:  16    -0.332574537974E+04   -0.56834E-06    0.32721E-07  4416   0.726E-05
   3 F= -.33399170E+04 E0= -.33399170E+04  d E =-.503461E-02  mag=    -0.0000
 BRION: g(F)=  0.678E-02 g(S)=  0.000E+00 retain N=  1 mean eig= 0.16
 eig:   0.158
 bond charge predicted
       N       E                     dE             d eps       ncg     rms          rms(c)
DAV:   1    -0.332574810136E+04   -0.27222E-02   -0.10274E+00  7264   0.801E-01    0.181E-01
DAV:   2    -0.332575073861E+04   -0.26372E-02   -0.30911E-02  7808   0.110E-01    0.120E-01
DAV:   3    -0.332575059043E+04    0.14818E-03   -0.63157E-04  8544   0.220E-02    0.750E-02
DAV:   4    -0.332575057851E+04    0.11923E-04   -0.41294E-04  7808   0.158E-02    0.226E-02
DAV:   5    -0.332575058529E+04   -0.67856E-05   -0.83437E-05  8160   0.735E-03    0.113E-02
DAV:   6    -0.332575058557E+04   -0.27986E-06   -0.12907E-05  6528   0.275E-03    0.619E-03
DAV:   7    -0.332575058655E+04   -0.97672E-06   -0.19385E-06  6016   0.146E-03
   4 F= -.33399214E+04 E0= -.33399214E+04  d E =-.443814E-02  mag=    -0.0000
 BRION: g(F)=  0.169E-01 g(S)=  0.000E+00 retain N=  2 mean eig= 0.14
 eig:   0.112  0.162
 bond charge predicted
       N       E                     dE             d eps       ncg     rms          rms(c)
DAV:   1    -0.332575274541E+04   -0.21598E-02   -0.11425E-01  7296   0.323E-01    0.698E-02
DAV:   2    -0.332575310303E+04   -0.35762E-03   -0.45299E-03  8256   0.504E-02    0.561E-02
DAV:   3    -0.332575307250E+04    0.30524E-04   -0.14889E-04  8416   0.115E-02    0.350E-02
DAV:   4    -0.332575305780E+04    0.14701E-04   -0.43550E-05  7456   0.634E-03    0.128E-02
DAV:   5    -0.332575305763E+04    0.16938E-06   -0.18600E-05  7872   0.362E-03    0.342E-03
DAV:   6    -0.332575305763E+04    0.87311E-08   -0.17844E-06  5888   0.138E-03
   5 F= -.33399237E+04 E0= -.33399237E+04  d E =-.230512E-02  mag=    -0.0000
 BRION: g(F)=  0.541E-02 g(S)=  0.000E+00 retain N=  1 mean eig= 0.19
 eig:   0.187
 bond charge predicted
       N       E                     dE             d eps       ncg     rms          rms(c)
DAV:   1    -0.332575673125E+04   -0.36736E-02   -0.74520E-01  7232   0.679E-01    0.144E-01
DAV:   2    -0.332575863488E+04   -0.19036E-02   -0.21343E-02  7936   0.910E-02    0.101E-01
DAV:   3    -0.332575855071E+04    0.84168E-04   -0.33556E-04  8448   0.165E-02    0.619E-02
DAV:   4    -0.332575856999E+04   -0.19280E-04   -0.19762E-04  7808   0.130E-02    0.133E-02
DAV:   5    -0.332575857312E+04   -0.31288E-05   -0.46290E-05  7616   0.613E-03    0.649E-03
DAV:   6    -0.332575857340E+04   -0.27730E-06   -0.30150E-06  6400   0.167E-03
   6 F= -.33399285E+04 E0= -.33399285E+04  d E =-.477790E-02  mag=    -0.0000
 BRION: g(F)=  0.669E-02 g(S)=  0.000E+00 retain N=  2 mean eig= 0.19
 eig:   0.193  0.193
 bond charge predicted
       N       E                     dE             d eps       ncg     rms          rms(c)
DAV:   1    -0.332576012562E+04   -0.15525E-02   -0.99000E-02  7328   0.262E-01    0.598E-02
DAV:   2    -0.332576036441E+04   -0.23880E-03   -0.29685E-03  8128   0.370E-02    0.379E-02
DAV:   3    -0.332576034821E+04    0.16204E-04   -0.74225E-05  8224   0.785E-03    0.233E-02
DAV:   4    -0.332576034851E+04   -0.30256E-06   -0.45057E-05  7552   0.532E-03    0.703E-03
DAV:   5    -0.332576034992E+04   -0.14014E-05   -0.88596E-06  7360   0.257E-03    0.323E-03
DAV:   6    -0.332576035046E+04   -0.54098E-06   -0.86781E-07  5568   0.862E-04
   7 F= -.33399301E+04 E0= -.33399301E+04  d E =-.156201E-02  mag=    -0.0000
 BRION: g(F)=  0.499E-02 g(S)=  0.000E+00 retain N=  1 mean eig= 0.21
 eig:   0.207
 bond charge predicted
       N       E                     dE             d eps       ncg     rms          rms(c)
DAV:   1    -0.332576363074E+04   -0.32808E-02   -0.62264E-01  7168   0.594E-01    0.131E-01
DAV:   2    -0.332576521575E+04   -0.15850E-02   -0.17665E-02  7648   0.791E-02    0.897E-02
DAV:   3    -0.332576515112E+04    0.64636E-04   -0.27130E-04  8384   0.145E-02    0.567E-02
DAV:   4    -0.332576516682E+04   -0.15704E-04   -0.20518E-04  7648   0.120E-02    0.136E-02
DAV:   5    -0.332576516827E+04   -0.14531E-05   -0.43784E-05  7776   0.543E-03    0.690E-03
DAV:   6    -0.332576516857E+04   -0.29476E-06   -0.31423E-06  6432   0.165E-03
   8 F= -.33399342E+04 E0= -.33399342E+04  d E =-.414710E-02  mag=    -0.0000
 BRION: g(F)=  0.557E-02 g(S)=  0.000E+00 retain N=  2 mean eig= 0.16
 eig:   0.151  0.173
 bond charge predicted
       N       E                     dE             d eps       ncg     rms          rms(c)
DAV:   1    -0.332576642562E+04   -0.12573E-02   -0.67303E-02  7264   0.190E-01    0.452E-02
DAV:   2    -0.332576664160E+04   -0.21598E-03   -0.24175E-03  7648   0.275E-02    0.372E-02
DAV:   3    -0.332576663144E+04    0.10166E-04   -0.43718E-05  8032   0.540E-03    0.250E-02
DAV:   4    -0.332576662694E+04    0.44998E-05   -0.27413E-05  6912   0.400E-03    0.724E-03
DAV:   5    -0.332576662767E+04   -0.73540E-06   -0.74921E-06  6656   0.195E-03
   9 F= -.33399355E+04 E0= -.33399355E+04  d E =-.126083E-02  mag=    -0.0000
 BRION: g(F)=  0.476E-02 g(S)=  0.000E+00 retain N=  1 mean eig= 0.17
 eig:   0.165
 bond charge predicted
       N       E                     dE             d eps       ncg     rms          rms(c)
DAV:   1    -0.332576966230E+04   -0.30354E-02   -0.55000E-01  7168   0.550E-01    0.123E-01
DAV:   2    -0.332577104867E+04   -0.13864E-02   -0.15443E-02  7712   0.730E-02    0.828E-02
DAV:   3    -0.332577099211E+04    0.56555E-04   -0.23298E-04  8384   0.133E-02    0.523E-02
DAV:   4    -0.332577101082E+04   -0.18702E-04   -0.18841E-04  7744   0.113E-02    0.135E-02
DAV:   5    -0.332577101129E+04   -0.47486E-06   -0.41796E-05  7808   0.523E-03    0.645E-03
DAV:   6    -0.332577101178E+04   -0.49092E-06   -0.30863E-06  6336   0.154E-03
  10 F= -.33399392E+04 E0= -.33399392E+04  d E =-.375257E-02  mag=    -0.0000
 BRION: g(F)=  0.433E-02 g(S)=  0.000E+00 retain N=  2 mean eig= 3.35
 eig:   0.152  6.553
 bond charge predicted
       N       E                     dE             d eps       ncg     rms          rms(c)
DAV:   1    -0.332577291920E+04   -0.19079E-02   -0.18227E-01  7232   0.340E-01    0.713E-02
DAV:   2    -0.332577337254E+04   -0.45334E-03   -0.51249E-03  7680   0.463E-02    0.486E-02
DAV:   3    -0.332577335350E+04    0.19041E-04   -0.86778E-05  8416   0.872E-03    0.307E-02
DAV:   4    -0.332577335834E+04   -0.48458E-05   -0.56815E-05  7744   0.695E-03    0.738E-03
DAV:   5    -0.332577335911E+04   -0.76892E-06   -0.13577E-05  7232   0.321E-03    0.354E-03
DAV:   6    -0.332577335948E+04   -0.37311E-06   -0.78063E-07  6080   0.952E-04
  11 F= -.33399412E+04 E0= -.33399412E+04  d E =-.199080E-02  mag=    -0.0000
 BRION: g(F)=  0.476E-02 g(S)=  0.000E+00 retain N=  2 mean eig= 0.26
 eig:   0.110  0.405
 bond charge predicted
       N       E                     dE             d eps       ncg     rms          rms(c)
DAV:   1    -0.332577568844E+04   -0.23293E-02   -0.30049E-01  7168   0.415E-01    0.903E-02
DAV:   2    -0.332577644777E+04   -0.75933E-03   -0.84850E-03  7616   0.558E-02    0.621E-02
DAV:   3    -0.332577641580E+04    0.31969E-04   -0.13272E-04  8448   0.103E-02    0.395E-02
DAV:   4    -0.332577642347E+04   -0.76672E-05   -0.96196E-05  7552   0.855E-03    0.953E-03
DAV:   5    -0.332577642464E+04   -0.11667E-05   -0.21519E-05  7520   0.385E-03    0.496E-03
DAV:   6    -0.332577642486E+04   -0.22445E-06   -0.16612E-06  6080   0.126E-03
  12 F= -.33399438E+04 E0= -.33399438E+04  d E =-.260138E-02  mag=    -0.0000
 BRION: g(F)=  0.449E-02 g(S)=  0.000E+00 retain N=  2 mean eig= 0.18
 eig:   0.124  0.246
 bond charge predicted
       N       E                     dE             d eps       ncg     rms          rms(c)
DAV:   1    -0.332577765278E+04   -0.12281E-02   -0.77302E-02  7264   0.198E-01    0.474E-02
DAV:   2    -0.332577787943E+04   -0.22664E-03   -0.25315E-03  7616   0.278E-02    0.368E-02
DAV:   3    -0.332577786755E+04    0.11876E-04   -0.43030E-05  8192   0.538E-03    0.243E-02
DAV:   4    -0.332577786499E+04    0.25603E-05   -0.30755E-05  7040   0.411E-03    0.657E-03
DAV:   5    -0.332577786585E+04   -0.86101E-06   -0.70543E-06  6560   0.191E-03
  13 F= -.33399451E+04 E0= -.33399451E+04  d E =-.122146E-02  mag=    -0.0000
 BRION: g(F)=  0.410E-02 g(S)=  0.000E+00 retain N=  2 mean eig= 1.36
 eig:   0.160  2.559
 bond charge predicted
       N       E                     dE             d eps       ncg     rms          rms(c)
DAV:   1    -0.332578024894E+04   -0.23840E-02   -0.36786E-01  7168   0.440E-01    0.998E-02
DAV:   2    -0.332578117806E+04   -0.92911E-03   -0.10328E-02  7616   0.583E-02    0.677E-02
DAV:   3    -0.332578113981E+04    0.38245E-04   -0.15213E-04  8416   0.105E-02    0.430E-02
DAV:   4    -0.332578115426E+04   -0.14450E-04   -0.12002E-04  7552   0.890E-03    0.109E-02
DAV:   5    -0.332578115536E+04   -0.10950E-05   -0.25968E-05  7616   0.402E-03    0.560E-03
DAV:   6    -0.332578115566E+04   -0.30210E-06   -0.22256E-06  6144   0.133E-03
  14 F= -.33399478E+04 E0= -.33399478E+04  d E =-.277199E-02  mag=    -0.0000
 BRION: g(F)=  0.372E-02 g(S)=  0.000E+00 retain N=  2 mean eig= 3.83
 eig:   0.142  7.519
 bond charge predicted
       N       E                     dE             d eps       ncg     rms          rms(c)
DAV:   1    -0.332578295762E+04   -0.18023E-02   -0.18382E-01  7296   0.323E-01    0.705E-02
DAV:   2    -0.332578341538E+04   -0.45776E-03   -0.51227E-03  7712   0.434E-02    0.482E-02
DAV:   3    -0.332578339621E+04    0.19175E-04   -0.77697E-05  8448   0.792E-03    0.305E-02
DAV:   4    -0.332578340396E+04   -0.77508E-05   -0.56187E-05  7520   0.662E-03    0.704E-03
DAV:   5    -0.332578340459E+04   -0.62911E-06   -0.13237E-05  7200   0.305E-03    0.338E-03
DAV:   6    -0.332578340488E+04   -0.29593E-06   -0.55450E-07  6016   0.838E-04
  15 F= -.33399497E+04 E0= -.33399497E+04  d E =-.188252E-02  mag=    -0.0000
 BRION: g(F)=  0.371E-02 g(S)=  0.000E+00 retain N=  2 mean eig= 0.52
 eig:   0.119  0.923
 bond charge predicted
       N       E                     dE             d eps       ncg     rms          rms(c)
DAV:   1    -0.332578534883E+04   -0.19442E-02   -0.24539E-01  7296   0.365E-01    0.812E-02
DAV:   2    -0.332578595460E+04   -0.60577E-03   -0.67840E-03  7616   0.486E-02    0.551E-02
DAV:   3    -0.332578592702E+04    0.27583E-04   -0.10275E-04  8384   0.891E-03    0.350E-02
DAV:   4    -0.332578593839E+04   -0.11376E-04   -0.83052E-05  7616   0.755E-03    0.879E-03
DAV:   5    -0.332578593923E+04   -0.83470E-06   -0.18507E-05  7360   0.343E-03    0.434E-03
DAV:   6    -0.332578593957E+04   -0.33912E-06   -0.11809E-06  5888   0.103E-03
  16 F= -.33399518E+04 E0= -.33399518E+04  d E =-.211577E-02  mag=    -0.0000
 BRION: g(F)=  0.370E-02 g(S)=  0.000E+00 retain N=  2 mean eig= 0.10
 eig:   0.174  0.022
 bond charge predicted
       N       E                     dE             d eps       ncg     rms          rms(c)
DAV:   1    -0.332578731384E+04   -0.13746E-02   -0.11281E-01  7296   0.238E-01    0.556E-02
DAV:   2    -0.332578761471E+04   -0.30087E-03   -0.33563E-03  7552   0.323E-02    0.404E-02
DAV:   3    -0.332578760010E+04    0.14605E-04   -0.52646E-05  8384   0.604E-03    0.260E-02
DAV:   4    -0.332578760256E+04   -0.24587E-05   -0.37180E-05  7168   0.480E-03    0.653E-03
DAV:   5    -0.332578760383E+04   -0.12647E-05   -0.79741E-06  6912   0.212E-03    0.357E-03
DAV:   6    -0.332578760394E+04   -0.11595E-06   -0.67229E-07  5504   0.879E-04
  17 F= -.33399532E+04 E0= -.33399532E+04  d E =-.138580E-02  mag=    -0.0000
 BRION: g(F)=  0.358E-02 g(S)=  0.000E+00 retain N=  2 mean eig= 1.23
 eig:   0.132  2.322
 bond charge predicted
       N       E                     dE             d eps       ncg     rms          rms(c)
DAV:   1    -0.332578940205E+04   -0.17982E-02   -0.20685E-01  7232   0.323E-01    0.740E-02
DAV:   2    -0.332578992449E+04   -0.52244E-03   -0.57661E-03  7616   0.427E-02    0.513E-02
DAV:   3    -0.332578990171E+04    0.22784E-04   -0.81901E-05  8416   0.770E-03    0.326E-02
DAV:   4    -0.332578991329E+04   -0.11579E-04   -0.65191E-05  7200   0.651E-03    0.750E-03
DAV:   5    -0.332578991466E+04   -0.13700E-05   -0.13683E-05  7424   0.286E-03    0.414E-03
DAV:   6    -0.332578991485E+04   -0.19616E-06   -0.79525E-07  5568   0.944E-04
  18 F= -.33399551E+04 E0= -.33399551E+04  d E =-.192124E-02  mag=    -0.0000
 BRION: g(F)=  0.319E-02 g(S)=  0.000E+00 retain N=  1 mean eig= 0.16
 eig:   0.164
 bond charge predicted
       N       E                     dE             d eps       ncg     rms          rms(c)
DAV:   1    -0.332579190490E+04   -0.19902E-02   -0.34408E-01  7232   0.427E-01    0.951E-02
DAV:   2    -0.332579273944E+04   -0.83454E-03   -0.92972E-03  7488   0.565E-02    0.641E-02
DAV:   3    -0.332579270229E+04    0.37143E-04   -0.13502E-04  8352   0.102E-02    0.407E-02
DAV:   4    -0.332579272605E+04   -0.23752E-04   -0.11143E-04  7680   0.881E-03    0.102E-02
DAV:   5    -0.332579272697E+04   -0.92026E-06   -0.26547E-05  7360   0.410E-03    0.474E-03
DAV:   6    -0.332579272746E+04   -0.49814E-06   -0.15694E-06  6144   0.112E-03
  19 F= -.33399574E+04 E0= -.33399574E+04  d E =-.231231E-02  mag=    -0.0000
 BRION: g(F)=  0.383E-02 g(S)=  0.000E+00 retain N=  2 mean eig= 0.15
 eig:   0.146  0.146
 bond charge predicted
       N       E                     dE             d eps       ncg     rms          rms(c)
DAV:   1    -0.332579363463E+04   -0.90766E-03   -0.44442E-02  7264   0.177E-01    0.356E-02
DAV:   2    -0.332579374488E+04   -0.11026E-03   -0.12780E-03  7680   0.248E-02    0.257E-02
DAV:   3    -0.332579373882E+04    0.60619E-05   -0.24977E-05  8480   0.485E-03    0.164E-02
DAV:   4    -0.332579373962E+04   -0.79931E-06   -0.12931E-05  7232   0.355E-03    0.391E-03
DAV:   5    -0.332579374033E+04   -0.71374E-06   -0.29936E-06  6240   0.161E-03
  20 F= -.33399583E+04 E0= -.33399583E+04  d E =-.847772E-03  mag=    -0.0000
 BRION: g(F)=  0.302E-02 g(S)=  0.000E+00 retain N=  2 mean eig= 0.83
 eig:   0.161  1.507
 bond charge predicted
       N       E                     dE             d eps       ncg     rms          rms(c)
DAV:   1    -0.332579563859E+04   -0.18990E-02   -0.30091E-01  7168   0.379E-01    0.883E-02
DAV:   2    -0.332579637290E+04   -0.73430E-03   -0.81479E-03  7552   0.496E-02    0.604E-02
DAV:   3    -0.332579633953E+04    0.33367E-04   -0.11032E-04  8320   0.882E-03    0.383E-02
DAV:   4    -0.332579636093E+04   -0.21397E-04   -0.92866E-05  7456   0.758E-03    0.896E-03
DAV:   5    -0.332579636273E+04   -0.18044E-05   -0.19559E-05  7424   0.334E-03    0.488E-03
DAV:   6    -0.332579636301E+04   -0.28126E-06   -0.12226E-06  5728   0.106E-03
  21 F= -.33399604E+04 E0= -.33399604E+04  d E =-.215209E-02  mag=    -0.0000
 BRION: g(F)=  0.316E-02 g(S)=  0.000E+00 retain N=  2 mean eig= 0.54
 eig:   0.148  0.924
 bond charge predicted
       N       E                     dE             d eps       ncg     rms          rms(c)
DAV:   1    -0.332579763323E+04   -0.12705E-02   -0.10418E-01  7232   0.223E-01    0.524E-02
DAV:   2    -0.332579789452E+04   -0.26129E-03   -0.29032E-03  7488   0.296E-02    0.366E-02
DAV:   3    -0.332579788272E+04    0.11800E-04   -0.41377E-05  8192   0.537E-03    0.234E-02
DAV:   4    -0.332579788962E+04   -0.69026E-05   -0.32255E-05  7200   0.447E-03    0.554E-03
DAV:   5    -0.332579789079E+04   -0.11668E-05   -0.65516E-06  6656   0.195E-03    0.320E-03
DAV:   6    -0.332579789097E+04   -0.17707E-06   -0.42029E-07  5504   0.766E-04
  22 F= -.33399617E+04 E0= -.33399617E+04  d E =-.125552E-02  mag=    -0.0000
 BRION: g(F)=  0.282E-02 g(S)=  0.000E+00 retain N=  1 mean eig= 0.17
 eig:   0.166
 bond charge predicted
       N       E                     dE             d eps       ncg     rms          rms(c)
DAV:   1    -0.332579985513E+04   -0.19643E-02   -0.36171E-01  7168   0.414E-01    0.960E-02
DAV:   2    -0.332580072037E+04   -0.86525E-03   -0.95190E-03  7456   0.537E-02    0.646E-02
DAV:   3    -0.332580068410E+04    0.36274E-04   -0.12580E-04  8352   0.945E-03    0.408E-02
DAV:   4    -0.332580071193E+04   -0.27833E-04   -0.11204E-04  7616   0.834E-03    0.990E-03
DAV:   5    -0.332580071295E+04   -0.10122E-05   -0.26565E-05  7200   0.390E-03    0.460E-03
DAV:   6    -0.332580071341E+04   -0.46170E-06   -0.11675E-06  6144   0.972E-04
  23 F= -.33399640E+04 E0= -.33399640E+04  d E =-.230617E-02  mag=    -0.0000
 BRION: g(F)=  0.268E-02 g(S)=  0.000E+00 retain N=  2 mean eig= 2.45
 eig:   0.124  4.784
 bond charge predicted
       N       E                     dE             d eps       ncg     rms          rms(c)
DAV:   1    -0.332580253814E+04   -0.18252E-02   -0.34775E-01  7168   0.413E-01    0.940E-02
DAV:   2    -0.332580335988E+04   -0.82174E-03   -0.91495E-03  7488   0.539E-02    0.639E-02
DAV:   3    -0.332580332345E+04    0.36431E-04   -0.12398E-04  8512   0.961E-03    0.404E-02
DAV:   4    -0.332580334622E+04   -0.22778E-04   -0.10518E-04  7616   0.838E-03    0.941E-03
DAV:   5    -0.332580334764E+04   -0.14156E-05   -0.24571E-05  7168   0.384E-03    0.459E-03
DAV:   6    -0.332580334809E+04   -0.44890E-06   -0.10985E-06  5952   0.101E-03
  24 F= -.33399661E+04 E0= -.33399661E+04  d E =-.212952E-02  mag=    -0.0000
 BRION: g(F)=  0.327E-02 g(S)=  0.000E+00 retain N=  2 mean eig= 0.26
 eig:   0.256  0.256
 bond charge predicted
       N       E                     dE             d eps       ncg     rms          rms(c)
DAV:   1    -0.332580437662E+04   -0.10290E-02   -0.82151E-02  7232   0.204E-01    0.472E-02
DAV:   2    -0.332580459405E+04   -0.21742E-03   -0.24461E-03  7456   0.281E-02    0.352E-02
DAV:   3    -0.332580458294E+04    0.11108E-04   -0.39938E-05  8384   0.533E-03    0.228E-02
DAV:   4    -0.332580458281E+04    0.12701E-06   -0.26655E-05  7136   0.412E-03    0.591E-03
DAV:   5    -0.332580458385E+04   -0.10384E-05   -0.62081E-06  6528   0.188E-03    0.305E-03
DAV:   6    -0.332580458398E+04   -0.12526E-06   -0.44495E-07  5280   0.773E-04
  25 F= -.33399671E+04 E0= -.33399671E+04  d E =-.100585E-02  mag=    -0.0000
 BRION: g(F)=  0.308E-02 g(S)=  0.000E+00 retain N=  2 mean eig= 1.26
 eig:   0.147  2.374
 bond charge predicted
       N       E                     dE             d eps       ncg     rms          rms(c)
DAV:   1    -0.332580539563E+04   -0.81177E-03   -0.47524E-02  7232   0.146E-01    0.359E-02
DAV:   2    -0.332580552683E+04   -0.13121E-03   -0.14589E-03  7520   0.201E-02    0.279E-02
DAV:   3    -0.332580552006E+04    0.67730E-05   -0.23294E-05  7552   0.384E-03    0.183E-02
DAV:   4    -0.332580551994E+04    0.11898E-06   -0.16394E-05  6560   0.294E-03    0.501E-03
DAV:   5    -0.332580552053E+04   -0.58790E-06   -0.38926E-06  6016   0.139E-03
  26 F= -.33399679E+04 E0= -.33399679E+04  d E =-.763381E-03  mag=    -0.0000
 BRION: g(F)=  0.263E-02 g(S)=  0.000E+00 retain N=  2 mean eig= 2.10
 eig:   0.150  4.054
 bond charge predicted
       N       E                     dE             d eps       ncg     rms          rms(c)
DAV:   1    -0.332580722183E+04   -0.17019E-02   -0.28024E-01  7168   0.360E-01    0.841E-02
DAV:   2    -0.332580788235E+04   -0.66052E-03   -0.73282E-03  7488   0.465E-02    0.567E-02
DAV:   3    -0.332580785204E+04    0.30306E-04   -0.97133E-05  8384   0.821E-03    0.358E-02
DAV:   4    -0.332580787206E+04   -0.20022E-04   -0.84409E-05  7616   0.723E-03    0.854E-03
DAV:   5    -0.332580787307E+04   -0.10104E-05   -0.19289E-05  7296   0.332E-03    0.419E-03
DAV:   6    -0.332580787341E+04   -0.33632E-06   -0.81024E-07  5696   0.883E-04
  27 F= -.33399698E+04 E0= -.33399698E+04  d E =-.189933E-02  mag=    -0.0000
 BRION: g(F)=  0.236E-02 g(S)=  0.000E+00 retain N=  2 mean eig= 2.86
 eig:   0.147  5.566
 bond charge predicted
       N       E                     dE             d eps       ncg     rms          rms(c)
DAV:   1    -0.332580960425E+04   -0.17312E-02   -0.35803E-01  7200   0.407E-01    0.948E-02
DAV:   2    -0.332581044747E+04   -0.84322E-03   -0.93455E-03  7552   0.529E-02    0.641E-02
DAV:   3    -0.332581040985E+04    0.37622E-04   -0.12353E-04  8384   0.933E-03    0.405E-02
DAV:   4    -0.332581043408E+04   -0.24233E-04   -0.10783E-04  7680   0.824E-03    0.949E-03
DAV:   5    -0.332581043521E+04   -0.11271E-05   -0.25662E-05  7296   0.381E-03    0.447E-03
DAV:   6    -0.332581043567E+04   -0.45798E-06   -0.97387E-07  5888   0.929E-04
  28 F= -.33399719E+04 E0= -.33399719E+04  d E =-.205003E-02  mag=    -0.0000
 BRION: g(F)=  0.262E-02 g(S)=  0.000E+00 retain N=  2 mean eig= 0.26
 eig:   0.262  0.262
 bond charge predicted
       N       E                     dE             d eps       ncg     rms          rms(c)
DAV:   1    -0.332581113249E+04   -0.69728E-03   -0.41442E-02  7296   0.148E-01    0.338E-02
DAV:   2    -0.332581124321E+04   -0.11072E-03   -0.12510E-03  7488   0.206E-02    0.257E-02
DAV:   3    -0.332581123648E+04    0.67269E-05   -0.21141E-05  7808   0.397E-03    0.168E-02
DAV:   4    -0.332581123570E+04    0.78243E-06   -0.14121E-05  6720   0.307E-03    0.446E-03
DAV:   5    -0.332581123624E+04   -0.54110E-06   -0.32927E-06  5888   0.144E-03
  29 F= -.33399725E+04 E0= -.33399725E+04  d E =-.640951E-03  mag=     0.0000
 BRION: g(F)=  0.262E-02 g(S)=  0.000E+00 retain N=  2 mean eig= 0.95
 eig:   0.171  1.729
 bond charge predicted
       N       E                     dE             d eps       ncg     rms          rms(c)
DAV:   1    -0.332581235000E+04   -0.11143E-02   -0.10843E-01  7232   0.218E-01    0.528E-02
DAV:   2    -0.332581262073E+04   -0.27073E-03   -0.29863E-03  7488   0.286E-02    0.375E-02
DAV:   3    -0.332581260799E+04    0.12733E-04   -0.42346E-05  7968   0.519E-03    0.239E-02
DAV:   4    -0.332581261337E+04   -0.53756E-05   -0.32093E-05  7232   0.426E-03    0.589E-03
DAV:   5    -0.332581261463E+04   -0.12631E-05   -0.67842E-06  6464   0.188E-03    0.332E-03
DAV:   6    -0.332581261477E+04   -0.13667E-06   -0.47385E-07  5440   0.764E-04
  30 F= -.33399736E+04 E0= -.33399736E+04  d E =-.110311E-02  mag=     0.0000
 BRION: g(F)=  0.244E-02 g(S)=  0.000E+00 retain N=  2 mean eig= 2.16
 eig:   0.151  4.163
 bond charge predicted
       N       E                     dE             d eps       ncg     rms          rms(c)
DAV:   1    -0.332581392841E+04   -0.13138E-02   -0.15477E-01  7232   0.264E-01    0.622E-02
DAV:   2    -0.332581429310E+04   -0.36469E-03   -0.40274E-03  7488   0.342E-02    0.423E-02
DAV:   3    -0.332581427731E+04    0.15783E-04   -0.52677E-05  8384   0.604E-03    0.267E-02
DAV:   4    -0.332581428758E+04   -0.10271E-04   -0.45232E-05  7424   0.525E-03    0.607E-03
DAV:   5    -0.332581428840E+04   -0.81630E-06   -0.99814E-06  7040   0.236E-03
 soft stop encountered!  aborting job ...
  31 F= -.33399749E+04 E0= -.33399749E+04  d E =-.133784E-02  mag=    -0.0000
 BRION: g(F)=  0.213E-02 g(S)=  0.000E+00 retain N=  2 mean eig= 3.14
 eig:   0.145  6.126
 deleting file STOPCAR
 PROFILE, used timers:     329
