 running  128 mpi-ranks, with    1 threads/rank, on    7 nodes
 distrk:  each k-point on   64 cores,    2 groups
 distr:  one band on    2 cores,   32 groups
 vasp.6.4.1 05Apr23 (build May 18 2023 13:19:41) complex                         
 POSCAR found type information on POSCAR C S O 
 POSCAR found :  3 types and     367 ions
 Reading from existing POTCAR
 scaLAPACK will be used
 Reading from existing POTCAR
 -----------------------------------------------------------------------------
|                                                                             |
|               ----> ADVICE to this user running VASP <----                  |
|                                                                             |
|     You have a (more or less) 'large supercell' and for larger cells it     |
|     might be more efficient to use real-space projection operators.         |
|     Therefore, try LREAL= Auto in the INCAR file.                           |
|     Mind: If you want to do very accurate calculations, keep the            |
|     reciprocal projection scheme (i.e. LREAL=.FALSE.).                      |
|                                                                             |
 -----------------------------------------------------------------------------

 LDA part: xc-table for Pade appr. of Perdew
 POSCAR, INCAR and KPOINTS ok, starting setup
 FFT: planning ... GRIDC
 FFT: planning ... GRID_SOFT
 FFT: planning ... GRID
 WAVECAR not read
 charge-density read from file: 01_AOPT                                 
 magnetization density read from file 1
 WARNING: random wavefunctions but no delay for mixing, default for NELMDL
 entering main loop
       N       E                     dE             d eps       ncg     rms          rms(c)
DAV:   1     0.113582955385E+05    0.11358E+05   -0.41734E+05  8576   0.938E+02
DAV:   2     0.409959478958E+03   -0.10948E+05   -0.10189E+05 11264   0.213E+02
DAV:   3    -0.301649253896E+04   -0.34265E+04   -0.32749E+04  9216   0.116E+02
DAV:   4    -0.331336517842E+04   -0.29687E+03   -0.28851E+03  8928   0.388E+01
DAV:   5    -0.332526619488E+04   -0.11901E+02   -0.11664E+02 10208   0.693E+00    0.137E-01
DAV:   6    -0.332552159319E+04   -0.25540E+00   -0.25182E+00  9536   0.106E+00    0.699E-02
DAV:   7    -0.332553246190E+04   -0.10869E-01   -0.10848E-01  9888   0.206E-01    0.497E-02
DAV:   8    -0.332553269264E+04   -0.23074E-03   -0.27994E-03  9664   0.377E-02    0.379E-02
DAV:   9    -0.332553268241E+04    0.10225E-04   -0.13655E-04  9376   0.846E-03    0.306E-02
DAV:  10    -0.332553265553E+04    0.26881E-04   -0.15697E-05  8064   0.441E-03    0.199E-02
DAV:  11    -0.332553264000E+04    0.15530E-04   -0.82465E-06  8256   0.311E-03    0.121E-02
DAV:  12    -0.332553263151E+04    0.84946E-05   -0.11915E-06  6592   0.144E-03    0.846E-03
DAV:  13    -0.332553261885E+04    0.12660E-04   -0.13032E-06  6208   0.154E-03    0.345E-03
DAV:  14    -0.332553261316E+04    0.56832E-05   -0.53905E-07  5376   0.105E-03    0.108E-03
DAV:  15    -0.332553261164E+04    0.15218E-05    0.92274E-08  4960   0.579E-04    0.425E-04
DAV:  16    -0.332553261117E+04    0.47009E-06    0.24208E-07  4960   0.324E-04
   1 F= -.33397151E+04 E0= -.33397151E+04  d E =-.333972E+04  mag=    -0.0000
 BRION: g(F)=  0.786E-01 g(S)=  0.000E+00
 bond charge predicted
       N       E                     dE             d eps       ncg     rms          rms(c)
DAV:   1    -0.332547530778E+04    0.57304E-01   -0.10377E+01  7584   0.251E+00    0.654E-01
DAV:   2    -0.332551543757E+04   -0.40130E-01   -0.47472E-01  8384   0.397E-01    0.578E-01
DAV:   3    -0.332551253567E+04    0.29019E-02   -0.11071E-02  8576   0.832E-02    0.397E-01
DAV:   4    -0.332550953707E+04    0.29986E-02   -0.72102E-03  7808   0.611E-02    0.139E-01
DAV:   5    -0.332550937878E+04    0.15829E-03   -0.23105E-03  8192   0.327E-02    0.503E-02
DAV:   6    -0.332550943079E+04   -0.52013E-04   -0.25066E-04  8000   0.132E-02    0.263E-02
DAV:   7    -0.332550954760E+04   -0.11680E-03   -0.70188E-05  8416   0.657E-03    0.128E-02
DAV:   8    -0.332550969418E+04   -0.14658E-03   -0.17946E-05  7040   0.269E-03    0.560E-03
DAV:   9    -0.332550979547E+04   -0.10130E-03   -0.59076E-06  6816   0.175E-03    0.454E-03
DAV:  10    -0.332550992206E+04   -0.12658E-03   -0.81613E-06  6624   0.144E-03    0.228E-03
DAV:  11    -0.332551001320E+04   -0.91140E-04   -0.55933E-06  6560   0.110E-03    0.177E-03
DAV:  12    -0.332551005995E+04   -0.46758E-04   -0.17436E-06  6304   0.746E-04    0.102E-03
DAV:  13    -0.332551009411E+04   -0.34152E-04   -0.78089E-07  5920   0.554E-04    0.660E-04
DAV:  14    -0.332551011298E+04   -0.18879E-04   -0.22044E-08  5632   0.367E-04    0.416E-04
DAV:  15    -0.332551012501E+04   -0.12023E-04    0.18402E-07  4960   0.269E-04    0.255E-04
DAV:  16    -0.332551013190E+04   -0.68896E-05    0.26144E-07  4704   0.193E-04    0.178E-04
DAV:  17    -0.332551013703E+04   -0.51359E-05    0.28021E-07  4608   0.166E-04    0.120E-04
DAV:  18    -0.332551013982E+04   -0.27856E-05    0.30935E-07  4608   0.125E-04    0.718E-05
DAV:  19    -0.332551014127E+04   -0.14534E-05    0.32537E-07  4288   0.881E-05    0.427E-05
DAV:  20    -0.332551014262E+04   -0.13467E-05    0.33152E-07  4288   0.800E-05    0.332E-05
DAV:  21    -0.332551014309E+04   -0.46857E-06    0.33688E-07  4352   0.471E-05
   2 F= -.33396915E+04 E0= -.33396915E+04  d E =0.235420E-01  mag=    -0.0000
 BRION: g(F)=  0.818E+00 g(S)=  0.000E+00 retain N=  1 mean eig= 0.18
 eig:   0.177
 bond charge predicted
       N       E                     dE             d eps       ncg     rms          rms(c)
DAV:   1    -0.332556497324E+04   -0.54831E-01   -0.44294E+00  7232   0.132E+00    0.418E-01
DAV:   2    -0.332558542564E+04   -0.20452E-01   -0.23613E-01  7808   0.239E-01    0.423E-01
DAV:   3    -0.332558413810E+04    0.12875E-02   -0.48525E-03  8768   0.451E-02    0.327E-01
DAV:   4    -0.332558154781E+04    0.25903E-02   -0.47415E-03  7680   0.414E-02    0.102E-01
DAV:   5    -0.332558134856E+04    0.19925E-03   -0.16182E-03  8000   0.214E-02    0.445E-02
DAV:   6    -0.332558139540E+04   -0.46831E-04   -0.19687E-04  7808   0.110E-02    0.160E-02
DAV:   7    -0.332558149575E+04   -0.10036E-03   -0.65643E-05  7872   0.478E-03    0.101E-02
DAV:   8    -0.332558161120E+04   -0.11544E-03   -0.14567E-05  6592   0.270E-03    0.485E-03
DAV:   9    -0.332558168600E+04   -0.74804E-04   -0.45800E-06  6464   0.146E-03    0.279E-03
DAV:  10    -0.332558180965E+04   -0.12365E-03   -0.10058E-05  6464   0.164E-03    0.143E-03
DAV:  11    -0.332558185665E+04   -0.47006E-04   -0.27558E-06  6592   0.861E-04    0.107E-03
DAV:  12    -0.332558188199E+04   -0.25334E-04   -0.34048E-07  5760   0.481E-04    0.862E-04
DAV:  13    -0.332558190429E+04   -0.22306E-04   -0.39871E-07  5760   0.424E-04    0.694E-04
DAV:  14    -0.332558191394E+04   -0.96487E-05    0.15608E-07  5504   0.265E-04    0.326E-04
DAV:  15    -0.332558192309E+04   -0.91481E-05    0.22345E-07  4736   0.221E-04    0.211E-04
DAV:  16    -0.332558192751E+04   -0.44227E-05    0.26824E-07  4800   0.170E-04    0.177E-04
DAV:  17    -0.332558192971E+04   -0.21989E-05    0.31592E-07  4512   0.108E-04    0.116E-04
DAV:  18    -0.332558193202E+04   -0.23113E-05    0.32097E-07  4448   0.116E-04    0.706E-05
DAV:  19    -0.332558193333E+04   -0.13048E-05    0.33188E-07  4320   0.853E-05    0.618E-05
DAV:  20    -0.332558193389E+04   -0.56485E-06    0.33814E-07  4320   0.511E-05
   3 F= -.33397632E+04 E0= -.33397632E+04  d E =-.717269E-01  mag=    -0.0000
 BRION: g(F)=  0.467E-01 g(S)=  0.000E+00 retain N=  1 mean eig= 0.16
 eig:   0.162
 bond charge predicted
       N       E                     dE             d eps       ncg     rms          rms(c)
DAV:   1    -0.332558963948E+04   -0.77062E-02   -0.41888E+00  7168   0.176E+00    0.478E-01
DAV:   2    -0.332560190322E+04   -0.12264E-01   -0.15881E-01  8192   0.274E-01    0.325E-01
DAV:   3    -0.332560073126E+04    0.11720E-02   -0.48166E-03  8192   0.631E-02    0.175E-01
DAV:   4    -0.332560045041E+04    0.28085E-03   -0.13715E-03  7872   0.336E-02    0.421E-02
DAV:   5    -0.332560042928E+04    0.21138E-04   -0.28258E-04  8320   0.150E-02    0.178E-02
DAV:   6    -0.332560041466E+04    0.14615E-04   -0.35803E-05  8192   0.709E-03    0.107E-02
DAV:   7    -0.332560042700E+04   -0.12338E-04   -0.17310E-05  7744   0.600E-03    0.555E-03
DAV:   8    -0.332560045457E+04   -0.27577E-04   -0.65571E-06  7040   0.375E-03    0.339E-03
DAV:   9    -0.332560048156E+04   -0.26984E-04   -0.24800E-06  6112   0.164E-03    0.241E-03
DAV:  10    -0.332560052983E+04   -0.48270E-04   -0.38165E-06  6336   0.179E-03    0.178E-03
DAV:  11    -0.332560054065E+04   -0.10824E-04   -0.93209E-07  6848   0.818E-04    0.103E-03
DAV:  12    -0.332560056604E+04   -0.25387E-04   -0.44752E-07  5632   0.824E-04    0.679E-04
DAV:  13    -0.332560058221E+04   -0.16170E-04   -0.40412E-07  6016   0.586E-04    0.405E-04
DAV:  14    -0.332560059071E+04   -0.84963E-05    0.22788E-07  4992   0.316E-04    0.298E-04
DAV:  15    -0.332560059565E+04   -0.49451E-05    0.27152E-07  4672   0.239E-04    0.151E-04
DAV:  16    -0.332560059858E+04   -0.29280E-05    0.29680E-07  4544   0.184E-04    0.102E-04
DAV:  17    -0.332560059994E+04   -0.13622E-05    0.32167E-07  4512   0.119E-04    0.748E-05
DAV:  18    -0.332560060131E+04   -0.13727E-05    0.33197E-07  4224   0.930E-05    0.385E-05
DAV:  19    -0.332560060197E+04   -0.65204E-06    0.33720E-07  4352   0.626E-05
   4 F= -.33397814E+04 E0= -.33397814E+04  d E =-.181255E-01  mag=    -0.0000
 BRION: g(F)=  0.138E+00 g(S)=  0.000E+00 retain N=  2 mean eig= 0.18
 eig:   0.180  0.180
 bond charge predicted
       N       E                     dE             d eps       ncg     rms          rms(c)
DAV:   1    -0.332561677461E+04   -0.16173E-01   -0.18038E+00  7168   0.105E+00    0.330E-01
DAV:   2    -0.332562091907E+04   -0.41445E-02   -0.63598E-02  8128   0.154E-01    0.185E-01
DAV:   3    -0.332562027062E+04    0.64845E-03   -0.25395E-03  7872   0.408E-02    0.955E-02
DAV:   4    -0.332562021017E+04    0.60446E-04   -0.10453E-03  7872   0.213E-02    0.285E-02
DAV:   5    -0.332562021760E+04   -0.74235E-05   -0.12867E-04  7680   0.841E-03    0.121E-02
DAV:   6    -0.332562022068E+04   -0.30801E-05   -0.14785E-05  7296   0.342E-03    0.720E-03
DAV:   7    -0.332562023095E+04   -0.10272E-04   -0.91370E-06  7200   0.348E-03    0.417E-03
DAV:   8    -0.332562023834E+04   -0.73883E-05   -0.21729E-06  6080   0.124E-03    0.229E-03
DAV:   9    -0.332562024742E+04   -0.90849E-05   -0.46871E-07  5792   0.615E-04    0.126E-03
DAV:  10    -0.332562026033E+04   -0.12908E-04   -0.49515E-07  5824   0.774E-04    0.123E-03
DAV:  11    -0.332562027349E+04   -0.13159E-04   -0.87581E-07  6144   0.929E-04    0.638E-04
DAV:  12    -0.332562028052E+04   -0.70279E-05   -0.93796E-08  5632   0.422E-04    0.440E-04
DAV:  13    -0.332562028423E+04   -0.37075E-05    0.23166E-07  4960   0.212E-04    0.307E-04
DAV:  14    -0.332562028821E+04   -0.39885E-05    0.20193E-07  5120   0.229E-04    0.218E-04
DAV:  15    -0.332562028936E+04   -0.11459E-05    0.31350E-07  4544   0.135E-04    0.186E-04
DAV:  16    -0.332562029008E+04   -0.72399E-06    0.32491E-07  4320   0.955E-05
   5 F= -.33398006E+04 E0= -.33398006E+04  d E =-.192277E-01  mag=    -0.0000
 BRION: g(F)=  0.254E-01 g(S)=  0.000E+00 retain N=  1 mean eig= 0.23
 eig:   0.227
 bond charge predicted
       N       E                     dE             d eps       ncg     rms          rms(c)
DAV:   1    -0.332563676253E+04   -0.16473E-01   -0.21426E+00  7232   0.136E+00    0.291E-01
DAV:   2    -0.332564188114E+04   -0.51186E-02   -0.63518E-02  7872   0.189E-01    0.195E-01
DAV:   3    -0.332564163611E+04    0.24503E-03   -0.15908E-03  8512   0.403E-02    0.111E-01
DAV:   4    -0.332564165409E+04   -0.17976E-04   -0.60617E-04  7680   0.253E-02    0.269E-02
DAV:   5    -0.332564165042E+04    0.36653E-05   -0.14980E-04  8128   0.128E-02    0.118E-02
DAV:   6    -0.332564164876E+04    0.16615E-05   -0.16894E-05  7808   0.386E-03    0.774E-03
DAV:   7    -0.332564164976E+04   -0.99838E-06   -0.40603E-06  6656   0.220E-03
   6 F= -.33398211E+04 E0= -.33398211E+04  d E =-.204930E-01  mag=     0.0000
 BRION: g(F)=  0.290E-01 g(S)=  0.000E+00 retain N=  2 mean eig= 0.20
 eig:   0.204  0.204
 bond charge predicted
       N       E                     dE             d eps       ncg     rms          rms(c)
DAV:   1    -0.332564820351E+04   -0.65548E-02   -0.38577E-01  7296   0.670E-01    0.121E-01
DAV:   2    -0.332564906655E+04   -0.86304E-03   -0.11621E-02  8256   0.988E-02    0.905E-02
DAV:   3    -0.332564898272E+04    0.83839E-04   -0.42826E-04  8448   0.223E-02    0.506E-02
DAV:   4    -0.332564895941E+04    0.23304E-04   -0.91999E-05  7776   0.119E-02    0.126E-02
DAV:   5    -0.332564896241E+04   -0.29996E-05   -0.24106E-05  8640   0.570E-03    0.466E-03
DAV:   6    -0.332564896492E+04   -0.25071E-05   -0.26265E-06  6336   0.201E-03    0.281E-03
DAV:   7    -0.332564897020E+04   -0.52847E-05   -0.38313E-07  5728   0.129E-03    0.132E-03
DAV:   8    -0.332564897626E+04   -0.60551E-05   -0.24704E-07  5824   0.101E-03    0.819E-04
DAV:   9    -0.332564898321E+04   -0.69463E-05   -0.62987E-08  5568   0.661E-04    0.563E-04
DAV:  10    -0.332564898990E+04   -0.66903E-05    0.52831E-08  5312   0.483E-04    0.307E-04
DAV:  11    -0.332564899274E+04   -0.28422E-05    0.20175E-07  4992   0.314E-04    0.222E-04
DAV:  12    -0.332564899553E+04   -0.27944E-05    0.25840E-07  4864   0.248E-04    0.122E-04
DAV:  13    -0.332564899664E+04   -0.11073E-05    0.29900E-07  4480   0.165E-04    0.909E-05
DAV:  14    -0.332564899756E+04   -0.91840E-06    0.32354E-07  4352   0.102E-04
   7 F= -.33398281E+04 E0= -.33398281E+04  d E =-.704944E-02  mag=    -0.0000
 BRION: g(F)=  0.239E-01 g(S)=  0.000E+00 retain N=  2 mean eig= 3.78
 eig:   0.149  7.421
 bond charge predicted
       N       E                     dE             d eps       ncg     rms          rms(c)
DAV:   1    -0.332566284373E+04   -0.13847E-01   -0.64268E+00  7168   0.225E+00    0.499E-01
DAV:   2    -0.332567871626E+04   -0.15873E-01   -0.19401E-01  7936   0.305E-01    0.318E-01
DAV:   3    -0.332567797563E+04    0.74063E-03   -0.45371E-03  8576   0.627E-02    0.187E-01
DAV:   4    -0.332567808193E+04   -0.10630E-03   -0.23244E-03  7744   0.427E-02    0.530E-02
DAV:   5    -0.332567807679E+04    0.51407E-05   -0.52460E-04  7872   0.214E-02    0.220E-02
DAV:   6    -0.332567807524E+04    0.15440E-05   -0.55683E-05  8128   0.625E-03    0.140E-02
DAV:   7    -0.332567807642E+04   -0.11813E-05   -0.12770E-05  7104   0.364E-03    0.442E-03
DAV:   8    -0.332567808192E+04   -0.55010E-05   -0.19194E-06  6592   0.158E-03    0.263E-03
DAV:   9    -0.332567809036E+04   -0.84380E-05   -0.34401E-07  5792   0.107E-03    0.123E-03
DAV:  10    -0.332567809882E+04   -0.84580E-05   -0.18227E-07  6080   0.668E-04    0.861E-04
DAV:  11    -0.332567810898E+04   -0.10159E-04   -0.12021E-07  5568   0.612E-04    0.458E-04
DAV:  12    -0.332567811520E+04   -0.62215E-05   -0.42745E-08  5632   0.491E-04    0.283E-04
DAV:  13    -0.332567811843E+04   -0.32274E-05    0.20264E-07  4960   0.336E-04    0.234E-04
DAV:  14    -0.332567812030E+04   -0.18732E-05    0.28421E-07  4672   0.217E-04    0.156E-04
DAV:  15    -0.332567812283E+04   -0.25287E-05    0.28615E-07  4800   0.163E-04    0.119E-04
DAV:  16    -0.332567812371E+04   -0.88278E-06    0.32482E-07  4480   0.924E-05
   8 F= -.33398555E+04 E0= -.33398555E+04  d E =-.273978E-01  mag=     0.0000
 BRION: g(F)=  0.307E-01 g(S)=  0.000E+00 retain N=  2 mean eig= 0.23
 eig:   0.146  0.305
 bond charge predicted
       N       E                     dE             d eps       ncg     rms          rms(c)
DAV:   1    -0.332566863044E+04    0.94924E-02   -0.10867E+00  7168   0.916E-01    0.223E-01
DAV:   2    -0.332567118451E+04   -0.25541E-02   -0.34678E-02  8192   0.132E-01    0.141E-01
DAV:   3    -0.332567092628E+04    0.25823E-03   -0.11859E-03  8192   0.327E-02    0.789E-02
DAV:   4    -0.332567089979E+04    0.26488E-04   -0.53117E-04  7744   0.186E-02    0.228E-02
DAV:   5    -0.332567090958E+04   -0.97835E-05   -0.91073E-05  8128   0.804E-03    0.984E-03
DAV:   6    -0.332567090979E+04   -0.21420E-06   -0.82805E-06  6848   0.248E-03
   9 F= -.33398489E+04 E0= -.33398489E+04  d E =0.664469E-02  mag=    -0.0000
 BRION: g(F)=  0.211E-01 g(S)=  0.000E+00 retain N=  2 mean eig= 1.35
 eig:   0.185  2.521
 bond charge predicted
       N       E                     dE             d eps       ncg     rms          rms(c)
DAV:   1    -0.332568199110E+04   -0.11082E-01   -0.20845E+00  7168   0.128E+00    0.275E-01
DAV:   2    -0.332568725431E+04   -0.52632E-02   -0.63056E-02  7872   0.176E-01    0.180E-01
DAV:   3    -0.332568700885E+04    0.24546E-03   -0.14086E-03  8512   0.356E-02    0.109E-01
DAV:   4    -0.332568703269E+04   -0.23845E-04   -0.79458E-04  7648   0.251E-02    0.305E-02
DAV:   5    -0.332568703190E+04    0.79686E-06   -0.17204E-04  7872   0.124E-02    0.131E-02
DAV:   6    -0.332568703105E+04    0.84995E-06   -0.18767E-05  7744   0.385E-03    0.798E-03
DAV:   7    -0.332568703078E+04    0.26752E-06   -0.37397E-06  6336   0.216E-03
  10 F= -.33398640E+04 E0= -.33398640E+04  d E =-.150870E-01  mag=    -0.0000
 BRION: g(F)=  0.178E-01 g(S)=  0.000E+00 retain N=  2 mean eig= 0.69
 eig:   0.198  1.172
 bond charge predicted
       N       E                     dE             d eps       ncg     rms          rms(c)
DAV:   1    -0.332569162667E+04   -0.45956E-02   -0.29141E-01  7168   0.515E-01    0.101E-01
DAV:   2    -0.332569240683E+04   -0.78016E-03   -0.94760E-03  7872   0.748E-02    0.745E-02
DAV:   3    -0.332569236042E+04    0.46410E-04   -0.25016E-04  8192   0.159E-02    0.463E-02
DAV:   4    -0.332569234495E+04    0.15474E-04   -0.10338E-04  7712   0.103E-02    0.126E-02
DAV:   5    -0.332569234759E+04   -0.26452E-05   -0.24996E-05  7936   0.489E-03    0.542E-03
DAV:   6    -0.332569234858E+04   -0.98732E-06   -0.31846E-06  6048   0.182E-03
  11 F= -.33398689E+04 E0= -.33398689E+04  d E =-.496736E-02  mag=    -0.0000
 BRION: g(F)=  0.134E-01 g(S)=  0.000E+00 retain N=  2 mean eig= 2.06
 eig:   0.116  4.008
 bond charge predicted
       N       E                     dE             d eps       ncg     rms          rms(c)
DAV:   1    -0.332570081552E+04   -0.84679E-02   -0.18760E+00  7168   0.117E+00    0.250E-01
DAV:   2    -0.332570582266E+04   -0.50071E-02   -0.57634E-02  7712   0.162E-01    0.173E-01
DAV:   3    -0.332570561487E+04    0.20779E-03   -0.10947E-03  8512   0.315E-02    0.106E-01
DAV:   4    -0.332570561393E+04    0.94029E-06   -0.62565E-04  7680   0.233E-02    0.251E-02
DAV:   5    -0.332570561291E+04    0.10163E-05   -0.12774E-04  7808   0.109E-02    0.119E-02
DAV:   6    -0.332570561239E+04    0.52061E-06   -0.13304E-05  7808   0.355E-03    0.717E-03
DAV:   7    -0.332570561514E+04   -0.27532E-05   -0.29533E-06  6208   0.232E-03    0.282E-03
DAV:   8    -0.332570561901E+04   -0.38623E-05   -0.11562E-06  6464   0.141E-03    0.143E-03
DAV:   9    -0.332570562418E+04   -0.51782E-05   -0.71279E-08  5824   0.719E-04    0.100E-03
DAV:  10    -0.332570563217E+04   -0.79890E-05   -0.48682E-08  5568   0.624E-04    0.548E-04
DAV:  11    -0.332570563833E+04   -0.61567E-05   -0.13981E-08  5632   0.531E-04    0.360E-04
DAV:  12    -0.332570564302E+04   -0.46931E-05    0.10466E-07  5312   0.448E-04    0.235E-04
DAV:  13    -0.332570564481E+04   -0.17852E-05    0.26297E-07  4928   0.256E-04    0.225E-04
DAV:  14    -0.332570564573E+04   -0.92131E-06    0.31271E-07  4288   0.154E-04
  12 F= -.33398812E+04 E0= -.33398812E+04  d E =-.122404E-01  mag=    -0.0000
 BRION: g(F)=  0.163E-01 g(S)=  0.000E+00 retain N=  3 mean eig= 2.71
 eig:   7.387  0.162  0.592
 bond charge predicted
       N       E                     dE             d eps       ncg     rms          rms(c)
DAV:   1    -0.332571217401E+04   -0.65292E-02   -0.14184E+00  7168   0.101E+00    0.215E-01
DAV:   2    -0.332571611469E+04   -0.39407E-02   -0.45253E-02  7680   0.141E-01    0.155E-01
DAV:   3    -0.332571593282E+04    0.18187E-03   -0.92158E-04  8448   0.283E-02    0.967E-02
DAV:   4    -0.332571588891E+04    0.43918E-04   -0.49770E-04  7808   0.205E-02    0.246E-02
DAV:   5    -0.332571589392E+04   -0.50146E-05   -0.10504E-04  7872   0.930E-03    0.127E-02
DAV:   6    -0.332571589226E+04    0.16582E-05   -0.16557E-05  6976   0.403E-03    0.705E-03
DAV:   7    -0.332571589393E+04   -0.16667E-05   -0.36086E-06  6560   0.195E-03    0.362E-03
DAV:   8    -0.332571589750E+04   -0.35689E-05   -0.50769E-07  5728   0.999E-04    0.157E-03
DAV:   9    -0.332571590091E+04   -0.34090E-05   -0.76793E-08  5760   0.732E-04    0.929E-04
DAV:  10    -0.332571590670E+04   -0.57957E-05    0.23623E-08  5376   0.524E-04    0.565E-04
DAV:  11    -0.332571591256E+04   -0.58587E-05   -0.17408E-09  5504   0.459E-04    0.315E-04
DAV:  12    -0.332571591658E+04   -0.40204E-05    0.10959E-07  5120   0.430E-04    0.219E-04
DAV:  13    -0.332571591858E+04   -0.19979E-05    0.24490E-07  4864   0.306E-04    0.169E-04
DAV:  14    -0.332571592048E+04   -0.19034E-05    0.29494E-07  4480   0.152E-04    0.887E-05
DAV:  15    -0.332571592172E+04   -0.12326E-05    0.31649E-07  4416   0.970E-05    0.773E-05
DAV:  16    -0.332571592268E+04   -0.96206E-06    0.32860E-07  4544   0.761E-05
  13 F= -.33398906E+04 E0= -.33398906E+04  d E =-.936770E-02  mag=    -0.0000
 BRION: g(F)=  0.200E-01 g(S)=  0.000E+00 retain N=  2 mean eig= 1.91
 eig:   0.080  3.747
 bond charge predicted
       N       E                     dE             d eps       ncg     rms          rms(c)
DAV:   1    -0.332571246544E+04    0.34563E-02   -0.31793E-01  7232   0.476E-01    0.128E-01
DAV:   2    -0.332571352702E+04   -0.10616E-02   -0.13966E-02  8064   0.770E-02    0.995E-02
DAV:   3    -0.332571340185E+04    0.12517E-03   -0.44286E-04  8000   0.182E-02    0.598E-02
DAV:   4    -0.332571332536E+04    0.76495E-04   -0.15840E-04  7616   0.107E-02    0.240E-02
DAV:   5    -0.332571331599E+04    0.93613E-05   -0.62840E-05  7936   0.585E-03    0.712E-03
DAV:   6    -0.332571331805E+04   -0.20586E-05   -0.76261E-06  6208   0.221E-03    0.407E-03
DAV:   7    -0.332571332184E+04   -0.37908E-05   -0.13503E-06  6720   0.141E-03    0.206E-03
DAV:   8    -0.332571332899E+04   -0.71432E-05   -0.64998E-07  5888   0.111E-03    0.123E-03
DAV:   9    -0.332571333254E+04   -0.35502E-05   -0.13648E-08  5760   0.466E-04    0.923E-04
DAV:  10    -0.332571334048E+04   -0.79437E-05   -0.21594E-07  5696   0.385E-04    0.650E-04
DAV:  11    -0.332571334380E+04   -0.33210E-05    0.19215E-07  5184   0.299E-04    0.474E-04
DAV:  12    -0.332571334942E+04   -0.56180E-05    0.21346E-08  5312   0.365E-04    0.188E-04
DAV:  13    -0.332571335225E+04   -0.28352E-05    0.20922E-07  5120   0.218E-04    0.180E-04
DAV:  14    -0.332571335364E+04   -0.13896E-05    0.30372E-07  4416   0.123E-04    0.123E-04
DAV:  15    -0.332571335472E+04   -0.10727E-05    0.30930E-07  4608   0.109E-04    0.553E-05
DAV:  16    -0.332571335543E+04   -0.71654E-06    0.31977E-07  4352   0.817E-05
  14 F= -.33398881E+04 E0= -.33398881E+04  d E =0.241636E-02  mag=    -0.0000
 BRION: g(F)=  0.224E-01 g(S)=  0.000E+00 retain N=  2 mean eig= 1.10
 eig:   0.191  2.007
 bond charge predicted
       N       E                     dE             d eps       ncg     rms          rms(c)
DAV:   1    -0.332571943613E+04   -0.60814E-02   -0.76654E-01  7168   0.793E-01    0.160E-01
DAV:   2    -0.332572152169E+04   -0.20856E-02   -0.24618E-02  7744   0.114E-01    0.117E-01
DAV:   3    -0.332572141045E+04    0.11124E-03   -0.57412E-04  8480   0.234E-02    0.718E-02
DAV:   4    -0.332572137987E+04    0.30572E-04   -0.21910E-04  7680   0.157E-02    0.167E-02
DAV:   5    -0.332572138374E+04   -0.38618E-05   -0.54798E-05  7872   0.708E-03    0.769E-03
DAV:   6    -0.332572138260E+04    0.11328E-05   -0.54387E-06  6656   0.262E-03    0.453E-03
DAV:   7    -0.332572138326E+04   -0.65472E-06   -0.17782E-06  6368   0.161E-03
  15 F= -.33398955E+04 E0= -.33398955E+04  d E =-.737797E-02  mag=    -0.0000
 BRION: g(F)=  0.146E-01 g(S)=  0.000E+00 retain N=  3 mean eig= 2.36
 eig:   6.610  0.212  0.271
 bond charge predicted
       N       E                     dE             d eps       ncg     rms          rms(c)
DAV:   1    -0.332572399412E+04   -0.26115E-02   -0.12783E-01  7296   0.358E-01    0.657E-02
DAV:   2    -0.332572434533E+04   -0.35122E-03   -0.43056E-03  8096   0.532E-02    0.533E-02
DAV:   3    -0.332572432046E+04    0.24871E-04   -0.12180E-04  8384   0.113E-02    0.342E-02
DAV:   4    -0.332572430881E+04    0.11656E-04   -0.45808E-05  7360   0.723E-03    0.955E-03
DAV:   5    -0.332572431050E+04   -0.16970E-05   -0.13492E-05  7808   0.364E-03    0.348E-03
DAV:   6    -0.332572431148E+04   -0.97486E-06   -0.13075E-06  5952   0.148E-03
  16 F= -.33398982E+04 E0= -.33398982E+04  d E =-.269820E-02  mag=    -0.0000
 BRION: g(F)=  0.862E-02 g(S)=  0.000E+00 retain N=  3 mean eig= 2.48
 eig:   7.197  0.112  0.142
 bond charge predicted
       N       E                     dE             d eps       ncg     rms          rms(c)
DAV:   1    -0.332572912635E+04   -0.48158E-02   -0.64701E-01  7168   0.652E-01    0.141E-01
DAV:   2    -0.332573079493E+04   -0.16686E-02   -0.18991E-02  7744   0.886E-02    0.937E-02
DAV:   3    -0.332573072967E+04    0.65259E-04   -0.33331E-04  8544   0.166E-02    0.585E-02
DAV:   4    -0.332573074057E+04   -0.10901E-04   -0.22818E-04  7616   0.132E-02    0.162E-02
DAV:   5    -0.332573074040E+04    0.17125E-06   -0.48917E-05  7808   0.617E-03    0.789E-03
DAV:   6    -0.332573074059E+04   -0.19104E-06   -0.62589E-06  6816   0.219E-03
  17 F= -.33399040E+04 E0= -.33399040E+04  d E =-.577835E-02  mag=    -0.0000
 BRION: g(F)=  0.779E-02 g(S)=  0.000E+00 retain N=  3 mean eig= 1.21
 eig:   2.953  0.219  0.449
 bond charge predicted
       N       E                     dE             d eps       ncg     rms          rms(c)
DAV:   1    -0.332573526412E+04   -0.45237E-02   -0.73338E-01  7168   0.688E-01    0.150E-01
DAV:   2    -0.332573716093E+04   -0.18968E-02   -0.21643E-02  7680   0.939E-02    0.101E-01
DAV:   3    -0.332573708332E+04    0.77609E-04   -0.38878E-04  8576   0.180E-02    0.630E-02
DAV:   4    -0.332573709445E+04   -0.11127E-04   -0.26611E-04  7616   0.137E-02    0.169E-02
DAV:   5    -0.332573709575E+04   -0.13001E-05   -0.55187E-05  7808   0.644E-03    0.813E-03
DAV:   6    -0.332573709626E+04   -0.51875E-06   -0.57676E-06  6848   0.212E-03
 soft stop encountered!  aborting job ...
  18 F= -.33399097E+04 E0= -.33399097E+04  d E =-.566071E-02  mag=    -0.0000
 BRION: g(F)=  0.854E-02 g(S)=  0.000E+00 retain N=  2 mean eig= 1.86
 eig:   0.149  3.579
 deleting file STOPCAR
 PROFILE, used timers:     329
