 running  128 mpi-ranks, with    1 threads/rank, on    7 nodes
 distrk:  each k-point on   64 cores,    2 groups
 distr:  one band on    2 cores,   32 groups
 vasp.6.4.1 05Apr23 (build May 18 2023 13:19:41) complex                         
 POSCAR found type information on POSCAR C S O 
 POSCAR found :  3 types and     367 ions
 Reading from existing POTCAR
 scaLAPACK will be used
 Reading from existing POTCAR
 -----------------------------------------------------------------------------
|                                                                             |
|               ----> ADVICE to this user running VASP <----                  |
|                                                                             |
|     You have a (more or less) 'large supercell' and for larger cells it     |
|     might be more efficient to use real-space projection operators.         |
|     Therefore, try LREAL= Auto in the INCAR file.                           |
|     Mind: If you want to do very accurate calculations, keep the            |
|     reciprocal projection scheme (i.e. LREAL=.FALSE.).                      |
|                                                                             |
 -----------------------------------------------------------------------------

 LDA part: xc-table for Pade appr. of Perdew
 POSCAR, INCAR and KPOINTS ok, starting setup
 FFT: planning ... GRIDC
 FFT: planning ... GRID_SOFT
 FFT: planning ... GRID
 WAVECAR not read
 charge-density read from file: 01_AOPT                                 
 WARNING: random wavefunctions but no delay for mixing, default for NELMDL
 entering main loop
       N       E                     dE             d eps       ncg     rms          rms(c)
DAV:   1     0.113442840463E+05    0.11344E+05   -0.41746E+05  4288   0.938E+02
DAV:   2     0.408537998897E+03   -0.10936E+05   -0.10178E+05  5568   0.213E+02
DAV:   3    -0.301801682152E+04   -0.34266E+04   -0.32753E+04  4608   0.116E+02
DAV:   4    -0.331408171579E+04   -0.29606E+03   -0.28622E+03  4480   0.388E+01
DAV:   5    -0.332558750518E+04   -0.11506E+02   -0.11250E+02  5120   0.684E+00    0.128E-01
DAV:   6    -0.332587457843E+04   -0.28707E+00   -0.28252E+00  4736   0.108E+00    0.669E-02
DAV:   7    -0.332588892232E+04   -0.14344E-01   -0.14371E-01  4992   0.218E-01    0.466E-02
DAV:   8    -0.332588922163E+04   -0.29931E-03   -0.34482E-03  4768   0.401E-02    0.357E-02
DAV:   9    -0.332588921060E+04    0.11033E-04   -0.20897E-04  4640   0.940E-03    0.271E-02
DAV:  10    -0.332588918391E+04    0.26689E-04   -0.16713E-05  4064   0.461E-03    0.166E-02
DAV:  11    -0.332588916701E+04    0.16899E-04   -0.85046E-06  4192   0.329E-03    0.856E-03
DAV:  12    -0.332588915724E+04    0.97727E-05   -0.11982E-06  3136   0.147E-03    0.491E-03
DAV:  13    -0.332588914830E+04    0.89377E-05   -0.12347E-06  3168   0.148E-03    0.117E-03
DAV:  14    -0.332588914647E+04    0.18316E-05   -0.13434E-07  2432   0.734E-04    0.450E-04
DAV:  15    -0.332588914614E+04    0.33271E-06    0.22843E-07  2496   0.375E-04
   1 F= -.33400190E+04 E0= -.33400190E+04  d E =-.334002E+04
 BRION: g(F)=  0.292E-02 g(S)=  0.000E+00
 bond charge predicted
       N       E                     dE             d eps       ncg     rms          rms(c)
DAV:   1    -0.332589087391E+04   -0.17274E-02   -0.35948E-01  4000   0.658E-01    0.990E-02
DAV:   2    -0.332589114383E+04   -0.26992E-03   -0.50288E-03  4224   0.762E-02    0.726E-02
DAV:   3    -0.332589107515E+04    0.68677E-04   -0.57515E-04  4128   0.295E-02    0.187E-02
DAV:   4    -0.332589107655E+04   -0.13957E-05   -0.13540E-04  4064   0.120E-02    0.871E-03
DAV:   5    -0.332589107737E+04   -0.82445E-06   -0.15036E-05  4448   0.415E-03    0.319E-03
DAV:   6    -0.332589107741E+04   -0.33644E-07   -0.12305E-06  2688   0.147E-03
   2 F= -.33400209E+04 E0= -.33400209E+04  d E =-.189560E-02
 BRION: g(F)=  0.555E-02 g(S)=  0.000E+00 retain N=  1 mean eig= 0.23
 eig:   0.234
 bond charge predicted
       N       E                     dE             d eps       ncg     rms          rms(c)
DAV:   1    -0.332589190121E+04   -0.82384E-03   -0.66311E-02  3904   0.304E-01    0.497E-02
DAV:   2    -0.332589195294E+04   -0.51729E-04   -0.13971E-03  4256   0.424E-02    0.373E-02
DAV:   3    -0.332589193045E+04    0.22496E-04   -0.18358E-04  4256   0.153E-02    0.146E-02
DAV:   4    -0.332589192994E+04    0.50827E-06   -0.41225E-05  4192   0.670E-03    0.877E-03
DAV:   5    -0.332589192895E+04    0.98732E-06   -0.57671E-06  3840   0.332E-03
   3 F= -.33400218E+04 E0= -.33400218E+04  d E =-.850835E-03
 BRION: g(F)=  0.239E-02 g(S)=  0.000E+00 retain N=  1 mean eig= 0.22
 eig:   0.222
 bond charge predicted
       N       E                     dE             d eps       ncg     rms          rms(c)
DAV:   1    -0.332589317320E+04   -0.12433E-02   -0.17581E-01  3872   0.466E-01    0.683E-02
DAV:   2    -0.332589331495E+04   -0.14175E-03   -0.24994E-03  4288   0.536E-02    0.503E-02
DAV:   3    -0.332589328287E+04    0.32080E-04   -0.22096E-04  4064   0.186E-02    0.111E-02
DAV:   4    -0.332589328584E+04   -0.29650E-05   -0.51671E-05  3936   0.725E-03    0.528E-03
DAV:   5    -0.332589328638E+04   -0.53959E-06   -0.37983E-06  3904   0.236E-03
   4 F= -.33400231E+04 E0= -.33400231E+04  d E =-.134210E-02
 BRION: g(F)=  0.213E-02 g(S)=  0.000E+00 retain N=  2 mean eig= 0.55
 eig:   0.158  0.941
 bond charge predicted
       N       E                     dE             d eps       ncg     rms          rms(c)
DAV:   1    -0.332589379206E+04   -0.50622E-03   -0.37361E-02  3776   0.224E-01    0.345E-02
DAV:   2    -0.332589382668E+04   -0.34618E-04   -0.69505E-04  4256   0.293E-02    0.266E-02
DAV:   3    -0.332589381606E+04    0.10620E-04   -0.77537E-05  4224   0.106E-02    0.906E-03
DAV:   4    -0.332589381600E+04    0.55297E-07   -0.15595E-05  4192   0.428E-03    0.422E-03
DAV:   5    -0.332589381627E+04   -0.26997E-06   -0.11458E-06  2656   0.153E-03
   5 F= -.33400237E+04 E0= -.33400237E+04  d E =-.536907E-03
 BRION: g(F)=  0.152E-02 g(S)=  0.000E+00 retain N=  2 mean eig= 1.07
 eig:   0.254  1.890
 bond charge predicted
       N       E                     dE             d eps       ncg     rms          rms(c)
DAV:   1    -0.332589475094E+04   -0.93494E-03   -0.13003E-01  3808   0.403E-01    0.591E-02
DAV:   2    -0.332589486022E+04   -0.10928E-03   -0.19180E-03  4192   0.468E-02    0.438E-02
DAV:   3    -0.332589483666E+04    0.23566E-04   -0.15603E-04  4000   0.158E-02    0.105E-02
DAV:   4    -0.332589483903E+04   -0.23722E-05   -0.36829E-05  3936   0.616E-03    0.459E-03
DAV:   5    -0.332589483940E+04   -0.36857E-06   -0.24741E-06  3328   0.197E-03
   6 F= -.33400247E+04 E0= -.33400247E+04  d E =-.102267E-02
 BRION: g(F)=  0.150E-02 g(S)=  0.000E+00 retain N=  2 mean eig= 0.25
 eig:   0.179  0.328
 bond charge predicted
       N       E                     dE             d eps       ncg     rms          rms(c)
DAV:   1    -0.332589516244E+04   -0.32341E-03   -0.20477E-02  3744   0.167E-01    0.242E-02
DAV:   2    -0.332589518397E+04   -0.21533E-04   -0.38223E-04  4256   0.217E-02    0.191E-02
DAV:   3    -0.332589517884E+04    0.51378E-05   -0.38061E-05  4256   0.723E-03    0.751E-03
DAV:   4    -0.332589517880E+04    0.34459E-07   -0.59687E-06  4064   0.273E-03
   7 F= -.33400250E+04 E0= -.33400250E+04  d E =-.336750E-03
 BRION: g(F)=  0.124E-02 g(S)=  0.000E+00 retain N=  2 mean eig= 1.28
 eig:   0.227  2.335
 bond charge predicted
       N       E                     dE             d eps       ncg     rms          rms(c)
DAV:   1    -0.332589589837E+04   -0.71953E-03   -0.88291E-02  3712   0.333E-01    0.493E-02
DAV:   2    -0.332589597417E+04   -0.75798E-04   -0.13317E-03  4064   0.388E-02    0.364E-02
DAV:   3    -0.332589595774E+04    0.16426E-04   -0.96765E-05  3968   0.125E-02    0.867E-03
DAV:   4    -0.332589595968E+04   -0.19354E-05   -0.23011E-05  3872   0.472E-03    0.363E-03
DAV:   5    -0.332589595994E+04   -0.26391E-06   -0.10372E-06  2560   0.144E-03
   8 F= -.33400258E+04 E0= -.33400258E+04  d E =-.785005E-03
 BRION: g(F)=  0.114E-02 g(S)=  0.000E+00 retain N=  2 mean eig= 0.84
 eig:   0.178  1.503
 bond charge predicted
       N       E                     dE             d eps       ncg     rms          rms(c)
DAV:   1    -0.332589628743E+04   -0.32775E-03   -0.21397E-02  3648   0.168E-01    0.238E-02
DAV:   2    -0.332589631162E+04   -0.24196E-04   -0.37866E-04  4256   0.210E-02    0.187E-02
DAV:   3    -0.332589630706E+04    0.45634E-05   -0.27105E-05  4096   0.637E-03    0.697E-03
DAV:   4    -0.332589630721E+04   -0.15285E-06   -0.49172E-06  3552   0.250E-03
   9 F= -.33400262E+04 E0= -.33400262E+04  d E =-.345537E-03
 BRION: g(F)=  0.990E-03 g(S)=  0.000E+00 retain N=  2 mean eig= 1.15
 eig:   0.159  2.133
 bond charge predicted
       N       E                     dE             d eps       ncg     rms          rms(c)
DAV:   1    -0.332589696090E+04   -0.65384E-03   -0.92937E-02  3648   0.342E-01    0.496E-02
DAV:   2    -0.332589705195E+04   -0.91047E-04   -0.14589E-03  4032   0.404E-02    0.374E-02
DAV:   3    -0.332589703448E+04    0.17466E-04   -0.96185E-05  4000   0.125E-02    0.956E-03
DAV:   4    -0.332589703704E+04   -0.25559E-05   -0.24022E-05  3936   0.479E-03    0.373E-03
DAV:   5    -0.332589703716E+04   -0.12293E-06   -0.11663E-06  2624   0.163E-03
  10 F= -.33400269E+04 E0= -.33400269E+04  d E =-.732380E-03
 BRION: g(F)=  0.982E-03 g(S)=  0.000E+00 retain N=  2 mean eig= 0.30
 eig:   0.152  0.457
 bond charge predicted
       N       E                     dE             d eps       ncg     rms          rms(c)
DAV:   1    -0.332589719596E+04   -0.15892E-03   -0.84979E-03  3648   0.109E-01    0.162E-02
DAV:   2    -0.332589720586E+04   -0.98933E-05   -0.18045E-04  4288   0.149E-02    0.129E-02
DAV:   3    -0.332589720354E+04    0.23189E-05   -0.16603E-05  4224   0.474E-03    0.544E-03
DAV:   4    -0.332589720349E+04    0.48312E-07   -0.22295E-06  3104   0.176E-03
  11 F= -.33400271E+04 E0= -.33400271E+04  d E =-.167285E-03
 BRION: g(F)=  0.855E-03 g(S)=  0.000E+00 retain N=  2 mean eig= 0.80
 eig:   0.179  1.412
 bond charge predicted
       N       E                     dE             d eps       ncg     rms          rms(c)
DAV:   1    -0.332589775177E+04   -0.54823E-03   -0.69404E-02  3648   0.296E-01    0.420E-02
DAV:   2    -0.332589782161E+04   -0.69839E-04   -0.10819E-03  4064   0.346E-02    0.319E-02
DAV:   3    -0.332589780920E+04    0.12410E-04   -0.66069E-05  4000   0.104E-02    0.892E-03
DAV:   4    -0.332589781114E+04   -0.19391E-05   -0.17176E-05  4128   0.416E-03    0.328E-03
DAV:   5    -0.332589781112E+04    0.20373E-07   -0.81551E-07  2784   0.149E-03
  12 F= -.33400277E+04 E0= -.33400277E+04  d E =-.605089E-03
 BRION: g(F)=  0.769E-03 g(S)=  0.000E+00 retain N=  2 mean eig= 0.76
 eig:   0.185  1.337
 bond charge predicted
       N       E                     dE             d eps       ncg     rms          rms(c)
DAV:   1    -0.332589804254E+04   -0.23140E-03   -0.14519E-02  3648   0.138E-01    0.202E-02
DAV:   2    -0.332589805917E+04   -0.16628E-04   -0.26712E-04  3968   0.174E-02    0.156E-02
DAV:   3    -0.332589805600E+04    0.31726E-05   -0.17301E-05  4096   0.508E-03    0.570E-03
DAV:   4    -0.332589805614E+04   -0.14785E-06   -0.29941E-06  3104   0.194E-03
  13 F= -.33400279E+04 E0= -.33400279E+04  d E =-.246930E-03
 BRION: g(F)=  0.727E-03 g(S)=  0.000E+00 retain N=  2 mean eig= 1.27
 eig:   0.155  2.384
 bond charge predicted
       N       E                     dE             d eps       ncg     rms          rms(c)
DAV:   1    -0.332589859501E+04   -0.53902E-03   -0.84152E-02  3648   0.326E-01    0.465E-02
DAV:   2    -0.332589868420E+04   -0.89185E-04   -0.13601E-03  3936   0.385E-02    0.355E-02
DAV:   3    -0.332589866959E+04    0.14605E-04   -0.74229E-05  4096   0.111E-02    0.119E-02
DAV:   4    -0.332589867166E+04   -0.20646E-05   -0.21833E-05  4160   0.492E-03    0.411E-03
DAV:   5    -0.332589867153E+04    0.12282E-06   -0.14862E-06  3072   0.173E-03
  14 F= -.33400285E+04 E0= -.33400285E+04  d E =-.612803E-03
 BRION: g(F)=  0.733E-03 g(S)=  0.000E+00 retain N=  2 mean eig= 0.39
 eig:   0.117  0.655
 bond charge predicted
       N       E                     dE             d eps       ncg     rms          rms(c)
DAV:   1    -0.332589871358E+04   -0.41925E-04   -0.37424E-03  3712   0.728E-02    0.114E-02
DAV:   2    -0.332589872006E+04   -0.64741E-05   -0.10534E-04  4160   0.108E-02    0.959E-03
DAV:   3    -0.332589871888E+04    0.11784E-05   -0.63741E-06  3968   0.280E-03    0.535E-03
DAV:   4    -0.332589871858E+04    0.30280E-06   -0.52527E-07  2912   0.110E-03
  15 F= -.33400286E+04 E0= -.33400286E+04  d E =-.448154E-04
 BRION: g(F)=  0.680E-03 g(S)=  0.000E+00 retain N=  2 mean eig= 0.78
 eig:   0.213  1.344
 bond charge predicted
       N       E                     dE             d eps       ncg     rms          rms(c)
DAV:   1    -0.332589917004E+04   -0.45116E-03   -0.59768E-02  3648   0.275E-01    0.396E-02
DAV:   2    -0.332589923219E+04   -0.62147E-04   -0.97459E-04  3936   0.327E-02    0.300E-02
DAV:   3    -0.332589922143E+04    0.10753E-04   -0.53481E-05  4064   0.940E-03    0.941E-03
DAV:   4    -0.332589922307E+04   -0.16335E-05   -0.14512E-05  4032   0.390E-03    0.301E-03
DAV:   5    -0.332589922307E+04    0.26776E-08   -0.65179E-07  2912   0.134E-03
  16 F= -.33400291E+04 E0= -.33400291E+04  d E =-.501796E-03
 BRION: g(F)=  0.580E-03 g(S)=  0.000E+00 retain N=  2 mean eig= 0.59
 eig:   0.193  0.994
 bond charge predicted
       N       E                     dE             d eps       ncg     rms          rms(c)
DAV:   1    -0.332589940419E+04   -0.18113E-03   -0.10609E-02  3648   0.117E-01    0.165E-02
DAV:   2    -0.332589941779E+04   -0.13599E-04   -0.19571E-04  4000   0.146E-02    0.132E-02
DAV:   3    -0.332589941580E+04    0.19919E-05   -0.10176E-05  4256   0.388E-03    0.614E-03
DAV:   4    -0.332589941575E+04    0.52853E-07   -0.23600E-06  3328   0.195E-03
  17 F= -.33400293E+04 E0= -.33400293E+04  d E =-.188484E-03
 BRION: g(F)=  0.553E-03 g(S)=  0.000E+00 retain N=  2 mean eig= 0.84
 eig:   0.156  1.530
 bond charge predicted
       N       E                     dE             d eps       ncg     rms          rms(c)
DAV:   1    -0.332589988436E+04   -0.46856E-03   -0.84418E-02  3648   0.325E-01    0.468E-02
DAV:   2    -0.332589997906E+04   -0.94700E-04   -0.14106E-03  3840   0.387E-02    0.356E-02
DAV:   3    -0.332589996472E+04    0.14339E-04   -0.69354E-05  4064   0.105E-02    0.128E-02
DAV:   4    -0.332589996667E+04   -0.19515E-05   -0.20638E-05  4032   0.487E-03    0.378E-03
DAV:   5    -0.332589996667E+04    0.52387E-08   -0.15115E-06  3104   0.173E-03
  18 F= -.33400298E+04 E0= -.33400298E+04  d E =-.543489E-03
 BRION: g(F)=  0.592E-03 g(S)=  0.000E+00 retain N=  2 mean eig= 0.64
 eig:   0.129  1.154
 bond charge predicted
       N       E                     dE             d eps       ncg     rms          rms(c)
DAV:   1    -0.332589990059E+04    0.66084E-04   -0.39321E-03  3648   0.696E-02    0.114E-02
DAV:   2    -0.332589991010E+04   -0.95137E-05   -0.12824E-04  4096   0.102E-02    0.104E-02
DAV:   3    -0.332589990910E+04    0.10025E-05   -0.44572E-06  3360   0.224E-03    0.695E-03
DAV:   4    -0.332589990827E+04    0.82597E-06   -0.14146E-06  2592   0.149E-03
  19 F= -.33400297E+04 E0= -.33400297E+04  d E =0.573601E-04
 BRION: g(F)=  0.569E-03 g(S)=  0.000E+00 retain N=  2 mean eig= 1.03
 eig:   0.177  1.886
 bond charge predicted
       N       E                     dE             d eps       ncg     rms          rms(c)
DAV:   1    -0.332590028435E+04   -0.37525E-03   -0.49819E-02  3648   0.250E-01    0.353E-02
DAV:   2    -0.332590033932E+04   -0.54975E-04   -0.81966E-04  3904   0.297E-02    0.270E-02
DAV:   3    -0.332590033074E+04    0.85867E-05   -0.41504E-05  4032   0.818E-03    0.950E-03
DAV:   4    -0.332590033201E+04   -0.12699E-05   -0.11983E-05  3936   0.365E-03    0.276E-03
DAV:   5    -0.332590033199E+04    0.17229E-07   -0.75707E-07  2432   0.147E-03
  20 F= -.33400302E+04 E0= -.33400302E+04  d E =-.413218E-03
 BRION: g(F)=  0.463E-03 g(S)=  0.000E+00 retain N=  2 mean eig= 0.31
 eig:   0.220  0.403
 bond charge predicted
       N       E                     dE             d eps       ncg     rms          rms(c)
DAV:   1    -0.332590050814E+04   -0.17613E-03   -0.12071E-02  3648   0.123E-01    0.180E-02
DAV:   2    -0.332590052492E+04   -0.16777E-04   -0.23820E-04  3808   0.152E-02    0.142E-02
DAV:   3    -0.332590052276E+04    0.21615E-05   -0.10163E-05  4160   0.379E-03    0.696E-03
DAV:   4    -0.332590052258E+04    0.17707E-06   -0.28135E-06  3392   0.214E-03
  21 F= -.33400303E+04 E0= -.33400303E+04  d E =-.186991E-03
 BRION: g(F)=  0.434E-03 g(S)=  0.000E+00 retain N=  2 mean eig= 0.36
 eig:   0.096  0.622
 bond charge predicted
       N       E                     dE             d eps       ncg     rms          rms(c)
DAV:   1    -0.332590091742E+04   -0.39466E-03   -0.74571E-02  3648   0.305E-01    0.439E-02
DAV:   2    -0.332590100852E+04   -0.91099E-04   -0.13083E-03  3872   0.365E-02    0.342E-02
DAV:   3    -0.332590099654E+04    0.11973E-04   -0.57201E-05  4128   0.933E-03    0.157E-02
DAV:   4    -0.332590099715E+04   -0.60524E-06   -0.21721E-05  4064   0.545E-03    0.418E-03
DAV:   5    -0.332590099715E+04    0.46566E-09   -0.32255E-06  3232   0.219E-03
  22 F= -.33400308E+04 E0= -.33400308E+04  d E =-.459524E-03
 BRION: g(F)=  0.516E-03 g(S)=  0.000E+00 retain N=  2 mean eig= 1.13
 eig:   0.121  2.143
 bond charge predicted
       N       E                     dE             d eps       ncg     rms          rms(c)
DAV:   1    -0.332590090000E+04    0.97152E-04   -0.52531E-03  3648   0.781E-02    0.133E-02
DAV:   2    -0.332590091319E+04   -0.13191E-04   -0.17450E-04  3968   0.111E-02    0.123E-02
DAV:   3    -0.332590091192E+04    0.12734E-05   -0.56370E-06  3520   0.241E-03    0.836E-03
DAV:   4    -0.332590091076E+04    0.11579E-05   -0.22759E-06  2752   0.170E-03    0.314E-03
DAV:   5    -0.332590091065E+04    0.11001E-06   -0.80280E-07  2784   0.994E-04
  23 F= -.33400307E+04 E0= -.33400307E+04  d E =0.859688E-04
 BRION: g(F)=  0.528E-03 g(S)=  0.000E+00 retain N=  2 mean eig= 1.76
 eig:   0.195  3.319
 bond charge predicted
       N       E                     dE             d eps       ncg     rms          rms(c)
DAV:   1    -0.332590119059E+04   -0.27983E-03   -0.31514E-02  3648   0.200E-01    0.286E-02
DAV:   2    -0.332590122652E+04   -0.35930E-04   -0.54185E-04  3872   0.241E-02    0.218E-02
DAV:   3    -0.332590122102E+04    0.55028E-05   -0.26314E-05  4096   0.646E-03    0.843E-03
DAV:   4    -0.332590122171E+04   -0.69453E-06   -0.72074E-06  3840   0.297E-03
  24 F= -.33400310E+04 E0= -.33400310E+04  d E =-.299721E-03
 BRION: g(F)=  0.405E-03 g(S)=  0.000E+00 retain N=  2 mean eig= 0.46
 eig:   0.213  0.701
 bond charge predicted
       N       E                     dE             d eps       ncg     rms          rms(c)
DAV:   1    -0.332590140596E+04   -0.18494E-03   -0.15317E-02  3648   0.140E-01    0.203E-02
DAV:   2    -0.332590142484E+04   -0.18875E-04   -0.27496E-04  3904   0.172E-02    0.156E-02
DAV:   3    -0.332590142214E+04    0.27029E-05   -0.12742E-05  4096   0.453E-03    0.640E-03
DAV:   4    -0.332590142243E+04   -0.29861E-06   -0.32897E-06  3200   0.213E-03
  25 F= -.33400312E+04 E0= -.33400312E+04  d E =-.192441E-03
 BRION: g(F)=  0.403E-03 g(S)=  0.000E+00 retain N=  3 mean eig= 1.52
 eig:   4.075  0.185  0.294
 bond charge predicted
       N       E                     dE             d eps       ncg     rms          rms(c)
DAV:   1    -0.332590161469E+04   -0.19256E-03   -0.18827E-02  3648   0.153E-01    0.221E-02
DAV:   2    -0.332590164062E+04   -0.25927E-04   -0.35815E-04  3904   0.189E-02    0.177E-02
DAV:   3    -0.332590163751E+04    0.31107E-05   -0.15096E-05  4128   0.463E-03    0.925E-03
DAV:   4    -0.332590163717E+04    0.34354E-06   -0.52064E-06  4032   0.291E-03
  26 F= -.33400314E+04 E0= -.33400314E+04  d E =-.201998E-03
 BRION: g(F)=  0.464E-03 g(S)=  0.000E+00 retain N=  3 mean eig= 0.39
 eig:   0.790  0.055  0.316
 bond charge predicted
       N       E                     dE             d eps       ncg     rms          rms(c)
DAV:   1    -0.332590188788E+04   -0.25037E-03   -0.34452E-02  3648   0.204E-01    0.302E-02
DAV:   2    -0.332590193839E+04   -0.50514E-04   -0.68111E-04  3840   0.249E-02    0.238E-02
DAV:   3    -0.332590193304E+04    0.53545E-05   -0.25774E-05  4064   0.588E-03    0.124E-02
DAV:   4    -0.332590193250E+04    0.54052E-06   -0.95396E-06  4096   0.380E-03
  27 F= -.33400317E+04 E0= -.33400317E+04  d E =-.280259E-03
 BRION: g(F)=  0.425E-03 g(S)=  0.000E+00 retain N=  2 mean eig= 1.67
 eig:   0.141  3.189
 bond charge predicted
       N       E                     dE             d eps       ncg     rms          rms(c)
DAV:   1    -0.332590190568E+04    0.27356E-04   -0.63536E-03  3680   0.882E-02    0.152E-02
DAV:   2    -0.332590192412E+04   -0.18443E-04   -0.24511E-04  4064   0.137E-02    0.145E-02
DAV:   3    -0.332590192243E+04    0.16982E-05   -0.83731E-06  4000   0.290E-03    0.103E-02
DAV:   4    -0.332590192067E+04    0.17555E-05   -0.26755E-06  2688   0.177E-03    0.449E-03
DAV:   5    -0.332590192036E+04    0.31467E-06   -0.16132E-06  2720   0.134E-03
  28 F= -.33400317E+04 E0= -.33400317E+04  d E =0.141366E-04
 BRION: g(F)=  0.949E-03 g(S)=  0.000E+00 retain N=  2 mean eig= 0.40
 eig:   0.162  0.641
 bond charge predicted
       N       E                     dE             d eps       ncg     rms          rms(c)
DAV:   1    -0.332590213074E+04   -0.21007E-03   -0.17888E-02  3648   0.154E-01    0.220E-02
DAV:   2    -0.332590215434E+04   -0.23600E-04   -0.34954E-04  3968   0.197E-02    0.173E-02
DAV:   3    -0.332590215053E+04    0.38157E-05   -0.19066E-05  4096   0.521E-03    0.782E-03
DAV:   4    -0.332590215045E+04    0.74855E-07   -0.34420E-06  3232   0.225E-03
  29 F= -.33400319E+04 E0= -.33400319E+04  d E =-.217462E-03
 BRION: g(F)=  0.482E-03 g(S)=  0.000E+00 retain N=  3 mean eig= 1.74
 eig:   4.997  0.213  0.011
 bond charge predicted
       N       E                     dE             d eps       ncg     rms          rms(c)
DAV:   1    -0.332590223627E+04   -0.85738E-04   -0.31023E-03  3648   0.648E-02    0.929E-03
DAV:   2    -0.332590224075E+04   -0.44872E-05   -0.64150E-05  4064   0.850E-03    0.742E-03
DAV:   3    -0.332590224008E+04    0.67765E-06   -0.29837E-06  3232   0.217E-03
  30 F= -.33400320E+04 E0= -.33400320E+04  d E =-.841031E-04
 BRION: g(F)=  0.282E-03 g(S)=  0.000E+00 retain N=  2 mean eig= 0.11
 eig:   0.203  0.024
 bond charge predicted
       N       E                     dE             d eps       ncg     rms          rms(c)
DAV:   1    -0.332590246277E+04   -0.22202E-03   -0.36156E-02  3648   0.209E-01    0.313E-02
DAV:   2    -0.332590251262E+04   -0.49851E-04   -0.69659E-04  3808   0.255E-02    0.242E-02
DAV:   3    -0.332590250658E+04    0.60479E-05   -0.27495E-05  4096   0.617E-03    0.119E-02
DAV:   4    -0.332590250612E+04    0.45588E-06   -0.96384E-06  4160   0.376E-03
  31 F= -.33400322E+04 E0= -.33400322E+04  d E =-.248153E-03
 BRION: g(F)=  0.492E-03 g(S)=  0.000E+00 retain N=  3 mean eig= 0.18
 eig:   0.073  0.227  0.227
 bond charge predicted
       N       E                     dE             d eps       ncg     rms          rms(c)
DAV:   1    -0.332590257101E+04   -0.64429E-04   -0.33999E-03  3648   0.521E-02    0.106E-02
DAV:   2    -0.332590258527E+04   -0.14261E-04   -0.15633E-04  3872   0.762E-03    0.114E-02
DAV:   3    -0.332590258462E+04    0.64180E-06   -0.30869E-06  3104   0.151E-03
  32 F= -.33400323E+04 E0= -.33400323E+04  d E =-.725566E-04
 BRION: g(F)=  0.276E-03 g(S)=  0.000E+00 retain N=  1 mean eig= 0.16
 eig:   0.164
 bond charge predicted
       N       E                     dE             d eps       ncg     rms          rms(c)
DAV:   1    -0.332590280844E+04   -0.22317E-03   -0.28607E-02  3648   0.187E-01    0.281E-02
DAV:   2    -0.332590284262E+04   -0.34179E-04   -0.49657E-04  3872   0.224E-02    0.210E-02
DAV:   3    -0.332590283825E+04    0.43658E-05   -0.21015E-05  4096   0.575E-03    0.868E-03
DAV:   4    -0.332590283903E+04   -0.78080E-06   -0.70466E-06  3840   0.300E-03
  33 F= -.33400325E+04 E0= -.33400325E+04  d E =-.233334E-03
 BRION: g(F)=  0.262E-03 g(S)=  0.000E+00 retain N=  2 mean eig= 0.49
 eig:   0.168  0.816
 bond charge predicted
       N       E                     dE             d eps       ncg     rms          rms(c)
DAV:   1    -0.332590295869E+04   -0.12044E-03   -0.11179E-02  3648   0.120E-01    0.175E-02
DAV:   2    -0.332590297389E+04   -0.15200E-04   -0.21810E-04  3936   0.152E-02    0.136E-02
DAV:   3    -0.332590297195E+04    0.19359E-05   -0.98927E-06  4192   0.385E-03    0.656E-03
DAV:   4    -0.332590297195E+04    0.23283E-08   -0.21847E-06  3136   0.196E-03
  34 F= -.33400327E+04 E0= -.33400327E+04  d E =-.120184E-03
 BRION: g(F)=  0.423E-03 g(S)=  0.000E+00 retain N=  1 mean eig= 0.18
 eig:   0.179
 bond charge predicted
       N       E                     dE             d eps       ncg     rms          rms(c)
DAV:   1    -0.332590306269E+04   -0.90742E-04   -0.12911E-02  3648   0.116E-01    0.196E-02
DAV:   2    -0.332590309523E+04   -0.32540E-04   -0.39554E-04  3808   0.154E-02    0.176E-02
DAV:   3    -0.332590309268E+04    0.25535E-05   -0.10760E-05  3840   0.321E-03    0.120E-02
DAV:   4    -0.332590309007E+04    0.26070E-05   -0.60614E-06  3232   0.263E-03    0.387E-03
DAV:   5    -0.332590308994E+04    0.13516E-06   -0.18474E-06  2912   0.127E-03
  35 F= -.33400328E+04 E0= -.33400328E+04  d E =-.105831E-03
 BRION: g(F)=  0.701E-03 g(S)=  0.000E+00 retain N=  2 mean eig= 0.15
 eig:   0.159  0.147
 bond charge predicted
       N       E                     dE             d eps       ncg     rms          rms(c)
DAV:   1    -0.332590315593E+04   -0.65857E-04   -0.27047E-03  3648   0.401E-02    0.990E-03
DAV:   2    -0.332590316863E+04   -0.12701E-04   -0.13813E-04  3872   0.618E-03    0.106E-02
DAV:   3    -0.332590316813E+04    0.50664E-06   -0.24187E-06  3008   0.118E-03
  36 F= -.33400328E+04 E0= -.33400328E+04  d E =-.736120E-04
 BRION: g(F)=  0.228E-03 g(S)=  0.000E+00 retain N=  1 mean eig= 0.17
 eig:   0.165
 bond charge predicted
       N       E                     dE             d eps       ncg     rms          rms(c)
DAV:   1    -0.332590338135E+04   -0.21272E-03   -0.29094E-02  3648   0.188E-01    0.279E-02
DAV:   2    -0.332590341680E+04   -0.35454E-04   -0.50849E-04  3872   0.225E-02    0.210E-02
DAV:   3    -0.332590341235E+04    0.44496E-05   -0.20788E-05  4096   0.567E-03    0.897E-03
DAV:   4    -0.332590341301E+04   -0.65868E-06   -0.71826E-06  3872   0.306E-03
  37 F= -.33400331E+04 E0= -.33400331E+04  d E =-.219571E-03
 BRION: g(F)=  0.208E-03 g(S)=  0.000E+00 retain N=  2 mean eig= 0.22
 eig:   0.271  0.177
 bond charge predicted
       N       E                     dE             d eps       ncg     rms          rms(c)
DAV:   1    -0.332590355859E+04   -0.14624E-03   -0.19329E-02  3648   0.156E-01    0.230E-02
DAV:   2    -0.332590358418E+04   -0.25589E-04   -0.37143E-04  3904   0.196E-02    0.176E-02
DAV:   3    -0.332590358101E+04    0.31688E-05   -0.16554E-05  4128   0.493E-03    0.855E-03
DAV:   4    -0.332590358108E+04   -0.60885E-07   -0.42648E-06  3456   0.261E-03
  38 F= -.33400332E+04 E0= -.33400332E+04  d E =-.149561E-03
 BRION: g(F)=  0.424E-03 g(S)=  0.000E+00 retain N=  2 mean eig= 0.51
 eig:   0.163  0.848
 bond charge predicted
       N       E                     dE             d eps       ncg     rms          rms(c)
DAV:   1    -0.332590375810E+04   -0.17708E-03   -0.47263E-02  3648   0.233E-01    0.355E-02
DAV:   2    -0.332590384194E+04   -0.83840E-04   -0.10705E-03  3840   0.291E-02    0.287E-02
DAV:   3    -0.332590383429E+04    0.76480E-05   -0.34671E-05  4160   0.644E-03    0.171E-02
DAV:   4    -0.332590383128E+04    0.30119E-05   -0.14932E-05  3840   0.479E-03    0.469E-03
DAV:   5    -0.332590383152E+04   -0.24273E-06   -0.42414E-06  3264   0.209E-03
  39 F= -.33400334E+04 E0= -.33400334E+04  d E =-.217221E-03
 BRION: g(F)=  0.888E-03 g(S)=  0.000E+00 retain N=  2 mean eig= 0.24
 eig:   0.171  0.302
 bond charge predicted
       N       E                     dE             d eps       ncg     rms          rms(c)
DAV:   1    -0.332590367019E+04    0.16109E-03   -0.20931E-02  3648   0.152E-01    0.243E-02
DAV:   2    -0.332590371257E+04   -0.42386E-04   -0.53359E-04  3808   0.192E-02    0.204E-02
DAV:   3    -0.332590370908E+04    0.34904E-05   -0.16149E-05  3968   0.417E-03    0.128E-02
DAV:   4    -0.332590370736E+04    0.17205E-05   -0.75311E-06  3584   0.323E-03    0.394E-03
DAV:   5    -0.332590370746E+04   -0.94646E-07   -0.21778E-06  3104   0.145E-03
  40 F= -.33400333E+04 E0= -.33400333E+04  d E =0.104592E-03
 BRION: g(F)=  0.200E-03 g(S)=  0.000E+00 retain N=  1 mean eig= 0.17
 eig:   0.165
 bond charge predicted
       N       E                     dE             d eps       ncg     rms          rms(c)
DAV:   1    -0.332590390348E+04   -0.19612E-03   -0.26360E-02  3648   0.178E-01    0.258E-02
DAV:   2    -0.332590393658E+04   -0.33099E-04   -0.47123E-04  3872   0.214E-02    0.195E-02
DAV:   3    -0.332590393255E+04    0.40212E-05   -0.17607E-05  4096   0.519E-03    0.917E-03
DAV:   4    -0.332590393290E+04   -0.34715E-06   -0.67985E-06  3840   0.312E-03
  41 F= -.33400335E+04 E0= -.33400335E+04  d E =-.198102E-03
 BRION: g(F)=  0.169E-03 g(S)=  0.000E+00 retain N=  2 mean eig= 1.61
 eig:   0.344  2.874
 bond charge predicted
       N       E                     dE             d eps       ncg     rms          rms(c)
DAV:   1    -0.332590420188E+04   -0.26933E-03   -0.50402E-01  3584   0.780E-01    0.113E-01
DAV:   2    -0.332590487488E+04   -0.67300E-03   -0.92583E-03  3840   0.945E-02    0.857E-02
DAV:   3    -0.332590480267E+04    0.72209E-04   -0.33474E-04  4032   0.223E-02    0.427E-02
DAV:   4    -0.332590480799E+04   -0.53191E-05   -0.14110E-04  3936   0.143E-02    0.910E-03
DAV:   5    -0.332590480836E+04   -0.37311E-06   -0.32458E-05  3712   0.665E-03    0.464E-03
DAV:   6    -0.332590480875E+04   -0.38487E-06   -0.33120E-06  3520   0.214E-03
  42 F= -.33400343E+04 E0= -.33400343E+04  d E =-.750765E-03
 BRION: g(F)=  0.680E-03 g(S)=  0.000E+00 retain N=  3 mean eig= 1.40
 eig:   0.255  1.977  1.977
 bond charge predicted
       N       E                     dE             d eps       ncg     rms          rms(c)
DAV:   1    -0.332590497156E+04   -0.16320E-03   -0.75161E-01  3584   0.952E-01    0.138E-01
DAV:   2    -0.332590597324E+04   -0.10017E-02   -0.13801E-02  3808   0.115E-01    0.105E-01
DAV:   3    -0.332590586289E+04    0.11035E-03   -0.49670E-04  4032   0.274E-02    0.511E-02
DAV:   4    -0.332590587119E+04   -0.83060E-05   -0.20700E-04  3872   0.171E-02    0.109E-02
DAV:   5    -0.332590587168E+04   -0.48999E-06   -0.44886E-05  3744   0.790E-03    0.555E-03
DAV:   6    -0.332590587246E+04   -0.77521E-06   -0.50619E-06  4064   0.259E-03
  43 F= -.33400352E+04 E0= -.33400352E+04  d E =-.903666E-03
 BRION: g(F)=  0.177E-03 g(S)=  0.000E+00 retain N=  3 mean eig= 3.35
 eig:   4.473  4.473  1.118
 bond charge predicted
       N       E                     dE             d eps       ncg     rms          rms(c)
DAV:   1    -0.332590597434E+04   -0.10266E-03   -0.68599E-02  3584   0.281E-01    0.426E-02
DAV:   2    -0.332590608759E+04   -0.11325E-03   -0.14882E-03  3808   0.354E-02    0.334E-02
DAV:   3    -0.332590607642E+04    0.11164E-04   -0.51773E-05  4160   0.813E-03    0.188E-02
DAV:   4    -0.332590607352E+04    0.28992E-05   -0.19114E-05  3808   0.557E-03    0.451E-03
DAV:   5    -0.332590607412E+04   -0.59360E-06   -0.52646E-06  3264   0.238E-03
  44 F= -.33400353E+04 E0= -.33400353E+04  d E =-.144875E-03
 BRION: g(F)=  0.109E-02 g(S)=  0.000E+00 retain N=  4 mean eig= 3.28
 eig:   6.022  6.022  0.902  0.192
 bond charge predicted
       N       E                     dE             d eps       ncg     rms          rms(c)
DAV:   1    -0.332590603302E+04    0.40502E-04   -0.79261E-01  3584   0.975E-01    0.142E-01
DAV:   2    -0.332590711922E+04   -0.10862E-02   -0.14815E-02  3840   0.118E-01    0.108E-01
DAV:   3    -0.332590700341E+04    0.11582E-03   -0.51305E-04  4064   0.276E-02    0.559E-02
DAV:   4    -0.332590700756E+04   -0.41524E-05   -0.22548E-04  3872   0.185E-02    0.112E-02
DAV:   5    -0.332590700970E+04   -0.21382E-05   -0.54575E-05  3744   0.815E-03    0.690E-03
DAV:   6    -0.332590701030E+04   -0.60652E-06   -0.60961E-06  3936   0.318E-03
  45 F= -.33400361E+04 E0= -.33400361E+04  d E =-.771910E-03
 BRION: g(F)=  0.109E-03 g(S)=  0.000E+00 retain N=  1 mean eig= 0.26
 eig:   0.261
 bond charge predicted
       N       E                     dE             d eps       ncg     rms          rms(c)
DAV:   1    -0.332590711054E+04   -0.10084E-03   -0.28610E-02  3648   0.179E-01    0.271E-02
DAV:   2    -0.332590715984E+04   -0.49304E-04   -0.63049E-04  3904   0.228E-02    0.216E-02
DAV:   3    -0.332590715548E+04    0.43614E-05   -0.20038E-05  4160   0.508E-03    0.128E-02
DAV:   4    -0.332590715456E+04    0.92422E-06   -0.76881E-06  3680   0.360E-03
  46 F= -.33400362E+04 E0= -.33400362E+04  d E =-.889998E-04
 BRION: g(F)=  0.427E-03 g(S)=  0.000E+00 retain N=  2 mean eig= 0.30
 eig:   0.318  0.280
 bond charge predicted
       N       E                     dE             d eps       ncg     rms          rms(c)
DAV:   1    -0.332590719499E+04   -0.39504E-04   -0.23543E-03  3680   0.543E-02    0.950E-03
DAV:   2    -0.332590720116E+04   -0.61762E-05   -0.83010E-05  4192   0.844E-03    0.838E-03
DAV:   3    -0.332590720056E+04    0.60443E-06   -0.30080E-06  3136   0.193E-03
  47 F= -.33400362E+04 E0= -.33400362E+04  d E =-.423407E-04
 BRION: g(F)=  0.824E-04 g(S)=  0.000E+00 retain N=  1 mean eig= 0.18
 eig:   0.184
 bond charge predicted
       N       E                     dE             d eps       ncg     rms          rms(c)
DAV:   1    -0.332590729428E+04   -0.93118E-04   -0.11083E-02  3648   0.108E-01    0.172E-02
DAV:   2    -0.332590731181E+04   -0.17526E-04   -0.22894E-04  3840   0.135E-02    0.127E-02
DAV:   3    -0.332590731031E+04    0.14942E-05   -0.63905E-06  3584   0.299E-03    0.737E-03
DAV:   4    -0.332590731044E+04   -0.12503E-06   -0.35444E-06  3264   0.239E-03
  48 F= -.33400363E+04 E0= -.33400363E+04  d E =-.721132E-04
 BRION: g(F)=  0.101E-03 g(S)=  0.000E+00 retain N=  2 mean eig= 0.25
 eig:   0.140  0.365
 bond charge predicted
       N       E                     dE             d eps       ncg     rms          rms(c)
DAV:   1    -0.332590734583E+04   -0.35520E-04   -0.14234E-03  3648   0.419E-02    0.679E-03
DAV:   2    -0.332590734840E+04   -0.25734E-05   -0.34243E-05  4192   0.576E-03    0.520E-03
DAV:   3    -0.332590734814E+04    0.26624E-06   -0.11834E-06  2848   0.148E-03
  49 F= -.33400363E+04 E0= -.33400363E+04  d E =-.251166E-04
 BRION: g(F)=  0.883E-04 g(S)=  0.000E+00 retain N=  1 mean eig= 0.19
 eig:   0.188
 bond charge predicted
       N       E                     dE             d eps       ncg     rms          rms(c)
DAV:   1    -0.332590742948E+04   -0.81071E-04   -0.75398E-03  3648   0.906E-02    0.141E-02
DAV:   2    -0.332590744155E+04   -0.12075E-04   -0.15537E-04  3840   0.113E-02    0.108E-02
DAV:   3    -0.332590744049E+04    0.10609E-05   -0.40652E-06  3264   0.249E-03    0.614E-03
DAV:   4    -0.332590744053E+04   -0.37602E-07   -0.19774E-06  2880   0.195E-03
  50 F= -.33400364E+04 E0= -.33400364E+04  d E =-.593408E-04
 BRION: g(F)=  0.110E-03 g(S)=  0.000E+00 retain N=  2 mean eig= 0.21
 eig:   0.128  0.293
 bond charge predicted
       N       E                     dE             d eps       ncg     rms          rms(c)
DAV:   1    -0.332590746485E+04   -0.24358E-04   -0.78910E-04  3648   0.300E-02    0.508E-03
DAV:   2    -0.332590746644E+04   -0.15890E-05   -0.21259E-05  3968   0.421E-03    0.397E-03
DAV:   3    -0.332590746626E+04    0.18126E-06   -0.46634E-07  2720   0.100E-03
  51 F= -.33400364E+04 E0= -.33400364E+04  d E =-.187550E-04
 BRION: g(F)=  0.793E-04 g(S)=  0.000E+00 retain N=  1 mean eig= 0.17
 eig:   0.172
 bond charge predicted
       N       E                     dE             d eps       ncg     rms          rms(c)
DAV:   1    -0.332590754905E+04   -0.82614E-04   -0.97424E-03  3648   0.102E-01    0.162E-02
DAV:   2    -0.332590756438E+04   -0.15326E-04   -0.20332E-04  3808   0.128E-02    0.120E-02
DAV:   3    -0.332590756291E+04    0.14672E-05   -0.57901E-06  3584   0.286E-03    0.700E-03
DAV:   4    -0.332590756287E+04    0.44238E-07   -0.30593E-06  3008   0.226E-03
  52 F= -.33400365E+04 E0= -.33400365E+04  d E =-.619736E-04
 BRION: g(F)=  0.117E-03 g(S)=  0.000E+00 retain N=  2 mean eig= 0.23
 eig:   0.147  0.312
 bond charge predicted
       N       E                     dE             d eps       ncg     rms          rms(c)
DAV:   1    -0.332590759460E+04   -0.31693E-04   -0.11680E-03  3648   0.381E-02    0.645E-03
DAV:   2    -0.332590759668E+04   -0.20724E-05   -0.29404E-05  4096   0.540E-03    0.486E-03
DAV:   3    -0.332590759641E+04    0.26124E-06   -0.12190E-06  2752   0.146E-03
  53 F= -.33400365E+04 E0= -.33400365E+04  d E =-.228921E-04
 BRION: g(F)=  0.775E-04 g(S)=  0.000E+00 retain N=  1 mean eig= 0.20
 eig:   0.197
 bond charge predicted
       N       E                     dE             d eps       ncg     rms          rms(c)
DAV:   1    -0.332590767994E+04   -0.83263E-04   -0.83806E-03  3648   0.948E-02    0.149E-02
DAV:   2    -0.332590769366E+04   -0.13723E-04   -0.17640E-04  3840   0.118E-02    0.115E-02
DAV:   3    -0.332590769247E+04    0.11884E-05   -0.45280E-06  3360   0.260E-03    0.666E-03
DAV:   4    -0.332590769247E+04    0.69849E-08   -0.23788E-06  2880   0.208E-03
  54 F= -.33400365E+04 E0= -.33400365E+04  d E =-.605647E-04
 BRION: g(F)=  0.105E-03 g(S)=  0.000E+00 retain N=  2 mean eig= 0.22
 eig:   0.224  0.224
 bond charge predicted
       N       E                     dE             d eps       ncg     rms          rms(c)
DAV:   1    -0.332590771691E+04   -0.24435E-04   -0.88378E-04  3648   0.304E-02    0.546E-03
DAV:   2    -0.332590771889E+04   -0.19784E-05   -0.25788E-05  3904   0.428E-03    0.435E-03
DAV:   3    -0.332590771867E+04    0.21816E-06   -0.52462E-07  2720   0.997E-04
  55 F= -.33400366E+04 E0= -.33400366E+04  d E =-.187778E-04
 BRION: g(F)=  0.749E-04 g(S)=  0.000E+00 retain N=  1 mean eig= 0.17
 eig:   0.168
 bond charge predicted
       N       E                     dE             d eps       ncg     rms          rms(c)
DAV:   1    -0.332590779966E+04   -0.80775E-04   -0.88669E-03  3648   0.963E-02    0.155E-02
DAV:   2    -0.332590781390E+04   -0.14243E-04   -0.18741E-04  3744   0.120E-02    0.116E-02
DAV:   3    -0.332590781258E+04    0.13264E-05   -0.50047E-06  3456   0.267E-03    0.688E-03
DAV:   4    -0.332590781253E+04    0.44471E-07   -0.30431E-06  3104   0.222E-03
  56 F= -.33400366E+04 E0= -.33400366E+04  d E =-.599459E-04
 BRION: g(F)=  0.946E-04 g(S)=  0.000E+00 retain N=  2 mean eig= 0.22
 eig:   0.222  0.222
 bond charge predicted
       N       E                     dE             d eps       ncg     rms          rms(c)
DAV:   1    -0.332590784303E+04   -0.30452E-04   -0.11829E-03  3648   0.359E-02    0.646E-03
DAV:   2    -0.332590784554E+04   -0.25105E-05   -0.32736E-05  4032   0.505E-03    0.500E-03
DAV:   3    -0.332590784530E+04    0.23923E-06   -0.95997E-07  2688   0.127E-03
  57 F= -.33400366E+04 E0= -.33400366E+04  d E =-.213272E-04
 BRION: g(F)=  0.758E-04 g(S)=  0.000E+00 retain N=  1 mean eig= 0.18
 eig:   0.181
 bond charge predicted
       N       E                     dE             d eps       ncg     rms          rms(c)
DAV:   1    -0.332590792151E+04   -0.75973E-04   -0.74661E-03  3648   0.886E-02    0.143E-02
DAV:   2    -0.332590793456E+04   -0.13044E-04   -0.16600E-04  3808   0.111E-02    0.112E-02
DAV:   3    -0.332590793343E+04    0.11224E-05   -0.41289E-06  3360   0.242E-03    0.680E-03
DAV:   4    -0.332590793333E+04    0.10349E-06   -0.24287E-06  2912   0.204E-03
  58 F= -.33400367E+04 E0= -.33400367E+04  d E =-.544790E-04
 BRION: g(F)=  0.106E-03 g(S)=  0.000E+00 retain N=  2 mean eig= 0.05
 eig:   0.025  0.085
 bond charge predicted
       N       E                     dE             d eps       ncg     rms          rms(c)
DAV:   1    -0.332590795607E+04   -0.22639E-04   -0.85292E-04  3648   0.276E-02    0.548E-03
DAV:   2    -0.332590795839E+04   -0.23211E-05   -0.28879E-05  3744   0.397E-03    0.464E-03
DAV:   3    -0.332590795817E+04    0.22573E-06   -0.49178E-07  2816   0.906E-04
  59 F= -.33400367E+04 E0= -.33400367E+04  d E =-.178744E-04
 BRION: g(F)=  0.706E-04 g(S)=  0.000E+00 retain N=  1 mean eig= 0.17
 eig:   0.169
 bond charge predicted
       N       E                     dE             d eps       ncg     rms          rms(c)
DAV:   1    -0.332590803661E+04   -0.78219E-04   -0.88019E-03  3648   0.956E-02    0.156E-02
DAV:   2    -0.332590805093E+04   -0.14321E-04   -0.18921E-04  3744   0.120E-02    0.118E-02
DAV:   3    -0.332590804957E+04    0.13658E-05   -0.50382E-06  3424   0.267E-03    0.701E-03
DAV:   4    -0.332590804948E+04    0.83819E-07   -0.31699E-06  3168   0.224E-03
  60 F= -.33400368E+04 E0= -.33400368E+04  d E =-.573328E-04
 BRION: g(F)=  0.935E-04 g(S)=  0.000E+00 retain N=  2 mean eig= 0.15
 eig:   0.152  0.152
 bond charge predicted
       N       E                     dE             d eps       ncg     rms          rms(c)
DAV:   1    -0.332590807943E+04   -0.29864E-04   -0.12003E-03  3680   0.356E-02    0.665E-03
DAV:   2    -0.332590808204E+04   -0.26055E-05   -0.34495E-05  4032   0.503E-03    0.518E-03
DAV:   3    -0.332590808176E+04    0.27416E-06   -0.95418E-07  2720   0.124E-03
  61 F= -.33400368E+04 E0= -.33400368E+04  d E =-.210142E-04
 BRION: g(F)=  0.708E-04 g(S)=  0.000E+00 retain N=  1 mean eig= 0.18
 eig:   0.180
 bond charge predicted
       N       E                     dE             d eps       ncg     rms          rms(c)
DAV:   1    -0.332590815592E+04   -0.73879E-04   -0.71686E-03  3648   0.866E-02    0.140E-02
DAV:   2    -0.332590816830E+04   -0.12386E-04   -0.15791E-04  3808   0.108E-02    0.109E-02
DAV:   3    -0.332590816724E+04    0.10665E-05   -0.38749E-06  3360   0.236E-03    0.661E-03
DAV:   4    -0.332590816717E+04    0.67754E-07   -0.23410E-06  2848   0.200E-03
  62 F= -.33400368E+04 E0= -.33400368E+04  d E =-.526080E-04
 BRION: g(F)=  0.922E-04 g(S)=  0.000E+00 retain N=  2 mean eig= 0.18
 eig:   0.066  0.301
 bond charge predicted
       N       E                     dE             d eps       ncg     rms          rms(c)
DAV:   1    -0.332590818969E+04   -0.22449E-04   -0.83519E-04  3680   0.274E-02    0.540E-03
DAV:   2    -0.332590819183E+04   -0.21403E-05   -0.26962E-05  3744   0.388E-03    0.448E-03
DAV:   3    -0.332590819161E+04    0.22002E-06   -0.43490E-07  2816   0.885E-04
  63 F= -.33400369E+04 E0= -.33400369E+04  d E =-.170235E-04
 BRION: g(F)=  0.673E-04 g(S)=  0.000E+00 retain N=  1 mean eig= 0.17
 eig:   0.168
 bond charge predicted
       N       E                     dE             d eps       ncg     rms          rms(c)
DAV:   1    -0.332590826632E+04   -0.74497E-04   -0.80185E-03  3648   0.914E-02    0.149E-02
DAV:   2    -0.332590827936E+04   -0.13042E-04   -0.17206E-04  3744   0.115E-02    0.112E-02
DAV:   3    -0.332590827812E+04    0.12420E-05   -0.45268E-06  3392   0.255E-03    0.670E-03
DAV:   4    -0.332590827806E+04    0.60070E-07   -0.28501E-06  3104   0.216E-03
  64 F= -.33400369E+04 E0= -.33400369E+04  d E =-.537541E-04
 BRION: g(F)=  0.862E-04 g(S)=  0.000E+00 retain N=  2 mean eig= 0.12
 eig:   0.117  0.117
 bond charge predicted
       N       E                     dE             d eps       ncg     rms          rms(c)
DAV:   1    -0.332590830673E+04   -0.28607E-04   -0.11229E-03  3680   0.346E-02    0.641E-03
DAV:   2    -0.332590830905E+04   -0.23245E-05   -0.31474E-05  3968   0.488E-03    0.499E-03
DAV:   3    -0.332590830878E+04    0.27078E-06   -0.83245E-07  2720   0.120E-03
  65 F= -.33400369E+04 E0= -.33400369E+04  d E =-.198849E-04
 BRION: g(F)=  0.663E-04 g(S)=  0.000E+00 retain N=  1 mean eig= 0.18
 eig:   0.181
 bond charge predicted
       N       E                     dE             d eps       ncg     rms          rms(c)
DAV:   1    -0.332590838030E+04   -0.71245E-04   -0.68554E-03  3648   0.847E-02    0.136E-02
DAV:   2    -0.332590839211E+04   -0.11812E-04   -0.15076E-04  3808   0.106E-02    0.107E-02
DAV:   3    -0.332590839108E+04    0.10271E-05   -0.36705E-06  3328   0.230E-03    0.646E-03
DAV:   4    -0.332590839102E+04    0.65775E-07   -0.22343E-06  2816   0.197E-03
  66 F= -.33400370E+04 E0= -.33400370E+04  d E =-.503558E-04
 BRION: g(F)=  0.879E-04 g(S)=  0.000E+00 retain N=  2 mean eig= 0.19
 eig:   0.059  0.317
 bond charge predicted
       N       E                     dE             d eps       ncg     rms          rms(c)
DAV:   1    -0.332590841311E+04   -0.22022E-04   -0.80045E-04  3712   0.271E-02    0.529E-03
DAV:   2    -0.332590841512E+04   -0.20098E-05   -0.25488E-05  3744   0.383E-03    0.439E-03
DAV:   3    -0.332590841491E+04    0.21025E-06   -0.39617E-07  2784   0.870E-04
  67 F= -.33400370E+04 E0= -.33400370E+04  d E =-.165060E-04
 BRION: g(F)=  0.633E-04 g(S)=  0.000E+00 retain N=  1 mean eig= 0.17
 eig:   0.168
 bond charge predicted
       N       E                     dE             d eps       ncg     rms          rms(c)
DAV:   1    -0.332590848729E+04   -0.72178E-04   -0.75937E-03  3648   0.890E-02    0.144E-02
DAV:   2    -0.332590849956E+04   -0.12271E-04   -0.16153E-04  3744   0.111E-02    0.109E-02
DAV:   3    -0.332590849841E+04    0.11569E-05   -0.42079E-06  3360   0.248E-03    0.647E-03
DAV:   4    -0.332590849838E+04    0.29453E-07   -0.26559E-06  3168   0.210E-03
  68 F= -.33400370E+04 E0= -.33400370E+04  d E =-.512854E-04
 BRION: g(F)=  0.781E-04 g(S)=  0.000E+00 retain N=  2 mean eig= 0.14
 eig:   0.139  0.139
 bond charge predicted
       N       E                     dE             d eps       ncg     rms          rms(c)
DAV:   1    -0.332590852616E+04   -0.27747E-04   -0.10996E-03  3680   0.344E-02    0.627E-03
DAV:   2    -0.332590852831E+04   -0.21572E-05   -0.29815E-05  3968   0.482E-03    0.487E-03
DAV:   3    -0.332590852803E+04    0.27765E-06   -0.75569E-07  2688   0.118E-03
  69 F= -.33400371E+04 E0= -.33400371E+04  d E =-.189404E-04
 BRION: g(F)=  0.632E-04 g(S)=  0.000E+00 retain N=  1 mean eig= 0.18
 eig:   0.181
 bond charge predicted
       N       E                     dE             d eps       ncg     rms          rms(c)
DAV:   1    -0.332590859553E+04   -0.67218E-04   -0.63373E-03  3648   0.813E-02    0.131E-02
DAV:   2    -0.332590860647E+04   -0.10937E-04   -0.13935E-04  3808   0.102E-02    0.102E-02
DAV:   3    -0.332590860551E+04    0.95670E-06   -0.33285E-06  3264   0.220E-03
  70 F= -.33400371E+04 E0= -.33400371E+04  d E =-.469752E-04
 BRION: g(F)=  0.835E-04 g(S)=  0.000E+00 retain N=  2 mean eig= 0.28
 eig:   0.107  0.455
 bond charge predicted
       N       E                     dE             d eps       ncg     rms          rms(c)
DAV:   1    -0.332590862355E+04   -0.17087E-04   -0.45119E-04  3680   0.208E-02    0.425E-03
DAV:   2    -0.332590862458E+04   -0.10213E-05   -0.13045E-05  3456   0.284E-03    0.332E-03
DAV:   3    -0.332590862448E+04    0.91037E-07   -0.14793E-07  2528   0.752E-04
  71 F= -.33400371E+04 E0= -.33400371E+04  d E =-.132603E-04
 BRION: g(F)=  0.578E-04 g(S)=  0.000E+00 retain N=  1 mean eig= 0.20
 eig:   0.201
 bond charge predicted
       N       E                     dE             d eps       ncg     rms          rms(c)
DAV:   1    -0.332590869897E+04   -0.74391E-04   -0.85730E-03  3648   0.944E-02    0.151E-02
DAV:   2    -0.332590871319E+04   -0.14224E-04   -0.18490E-04  3776   0.119E-02    0.116E-02
DAV:   3    -0.332590871187E+04    0.13196E-05   -0.46790E-06  3392   0.260E-03    0.696E-03
DAV:   4    -0.332590871179E+04    0.84052E-07   -0.29647E-06  3200   0.222E-03
  72 F= -.33400372E+04 E0= -.33400372E+04  d E =-.524201E-04
 BRION: g(F)=  0.879E-04 g(S)=  0.000E+00 retain N=  2 mean eig= 0.14
 eig:   0.025  0.249
 bond charge predicted
       N       E                     dE             d eps       ncg     rms          rms(c)
DAV:   1    -0.332590874167E+04   -0.29800E-04   -0.11984E-03  3712   0.358E-02    0.653E-03
DAV:   2    -0.332590874397E+04   -0.22994E-05   -0.32004E-05  3968   0.496E-03    0.504E-03
DAV:   3    -0.332590874367E+04    0.29907E-06   -0.79288E-07  2720   0.120E-03
  73 F= -.33400372E+04 E0= -.33400372E+04  d E =-.203986E-04
 BRION: g(F)=  0.551E-04 g(S)=  0.000E+00 retain N=  1 mean eig= 0.18
 eig:   0.180
 bond charge predicted
       N       E                     dE             d eps       ncg     rms          rms(c)
DAV:   1    -0.332590881258E+04   -0.68609E-04   -0.68008E-03  3648   0.837E-02    0.133E-02
DAV:   2    -0.332590882342E+04   -0.10841E-04   -0.13937E-04  3808   0.103E-02    0.986E-03
DAV:   3    -0.332590882251E+04    0.90862E-06   -0.34702E-06  3232   0.224E-03
  74 F= -.33400373E+04 E0= -.33400373E+04  d E =-.486200E-04
 BRION: g(F)=  0.697E-04 g(S)=  0.000E+00 retain N=  2 mean eig= 0.50
 eig:   0.121  0.871
 bond charge predicted
       N       E                     dE             d eps       ncg     rms          rms(c)
DAV:   1    -0.332590883969E+04   -0.16274E-04   -0.30970E-04  3680   0.180E-02    0.339E-03
DAV:   2    -0.332590884035E+04   -0.66042E-06   -0.73044E-06  3264   0.229E-03
  75 F= -.33400373E+04 E0= -.33400373E+04  d E =-.113453E-04
 BRION: g(F)=  0.531E-04 g(S)=  0.000E+00 retain N=  1 mean eig= 0.21
 eig:   0.209
 bond charge predicted
       N       E                     dE             d eps       ncg     rms          rms(c)
DAV:   1    -0.332590891563E+04   -0.75934E-04   -0.84059E-03  3648   0.932E-02    0.156E-02
DAV:   2    -0.332590892886E+04   -0.13237E-04   -0.17564E-04  3776   0.117E-02    0.116E-02
DAV:   3    -0.332590892764E+04    0.12257E-05   -0.46309E-06  3360   0.262E-03    0.656E-03
DAV:   4    -0.332590892778E+04   -0.13644E-06   -0.27400E-06  3136   0.214E-03
  76 F= -.33400373E+04 E0= -.33400373E+04  d E =-.522598E-04
 BRION: g(F)=  0.616E-04 g(S)=  0.000E+00 retain N=  2 mean eig= 0.26
 eig:   0.261  0.261
 bond charge predicted
       N       E                     dE             d eps       ncg     rms          rms(c)
DAV:   1    -0.332590895757E+04   -0.29934E-04   -0.13325E-03  3648   0.380E-02    0.657E-03
DAV:   2    -0.332590896010E+04   -0.25266E-05   -0.33752E-05  3904   0.518E-03    0.504E-03
DAV:   3    -0.332590895982E+04    0.28289E-06   -0.78887E-07  2688   0.123E-03
  77 F= -.33400373E+04 E0= -.33400373E+04  d E =-.195233E-04
 BRION: g(F)=  0.637E-04 g(S)=  0.000E+00 retain N=  1 mean eig= 0.17
 eig:   0.172
 bond charge predicted
       N       E                     dE             d eps       ncg     rms          rms(c)
DAV:   1    -0.332590901213E+04   -0.52030E-04   -0.46707E-03  3648   0.694E-02    0.114E-02
DAV:   2    -0.332590902130E+04   -0.91682E-05   -0.11469E-04  3776   0.884E-03    0.945E-03
DAV:   3    -0.332590902051E+04    0.78278E-06   -0.26932E-06  3168   0.191E-03
  78 F= -.33400374E+04 E0= -.33400374E+04  d E =-.350729E-04
 BRION: g(F)=  0.101E-03 g(S)=  0.000E+00 retain N=  2 mean eig= 0.33
 eig:   0.115  0.551
 bond charge predicted
       N       E                     dE             d eps       ncg     rms          rms(c)
DAV:   1    -0.332590903890E+04   -0.17602E-04   -0.56952E-04  3680   0.224E-02    0.479E-03
DAV:   2    -0.332590904058E+04   -0.16834E-05   -0.20748E-05  3616   0.330E-03    0.408E-03
DAV:   3    -0.332590904044E+04    0.14273E-06   -0.26440E-07  2784   0.785E-04
  79 F= -.33400374E+04 E0= -.33400374E+04  d E =-.146948E-04
 BRION: g(F)=  0.542E-04 g(S)=  0.000E+00 retain N=  1 mean eig= 0.20
 eig:   0.195
 bond charge predicted
       N       E                     dE             d eps       ncg     rms          rms(c)
DAV:   1    -0.332590910817E+04   -0.67583E-04   -0.79968E-03  3648   0.915E-02    0.149E-02
DAV:   2    -0.332590912121E+04   -0.13042E-04   -0.17405E-04  3744   0.116E-02    0.114E-02
DAV:   3    -0.332590911990E+04    0.13071E-05   -0.46757E-06  3456   0.260E-03    0.681E-03
DAV:   4    -0.332590911979E+04    0.11409E-06   -0.28761E-06  3168   0.219E-03
  80 F= -.33400374E+04 E0= -.33400374E+04  d E =-.464344E-04
 BRION: g(F)=  0.910E-04 g(S)=  0.000E+00 retain N=  2 mean eig= 0.14
 eig:   0.140  0.140
 bond charge predicted
       N       E                     dE             d eps       ncg     rms          rms(c)
DAV:   1    -0.332590914625E+04   -0.26345E-04   -0.10560E-03  3712   0.340E-02    0.641E-03
DAV:   2    -0.332590914828E+04   -0.20381E-05   -0.29744E-05  4000   0.486E-03    0.499E-03
DAV:   3    -0.332590914796E+04    0.31921E-06   -0.81571E-07  2720   0.122E-03
  81 F= -.33400374E+04 E0= -.33400374E+04  d E =-.184074E-04
 BRION: g(F)=  0.496E-04 g(S)=  0.000E+00 retain N=  1 mean eig= 0.19
 eig:   0.187
 reached required accuracy - stopping structural energy minimisation
 PROFILE, used timers:     332
