 running  128 mpi-ranks, with    1 threads/rank, on    7 nodes
 distrk:  each k-point on   64 cores,    2 groups
 distr:  one band on    2 cores,   32 groups
 vasp.6.4.1 05Apr23 (build May 18 2023 13:19:41) complex                         
 POSCAR found type information on POSCAR C S O 
 POSCAR found :  3 types and     367 ions
 Reading from existing POTCAR
 scaLAPACK will be used
 Reading from existing POTCAR
 -----------------------------------------------------------------------------
|                                                                             |
|               ----> ADVICE to this user running VASP <----                  |
|                                                                             |
|     You have a (more or less) 'large supercell' and for larger cells it     |
|     might be more efficient to use real-space projection operators.         |
|     Therefore, try LREAL= Auto in the INCAR file.                           |
|     Mind: If you want to do very accurate calculations, keep the            |
|     reciprocal projection scheme (i.e. LREAL=.FALSE.).                      |
|                                                                             |
 -----------------------------------------------------------------------------

 LDA part: xc-table for Pade appr. of Perdew
 POSCAR, INCAR and KPOINTS ok, starting setup
 FFT: planning ... GRIDC
 FFT: planning ... GRID_SOFT
 FFT: planning ... GRID
 WAVECAR not read
 charge-density read from file: 01_AOPT                                 
 WARNING: random wavefunctions but no delay for mixing, default for NELMDL
 entering main loop
       N       E                     dE             d eps       ncg     rms          rms(c)
DAV:   1     0.113467535833E+05    0.11347E+05   -0.41746E+05  4288   0.938E+02
DAV:   2     0.407950732258E+03   -0.10939E+05   -0.10182E+05  5600   0.213E+02
DAV:   3    -0.301693611426E+04   -0.34249E+04   -0.32734E+04  4608   0.116E+02
DAV:   4    -0.331414860215E+04   -0.29721E+03   -0.28555E+03  4512   0.388E+01
DAV:   5    -0.332550744186E+04   -0.11359E+02   -0.11103E+02  5088   0.676E+00    0.131E-01
DAV:   6    -0.332579903408E+04   -0.29159E+00   -0.28701E+00  4832   0.108E+00    0.682E-02
DAV:   7    -0.332581404570E+04   -0.15012E-01   -0.15038E-01  4928   0.220E-01    0.483E-02
DAV:   8    -0.332581436398E+04   -0.31828E-03   -0.36782E-03  4768   0.420E-02    0.361E-02
DAV:   9    -0.332581435468E+04    0.92960E-05   -0.19041E-04  4576   0.936E-03    0.285E-02
DAV:  10    -0.332581432861E+04    0.26067E-04   -0.15707E-05  3936   0.452E-03    0.184E-02
DAV:  11    -0.332581431074E+04    0.17876E-04   -0.10195E-05  4128   0.368E-03    0.949E-03
DAV:  12    -0.332581430115E+04    0.95835E-05   -0.22112E-06  3328   0.181E-03    0.556E-03
DAV:  13    -0.332581429300E+04    0.81507E-05   -0.14977E-06  3104   0.155E-03    0.173E-03
DAV:  14    -0.332581429018E+04    0.28282E-05   -0.23968E-07  2528   0.813E-04    0.489E-04
DAV:  15    -0.332581428985E+04    0.32631E-06    0.19677E-07  2464   0.419E-04
   1 F= -.33399749E+04 E0= -.33399749E+04  d E =-.333997E+04
 BRION: g(F)=  0.176E-02 g(S)=  0.000E+00
 bond charge predicted
       N       E                     dE             d eps       ncg     rms          rms(c)
DAV:   1    -0.332581611457E+04   -0.18244E-02   -0.36535E-01  3968   0.278E-01    0.844E-02
DAV:   2    -0.332581653926E+04   -0.42469E-03   -0.50913E-03  3936   0.253E-02    0.491E-02
DAV:   3    -0.332581655003E+04   -0.10770E-04   -0.87380E-05  4032   0.436E-03    0.206E-02
DAV:   4    -0.332581657074E+04   -0.20710E-04   -0.18215E-05  3584   0.224E-03    0.596E-03
DAV:   5    -0.332581657155E+04   -0.81246E-06   -0.22091E-06  3136   0.102E-03
   2 F= -.33399767E+04 E0= -.33399767E+04  d E =-.173192E-02
 BRION: g(F)=  0.175E-02 g(S)=  0.000E+00 retain N=  1 mean eig= 0.34
 eig:   0.336
 bond charge predicted
       N       E                     dE             d eps       ncg     rms          rms(c)
DAV:   1    -0.332581766124E+04   -0.10905E-02   -0.11772E-01  3744   0.157E-01    0.488E-02
DAV:   2    -0.332581778805E+04   -0.12681E-03   -0.15672E-03  3872   0.142E-02    0.291E-02
DAV:   3    -0.332581779085E+04   -0.27997E-05   -0.33565E-05  3584   0.284E-03    0.113E-02
DAV:   4    -0.332581779484E+04   -0.39866E-05   -0.62404E-06  3360   0.156E-03    0.444E-03
DAV:   5    -0.332581779514E+04   -0.30594E-06   -0.94581E-07  2976   0.682E-04
   3 F= -.33399776E+04 E0= -.33399776E+04  d E =-.916503E-03
 BRION: g(F)=  0.207E-02 g(S)=  0.000E+00 retain N=  1 mean eig= 0.17
 eig:   0.165
 bond charge predicted
       N       E                     dE             d eps       ncg     rms          rms(c)
DAV:   1    -0.332581899404E+04   -0.11992E-02   -0.13174E-01  3712   0.166E-01    0.512E-02
DAV:   2    -0.332581913078E+04   -0.13674E-03   -0.17036E-03  3776   0.150E-02    0.302E-02
DAV:   3    -0.332581913579E+04   -0.50110E-05   -0.36507E-05  3520   0.292E-03    0.115E-02
DAV:   4    -0.332581914130E+04   -0.55083E-05   -0.62632E-06  3232   0.154E-03    0.444E-03
DAV:   5    -0.332581914173E+04   -0.43015E-06   -0.89409E-07  2848   0.684E-04
   4 F= -.33399786E+04 E0= -.33399786E+04  d E =-.102113E-02
 BRION: g(F)=  0.160E-02 g(S)=  0.000E+00 retain N=  1 mean eig= 0.17
 eig:   0.166
 bond charge predicted
       N       E                     dE             d eps       ncg     rms          rms(c)
DAV:   1    -0.332582071435E+04   -0.15731E-02   -0.26517E-01  3648   0.236E-01    0.716E-02
DAV:   2    -0.332582097379E+04   -0.25943E-03   -0.32258E-03  3712   0.205E-02    0.410E-02
DAV:   3    -0.332582098370E+04   -0.99097E-05   -0.63133E-05  3648   0.372E-03    0.155E-02
DAV:   4    -0.332582099562E+04   -0.11922E-04   -0.10487E-05  3200   0.173E-03    0.521E-03
DAV:   5    -0.332582099629E+04   -0.66776E-06   -0.96186E-07  2944   0.748E-04
   5 F= -.33399800E+04 E0= -.33399800E+04  d E =-.138761E-02
 BRION: g(F)=  0.154E-02 g(S)=  0.000E+00 retain N=  1 mean eig= 0.26
 eig:   0.264
 bond charge predicted
       N       E                     dE             d eps       ncg     rms          rms(c)
DAV:   1    -0.332582237849E+04   -0.13829E-02   -0.21163E-01  3712   0.210E-01    0.642E-02
DAV:   2    -0.332582258870E+04   -0.21021E-03   -0.26088E-03  3712   0.184E-02    0.372E-02
DAV:   3    -0.332582259699E+04   -0.82869E-05   -0.52292E-05  3584   0.339E-03    0.138E-02
DAV:   4    -0.332582260561E+04   -0.86264E-05   -0.82462E-06  3232   0.165E-03    0.486E-03
DAV:   5    -0.332582260622E+04   -0.60617E-06   -0.88260E-07  2784   0.712E-04
   6 F= -.33399812E+04 E0= -.33399812E+04  d E =-.119304E-02
 BRION: g(F)=  0.168E-02 g(S)=  0.000E+00 retain N=  1 mean eig= 0.18
 eig:   0.178
 bond charge predicted
       N       E                     dE             d eps       ncg     rms          rms(c)
DAV:   1    -0.332582343013E+04   -0.82452E-03   -0.66992E-02  3712   0.118E-01    0.370E-02
DAV:   2    -0.332582350078E+04   -0.70646E-04   -0.87802E-04  3648   0.106E-02    0.220E-02
DAV:   3    -0.332582350214E+04   -0.13650E-05   -0.19095E-05  3392   0.214E-03    0.853E-03
DAV:   4    -0.332582350459E+04   -0.24409E-05   -0.35272E-06  3136   0.118E-03    0.338E-03
DAV:   5    -0.332582350483E+04   -0.24762E-06   -0.41225E-07  2816   0.523E-04
   7 F= -.33399819E+04 E0= -.33399819E+04  d E =-.669411E-03
 BRION: g(F)=  0.148E-02 g(S)=  0.000E+00 retain N=  1 mean eig= 0.17
 eig:   0.167
 bond charge predicted
       N       E                     dE             d eps       ncg     rms          rms(c)
DAV:   1    -0.332582491041E+04   -0.14058E-02   -0.22658E-01  3648   0.217E-01    0.662E-02
DAV:   2    -0.332582512683E+04   -0.21642E-03   -0.27146E-03  3712   0.187E-02    0.379E-02
DAV:   3    -0.332582513512E+04   -0.82962E-05   -0.54122E-05  3616   0.341E-03    0.141E-02
DAV:   4    -0.332582514437E+04   -0.92424E-05   -0.86912E-06  3168   0.158E-03    0.480E-03
DAV:   5    -0.332582514498E+04   -0.61258E-06   -0.73901E-07  2752   0.685E-04
   8 F= -.33399831E+04 E0= -.33399831E+04  d E =-.121020E-02
 BRION: g(F)=  0.138E-02 g(S)=  0.000E+00 retain N=  1 mean eig= 0.22
 eig:   0.215
 bond charge predicted
       N       E                     dE             d eps       ncg     rms          rms(c)
DAV:   1    -0.332582644343E+04   -0.12991E-02   -0.19848E-01  3648   0.202E-01    0.622E-02
DAV:   2    -0.332582663656E+04   -0.19313E-03   -0.24073E-03  3712   0.175E-02    0.360E-02
DAV:   3    -0.332582664309E+04   -0.65301E-05   -0.47598E-05  3552   0.320E-03    0.132E-02
DAV:   4    -0.332582665039E+04   -0.73046E-05   -0.71733E-06  3232   0.150E-03    0.455E-03
DAV:   5    -0.332582665091E+04   -0.51339E-06   -0.62562E-07  2752   0.640E-04
   9 F= -.33399842E+04 E0= -.33399842E+04  d E =-.110094E-02
 BRION: g(F)=  0.144E-02 g(S)=  0.000E+00 retain N=  1 mean eig= 0.20
 eig:   0.202
 bond charge predicted
       N       E                     dE             d eps       ncg     rms          rms(c)
DAV:   1    -0.332582747197E+04   -0.82158E-03   -0.75656E-02  3648   0.125E-01    0.390E-02
DAV:   2    -0.332582754832E+04   -0.76350E-04   -0.96600E-04  3616   0.111E-02    0.227E-02
DAV:   3    -0.332582754994E+04   -0.16220E-05   -0.20104E-05  3488   0.218E-03    0.887E-03
DAV:   4    -0.332582755298E+04   -0.30363E-05   -0.38089E-06  3008   0.117E-03    0.328E-03
DAV:   5    -0.332582755329E+04   -0.30547E-06   -0.36891E-07  2784   0.517E-04
  10 F= -.33399848E+04 E0= -.33399848E+04  d E =-.660450E-03
 BRION: g(F)=  0.135E-02 g(S)=  0.000E+00 retain N=  1 mean eig= 0.17
 eig:   0.167
 bond charge predicted
       N       E                     dE             d eps       ncg     rms          rms(c)
DAV:   1    -0.332582877097E+04   -0.12180E-02   -0.17906E-01  3648   0.192E-01    0.591E-02
DAV:   2    -0.332582894184E+04   -0.17087E-03   -0.21452E-03  3712   0.165E-02    0.340E-02
DAV:   3    -0.332582894727E+04   -0.54273E-05   -0.42795E-05  3584   0.303E-03    0.126E-02
DAV:   4    -0.332582895378E+04   -0.65088E-05   -0.66949E-06  3040   0.143E-03    0.433E-03
DAV:   5    -0.332582895422E+04   -0.44133E-06   -0.55209E-07  2912   0.608E-04
  11 F= -.33399859E+04 E0= -.33399859E+04  d E =-.101895E-02
 BRION: g(F)=  0.126E-02 g(S)=  0.000E+00 retain N=  1 mean eig= 0.21
 eig:   0.205
 bond charge predicted
       N       E                     dE             d eps       ncg     rms          rms(c)
DAV:   1    -0.332583011651E+04   -0.11627E-02   -0.16885E-01  3648   0.186E-01    0.575E-02
DAV:   2    -0.332583027855E+04   -0.16204E-03   -0.20355E-03  3712   0.161E-02    0.332E-02
DAV:   3    -0.332583028422E+04   -0.56679E-05   -0.40525E-05  3552   0.292E-03    0.121E-02
DAV:   4    -0.332583029014E+04   -0.59162E-05   -0.58328E-06  2944   0.136E-03    0.415E-03
DAV:   5    -0.332583029060E+04   -0.46345E-06   -0.45232E-07  2784   0.591E-04
  12 F= -.33399868E+04 E0= -.33399868E+04  d E =-.963975E-03
 BRION: g(F)=  0.127E-02 g(S)=  0.000E+00 retain N=  1 mean eig= 0.19
 eig:   0.187
 bond charge predicted
       N       E                     dE             d eps       ncg     rms          rms(c)
DAV:   1    -0.332583114785E+04   -0.85771E-03   -0.91265E-02  3648   0.137E-01    0.428E-02
DAV:   2    -0.332583123557E+04   -0.87720E-04   -0.11212E-03  3648   0.118E-02    0.245E-02
DAV:   3    -0.332583123682E+04   -0.12452E-05   -0.22802E-05  3520   0.231E-03    0.959E-03
DAV:   4    -0.332583124006E+04   -0.32465E-05   -0.44782E-06  3008   0.120E-03    0.339E-03
DAV:   5    -0.332583124035E+04   -0.28522E-06   -0.37576E-07  2912   0.518E-04
  13 F= -.33399875E+04 E0= -.33399875E+04  d E =-.684690E-03
 BRION: g(F)=  0.122E-02 g(S)=  0.000E+00 retain N=  1 mean eig= 0.19
 eig:   0.191
 bond charge predicted
       N       E                     dE             d eps       ncg     rms          rms(c)
DAV:   1    -0.332583231735E+04   -0.10773E-02   -0.14723E-01  3648   0.174E-01    0.538E-02
DAV:   2    -0.332583245686E+04   -0.13951E-03   -0.17586E-03  3712   0.149E-02    0.311E-02
DAV:   3    -0.332583246174E+04   -0.48841E-05   -0.35476E-05  3488   0.272E-03    0.111E-02
DAV:   4    -0.332583246677E+04   -0.50276E-05   -0.47921E-06  2944   0.123E-03    0.385E-03
DAV:   5    -0.332583246720E+04   -0.42934E-06   -0.30521E-07  2816   0.537E-04
  14 F= -.33399884E+04 E0= -.33399884E+04  d E =-.878742E-03
 BRION: g(F)=  0.114E-02 g(S)=  0.000E+00 retain N=  1 mean eig= 0.19
 eig:   0.192
 bond charge predicted
       N       E                     dE             d eps       ncg     rms          rms(c)
DAV:   1    -0.332583354925E+04   -0.10825E-02   -0.16206E-01  3648   0.182E-01    0.563E-02
DAV:   2    -0.332583370167E+04   -0.15242E-03   -0.19312E-03  3712   0.155E-02    0.321E-02
DAV:   3    -0.332583370498E+04   -0.33135E-05   -0.38080E-05  3584   0.287E-03    0.121E-02
DAV:   4    -0.332583371065E+04   -0.56643E-05   -0.65900E-06  3008   0.138E-03    0.410E-03
DAV:   5    -0.332583371108E+04   -0.43376E-06   -0.50848E-07  2816   0.586E-04
  15 F= -.33399893E+04 E0= -.33399893E+04  d E =-.885419E-03
 BRION: g(F)=  0.114E-02 g(S)=  0.000E+00 retain N=  1 mean eig= 0.23
 eig:   0.225
 bond charge predicted
       N       E                     dE             d eps       ncg     rms          rms(c)
DAV:   1    -0.332583451874E+04   -0.80809E-03   -0.85225E-02  3648   0.132E-01    0.412E-02
DAV:   2    -0.332583460127E+04   -0.82530E-04   -0.10393E-03  3616   0.114E-02    0.240E-02
DAV:   3    -0.332583460335E+04   -0.20796E-05   -0.21828E-05  3488   0.219E-03    0.876E-03
DAV:   4    -0.332583460610E+04   -0.27508E-05   -0.32622E-06  2976   0.111E-03    0.327E-03
DAV:   5    -0.332583460639E+04   -0.29593E-06   -0.27075E-07  2752   0.484E-04
  16 F= -.33399899E+04 E0= -.33399899E+04  d E =-.633820E-03
 BRION: g(F)=  0.112E-02 g(S)=  0.000E+00 retain N=  1 mean eig= 0.16
 eig:   0.164
 bond charge predicted
       N       E                     dE             d eps       ncg     rms          rms(c)
DAV:   1    -0.332583553894E+04   -0.93285E-03   -0.11829E-01  3648   0.155E-01    0.484E-02
DAV:   2    -0.332583565079E+04   -0.11185E-03   -0.14097E-03  3648   0.133E-02    0.280E-02
DAV:   3    -0.332583565360E+04   -0.28021E-05   -0.29164E-05  3520   0.249E-03    0.101E-02
DAV:   4    -0.332583565713E+04   -0.35351E-05   -0.41493E-06  3008   0.118E-03    0.362E-03
DAV:   5    -0.332583565743E+04   -0.29651E-06   -0.31322E-07  2848   0.510E-04
  17 F= -.33399906E+04 E0= -.33399906E+04  d E =-.741425E-03
 BRION: g(F)=  0.105E-02 g(S)=  0.000E+00 retain N=  1 mean eig= 0.19
 eig:   0.191
 bond charge predicted
       N       E                     dE             d eps       ncg     rms          rms(c)
DAV:   1    -0.332583659221E+04   -0.93508E-03   -0.13104E-01  3648   0.163E-01    0.511E-02
DAV:   2    -0.332583671310E+04   -0.12089E-03   -0.15589E-03  3712   0.139E-02    0.288E-02
DAV:   3    -0.332583671497E+04   -0.18715E-05   -0.31058E-05  3616   0.262E-03    0.110E-02
DAV:   4    -0.332583671965E+04   -0.46816E-05   -0.59635E-06  3008   0.127E-03    0.368E-03
DAV:   5    -0.332583672006E+04   -0.40885E-06   -0.40340E-07  2752   0.548E-04
  18 F= -.33399914E+04 E0= -.33399914E+04  d E =-.745601E-03
 BRION: g(F)=  0.102E-02 g(S)=  0.000E+00 retain N=  2 mean eig= 3.73
 eig:   0.127  7.330
 bond charge predicted
       N       E                     dE             d eps       ncg     rms          rms(c)
DAV:   1    -0.332583812584E+04   -0.14062E-02   -0.37041E-01  3584   0.274E-01    0.861E-02
DAV:   2    -0.332583848701E+04   -0.36117E-03   -0.45326E-03  3712   0.238E-02    0.508E-02
DAV:   3    -0.332583849538E+04   -0.83706E-05   -0.93570E-05  3744   0.444E-03    0.184E-02
DAV:   4    -0.332583850724E+04   -0.11861E-04   -0.13276E-05  3296   0.189E-03    0.601E-03
DAV:   5    -0.332583850809E+04   -0.84518E-06   -0.82377E-07  2784   0.704E-04
  19 F= -.33399926E+04 E0= -.33399926E+04  d E =-.123043E-02
 BRION: g(F)=  0.122E-02 g(S)=  0.000E+00 retain N=  2 mean eig= 0.23
 eig:   0.189  0.263
 bond charge predicted
       N       E                     dE             d eps       ncg     rms          rms(c)
DAV:   1    -0.332583807333E+04    0.43391E-03   -0.24134E-02  3648   0.690E-02    0.267E-02
DAV:   2    -0.332583810675E+04   -0.33424E-04   -0.44873E-04  3552   0.752E-03    0.172E-02
DAV:   3    -0.332583810475E+04    0.19999E-05   -0.13102E-05  3328   0.187E-03    0.735E-03
DAV:   4    -0.332583810477E+04   -0.14203E-07   -0.27013E-06  3136   0.107E-03
  20 F= -.33399923E+04 E0= -.33399923E+04  d E =0.270323E-03
 BRION: g(F)=  0.109E-02 g(S)=  0.000E+00 retain N=  2 mean eig= 1.25
 eig:   0.177  2.319
 bond charge predicted
       N       E                     dE             d eps       ncg     rms          rms(c)
DAV:   1    -0.332583906841E+04   -0.96365E-03   -0.15118E-01  3584   0.175E-01    0.545E-02
DAV:   2    -0.332583921774E+04   -0.14933E-03   -0.18811E-03  3680   0.151E-02    0.318E-02
DAV:   3    -0.332583921906E+04   -0.13176E-05   -0.37810E-05  3552   0.286E-03    0.121E-02
DAV:   4    -0.332583922404E+04   -0.49801E-05   -0.67609E-06  3040   0.145E-03    0.420E-03
DAV:   5    -0.332583922445E+04   -0.41083E-06   -0.74276E-07  2912   0.627E-04
  21 F= -.33399931E+04 E0= -.33399931E+04  d E =-.775662E-03
 BRION: g(F)=  0.952E-03 g(S)=  0.000E+00 retain N=  2 mean eig= 1.48
 eig:   0.153  2.803
 bond charge predicted
       N       E                     dE             d eps       ncg     rms          rms(c)
DAV:   1    -0.332583991851E+04   -0.69448E-03   -0.69837E-02  3648   0.119E-01    0.377E-02
DAV:   2    -0.332583999162E+04   -0.73104E-04   -0.90068E-04  3552   0.105E-02    0.225E-02
DAV:   3    -0.332583999275E+04   -0.11314E-05   -0.18046E-05  3584   0.200E-03    0.851E-03
DAV:   4    -0.332583999512E+04   -0.23746E-05   -0.25778E-06  2848   0.960E-04    0.281E-03
DAV:   5    -0.332583999536E+04   -0.23819E-06   -0.83540E-08  2752   0.413E-04
  22 F= -.33399937E+04 E0= -.33399937E+04  d E =-.529439E-03
 BRION: g(F)=  0.869E-03 g(S)=  0.000E+00 retain N=  2 mean eig= 3.65
 eig:   0.136  7.166
 bond charge predicted
       N       E                     dE             d eps       ncg     rms          rms(c)
DAV:   1    -0.332584147830E+04   -0.14832E-02   -0.52653E-01  3584   0.327E-01    0.102E-01
DAV:   2    -0.332584195452E+04   -0.47622E-03   -0.61375E-03  3776   0.273E-02    0.576E-02
DAV:   3    -0.332584196188E+04   -0.73643E-05   -0.12275E-04  3776   0.508E-03    0.220E-02
DAV:   4    -0.332584198013E+04   -0.18246E-04   -0.23192E-05  3424   0.237E-03    0.718E-03
DAV:   5    -0.332584198143E+04   -0.13007E-05   -0.22731E-06  2912   0.964E-04    0.292E-03
DAV:   6    -0.332584198190E+04   -0.46636E-06   -0.28505E-08  2688   0.381E-04
  23 F= -.33399950E+04 E0= -.33399950E+04  d E =-.134592E-02
 BRION: g(F)=  0.969E-03 g(S)=  0.000E+00 retain N=  2 mean eig= 0.33
 eig:   0.309  0.357
 bond charge predicted
       N       E                     dE             d eps       ncg     rms          rms(c)
DAV:   1    -0.332584128738E+04    0.69405E-03   -0.62170E-02  3648   0.111E-01    0.383E-02
DAV:   2    -0.332584135094E+04   -0.63559E-04   -0.84608E-04  3680   0.101E-02    0.219E-02
DAV:   3    -0.332584134990E+04    0.10419E-05   -0.20121E-05  3360   0.226E-03    0.932E-03
DAV:   4    -0.332584135180E+04   -0.19000E-05   -0.54049E-06  3136   0.127E-03    0.365E-03
DAV:   5    -0.332584135195E+04   -0.15181E-06   -0.70238E-07  2752   0.566E-04
  24 F= -.33399946E+04 E0= -.33399946E+04  d E =0.428893E-03
 BRION: g(F)=  0.106E-02 g(S)=  0.000E+00 retain N=  2 mean eig= 1.14
 eig:   0.332  1.946
 bond charge predicted
       N       E                     dE             d eps       ncg     rms          rms(c)
DAV:   1    -0.332584251996E+04   -0.11682E-02   -0.26927E-01  3648   0.234E-01    0.732E-02
DAV:   2    -0.332584277434E+04   -0.25438E-03   -0.32159E-03  3680   0.199E-02    0.427E-02
DAV:   3    -0.332584277858E+04   -0.42391E-05   -0.68701E-05  3584   0.379E-03    0.154E-02
DAV:   4    -0.332584278638E+04   -0.78009E-05   -0.10281E-05  3200   0.182E-03    0.553E-03
DAV:   5    -0.332584278686E+04   -0.48021E-06   -0.12518E-06  2880   0.758E-04
  25 F= -.33399955E+04 E0= -.33399955E+04  d E =-.967916E-03
 BRION: g(F)=  0.938E-03 g(S)=  0.000E+00 retain N=  2 mean eig= 1.60
 eig:   0.164  3.043
 bond charge predicted
       N       E                     dE             d eps       ncg     rms          rms(c)
DAV:   1    -0.332584312470E+04   -0.33832E-03   -0.20411E-02  3648   0.643E-02    0.229E-02
DAV:   2    -0.332584314663E+04   -0.21924E-04   -0.30338E-04  3488   0.601E-03    0.127E-02
DAV:   3    -0.332584314561E+04    0.10211E-05   -0.65480E-06  3104   0.136E-03    0.572E-03
DAV:   4    -0.332584314633E+04   -0.72632E-06   -0.19758E-06  2976   0.806E-04
  26 F= -.33399958E+04 E0= -.33399958E+04  d E =-.248609E-03
 BRION: g(F)=  0.745E-03 g(S)=  0.000E+00 retain N=  2 mean eig= 3.30
 eig:   0.149  6.449
 bond charge predicted
       N       E                     dE             d eps       ncg     rms          rms(c)
DAV:   1    -0.332584438175E+04   -0.12361E-02   -0.34840E-01  3648   0.265E-01    0.833E-02
DAV:   2    -0.332584471479E+04   -0.33304E-03   -0.41931E-03  3680   0.225E-02    0.482E-02
DAV:   3    -0.332584472291E+04   -0.81252E-05   -0.81170E-05  3680   0.404E-03    0.174E-02
DAV:   4    -0.332584473428E+04   -0.11367E-04   -0.11731E-05  3232   0.177E-03    0.568E-03
DAV:   5    -0.332584473506E+04   -0.78301E-06   -0.81988E-07  2784   0.706E-04
  27 F= -.33399968E+04 E0= -.33399968E+04  d E =-.105190E-02
 BRION: g(F)=  0.804E-03 g(S)=  0.000E+00 retain N=  2 mean eig= 0.23
 eig:   0.123  0.337
 bond charge predicted
       N       E                     dE             d eps       ncg     rms          rms(c)
DAV:   1    -0.332584425427E+04    0.48001E-03   -0.28520E-02  3648   0.755E-02    0.259E-02
DAV:   2    -0.332584429040E+04   -0.36136E-04   -0.45393E-04  3520   0.736E-03    0.165E-02
DAV:   3    -0.332584428962E+04    0.78673E-06   -0.10363E-05  3264   0.164E-03    0.694E-03
DAV:   4    -0.332584429025E+04   -0.62957E-06   -0.20349E-06  3072   0.929E-04
  28 F= -.33399965E+04 E0= -.33399965E+04  d E =0.292167E-03
 BRION: g(F)=  0.827E-03 g(S)=  0.000E+00 retain N=  2 mean eig= 0.85
 eig:   0.141  1.565
 bond charge predicted
       N       E                     dE             d eps       ncg     rms          rms(c)
DAV:   1    -0.332584524626E+04   -0.95664E-03   -0.18934E-01  3648   0.196E-01    0.609E-02
DAV:   2    -0.332584542679E+04   -0.18054E-03   -0.22933E-03  3680   0.165E-02    0.352E-02
DAV:   3    -0.332584542868E+04   -0.18892E-05   -0.45571E-05  3584   0.307E-03    0.130E-02
DAV:   4    -0.332584543481E+04   -0.61317E-05   -0.76345E-06  3008   0.149E-03    0.442E-03
DAV:   5    -0.332584543529E+04   -0.47241E-06   -0.67759E-07  2848   0.625E-04
  29 F= -.33399973E+04 E0= -.33399973E+04  d E =-.758509E-03
 BRION: g(F)=  0.736E-03 g(S)=  0.000E+00 retain N=  2 mean eig= 1.80
 eig:   0.157  3.436
 bond charge predicted
       N       E                     dE             d eps       ncg     rms          rms(c)
DAV:   1    -0.332584585877E+04   -0.42395E-03   -0.29435E-02  3648   0.767E-02    0.252E-02
DAV:   2    -0.332584589209E+04   -0.33323E-04   -0.40779E-04  3488   0.705E-03    0.153E-02
DAV:   3    -0.332584589240E+04   -0.31258E-06   -0.83579E-06  3328   0.142E-03
  30 F= -.33399976E+04 E0= -.33399976E+04  d E =-.300270E-03
 BRION: g(F)=  0.675E-03 g(S)=  0.000E+00 retain N=  2 mean eig= 2.73
 eig:   0.114  5.344
 bond charge predicted
       N       E                     dE             d eps       ncg     rms          rms(c)
DAV:   1    -0.332584713857E+04   -0.12465E-02   -0.43355E-01  3584   0.296E-01    0.938E-02
DAV:   2    -0.332584752945E+04   -0.39088E-03   -0.50705E-03  3776   0.246E-02    0.528E-02
DAV:   3    -0.332584753715E+04   -0.77005E-05   -0.10143E-04  3680   0.460E-03    0.201E-02
DAV:   4    -0.332584755275E+04   -0.15593E-04   -0.19102E-05  3360   0.217E-03    0.656E-03
DAV:   5    -0.332584755389E+04   -0.11474E-05   -0.18383E-06  2848   0.888E-04    0.270E-03
DAV:   6    -0.332584755432E+04   -0.42527E-06    0.19408E-08  2656   0.357E-04
  31 F= -.33399987E+04 E0= -.33399987E+04  d E =-.108104E-02
 BRION: g(F)=  0.764E-03 g(S)=  0.000E+00 retain N=  2 mean eig= 0.28
 eig:   0.237  0.318
 bond charge predicted
       N       E                     dE             d eps       ncg     rms          rms(c)
DAV:   1    -0.332584677603E+04    0.77786E-03   -0.83016E-02  3648   0.129E-01    0.420E-02
DAV:   2    -0.332584685505E+04   -0.79018E-04   -0.10291E-03  3648   0.110E-02    0.240E-02
DAV:   3    -0.332584685567E+04   -0.62224E-06   -0.22424E-05  3424   0.232E-03    0.945E-03
DAV:   4    -0.332584685849E+04   -0.28153E-05   -0.52919E-06  3200   0.123E-03    0.354E-03
DAV:   5    -0.332584685869E+04   -0.20396E-06   -0.54617E-07  2752   0.535E-04
  32 F= -.33399982E+04 E0= -.33399982E+04  d E =0.451876E-03
 BRION: g(F)=  0.758E-03 g(S)=  0.000E+00 retain N=  2 mean eig= 1.00
 eig:   0.345  1.651
 bond charge predicted
       N       E                     dE             d eps       ncg     rms          rms(c)
DAV:   1    -0.332584775234E+04   -0.89386E-03   -0.17003E-01  3584   0.184E-01    0.580E-02
DAV:   2    -0.332584790883E+04   -0.15648E-03   -0.19958E-03  3648   0.155E-02    0.335E-02
DAV:   3    -0.332584791224E+04   -0.34114E-05   -0.41670E-05  3552   0.289E-03    0.119E-02
DAV:   4    -0.332584791755E+04   -0.53096E-05   -0.60383E-06  3008   0.135E-03    0.420E-03
DAV:   5    -0.332584791787E+04   -0.32398E-06   -0.51287E-07  2880   0.571E-04
  33 F= -.33399989E+04 E0= -.33399989E+04  d E =-.689200E-03
 BRION: g(F)=  0.649E-03 g(S)=  0.000E+00 retain N=  2 mean eig= 1.81
 eig:   0.175  3.447
 bond charge predicted
       N       E                     dE             d eps       ncg     rms          rms(c)
DAV:   1    -0.332584839601E+04   -0.47846E-03   -0.45379E-02  3584   0.947E-02    0.305E-02
DAV:   2    -0.332584843834E+04   -0.42334E-04   -0.55354E-04  3552   0.809E-03    0.171E-02
DAV:   3    -0.332584843854E+04   -0.19546E-06   -0.10593E-05  3296   0.157E-03    0.669E-03
DAV:   4    -0.332584844022E+04   -0.16877E-05   -0.21727E-06  2880   0.803E-04    0.220E-03
DAV:   5    -0.332584844039E+04   -0.16985E-06    0.37496E-08  2592   0.350E-04
  34 F= -.33399993E+04 E0= -.33399993E+04  d E =-.339626E-03
 BRION: g(F)=  0.605E-03 g(S)=  0.000E+00 retain N=  2 mean eig= 2.68
 eig:   0.147  5.219
 bond charge predicted
       N       E                     dE             d eps       ncg     rms          rms(c)
DAV:   1    -0.332584959910E+04   -0.11589E-02   -0.37057E-01  3584   0.271E-01    0.857E-02
DAV:   2    -0.332584993318E+04   -0.33408E-03   -0.42825E-03  3680   0.225E-02    0.493E-02
DAV:   3    -0.332584994267E+04   -0.94910E-05   -0.87849E-05  3648   0.411E-03    0.173E-02
DAV:   4    -0.332584995418E+04   -0.11515E-04   -0.12022E-05  3232   0.175E-03    0.587E-03
DAV:   5    -0.332584995502E+04   -0.83831E-06   -0.76156E-07  2784   0.666E-04
  35 F= -.33400002E+04 E0= -.33400002E+04  d E =-.964951E-03
 BRION: g(F)=  0.635E-03 g(S)=  0.000E+00 retain N=  2 mean eig= 0.28
 eig:   0.260  0.304
 bond charge predicted
       N       E                     dE             d eps       ncg     rms          rms(c)
DAV:   1    -0.332584943742E+04    0.51676E-03   -0.36001E-02  3584   0.832E-02    0.288E-02
DAV:   2    -0.332584948200E+04   -0.44586E-04   -0.55891E-04  3520   0.805E-03    0.182E-02
DAV:   3    -0.332584948113E+04    0.86951E-06   -0.12674E-05  3264   0.177E-03    0.761E-03
DAV:   4    -0.332584948189E+04   -0.75961E-06   -0.25344E-06  3072   0.101E-03
  36 F= -.33399999E+04 E0= -.33399999E+04  d E =0.302308E-03
 BRION: g(F)=  0.759E-03 g(S)=  0.000E+00 retain N=  2 mean eig= 0.48
 eig:   0.074  0.893
 bond charge predicted
       N       E                     dE             d eps       ncg     rms          rms(c)
DAV:   1    -0.332585045415E+04   -0.97301E-03   -0.25248E-01  3584   0.223E-01    0.705E-02
DAV:   2    -0.332585069354E+04   -0.23939E-03   -0.30533E-03  3680   0.188E-02    0.409E-02
DAV:   3    -0.332585069620E+04   -0.26580E-05   -0.61613E-05  3616   0.352E-03    0.151E-02
DAV:   4    -0.332585070433E+04   -0.81349E-05   -0.10484E-05  3168   0.172E-03    0.517E-03
DAV:   5    -0.332585070494E+04   -0.61118E-06   -0.10551E-06  2880   0.707E-04
  37 F= -.33400007E+04 E0= -.33400007E+04  d E =-.778984E-03
 BRION: g(F)=  0.648E-03 g(S)=  0.000E+00 retain N=  2 mean eig= 2.09
 eig:   0.153  4.025
 bond charge predicted
       N       E                     dE             d eps       ncg     rms          rms(c)
DAV:   1    -0.332585087408E+04   -0.16974E-03   -0.55645E-03  3520   0.324E-02    0.137E-02
DAV:   2    -0.332585088271E+04   -0.86353E-05   -0.10901E-04  3360   0.368E-03    0.843E-03
DAV:   3    -0.332585088264E+04    0.72876E-07   -0.29098E-06  2912   0.922E-04
  38 F= -.33400008E+04 E0= -.33400008E+04  d E =-.114543E-03
 BRION: g(F)=  0.532E-03 g(S)=  0.000E+00 retain N=  2 mean eig= 2.33
 eig:   0.125  4.541
 bond charge predicted
       N       E                     dE             d eps       ncg     rms          rms(c)
DAV:   1    -0.332585181692E+04   -0.93421E-03   -0.24606E-01  3584   0.218E-01    0.705E-02
DAV:   2    -0.332585203935E+04   -0.22243E-03   -0.28806E-03  3712   0.183E-02    0.399E-02
DAV:   3    -0.332585204373E+04   -0.43842E-05   -0.57856E-05  3584   0.341E-03    0.148E-02
DAV:   4    -0.332585205233E+04   -0.86003E-05   -0.10443E-05  3136   0.160E-03    0.493E-03
DAV:   5    -0.332585205300E+04   -0.67148E-06   -0.86896E-07  2688   0.667E-04
  39 F= -.33400016E+04 E0= -.33400016E+04  d E =-.733062E-03
 BRION: g(F)=  0.567E-03 g(S)=  0.000E+00 retain N=  2 mean eig= 0.25
 eig:   0.127  0.379
 bond charge predicted
       N       E                     dE             d eps       ncg     rms          rms(c)
DAV:   1    -0.332585168428E+04    0.36806E-03   -0.24030E-02  3584   0.678E-02    0.231E-02
DAV:   2    -0.332585171009E+04   -0.25814E-04   -0.32743E-04  3328   0.606E-03    0.135E-02
DAV:   3    -0.332585171000E+04    0.90455E-07   -0.68307E-06  3104   0.133E-03
  40 F= -.33400013E+04 E0= -.33400013E+04  d E =0.215054E-03
 BRION: g(F)=  0.578E-03 g(S)=  0.000E+00 retain N=  2 mean eig= 1.02
 eig:   0.414  1.623
 bond charge predicted
       N       E                     dE             d eps       ncg     rms          rms(c)
DAV:   1    -0.332585237830E+04   -0.66821E-03   -0.10665E-01  3584   0.143E-01    0.452E-02
DAV:   2    -0.332585248437E+04   -0.10607E-03   -0.13184E-03  3520   0.123E-02    0.262E-02
DAV:   3    -0.332585248519E+04   -0.82690E-06   -0.24358E-05  3552   0.217E-03    0.966E-03
DAV:   4    -0.332585248874E+04   -0.35410E-05   -0.39675E-06  2848   0.104E-03    0.309E-03
DAV:   5    -0.332585248901E+04   -0.27358E-06   -0.12863E-07  2720   0.427E-04
  41 F= -.33400018E+04 E0= -.33400018E+04  d E =-.487445E-03
 BRION: g(F)=  0.500E-03 g(S)=  0.000E+00 retain N=  2 mean eig= 1.51
 eig:   0.197  2.816
 bond charge predicted
       N       E                     dE             d eps       ncg     rms          rms(c)
DAV:   1    -0.332585316261E+04   -0.67387E-03   -0.12303E-01  3584   0.154E-01    0.498E-02
DAV:   2    -0.332585327289E+04   -0.11028E-03   -0.14409E-03  3648   0.129E-02    0.280E-02
DAV:   3    -0.332585327377E+04   -0.88161E-06   -0.28807E-05  3616   0.246E-03    0.106E-02
DAV:   4    -0.332585327793E+04   -0.41536E-05   -0.56532E-06  3040   0.119E-03    0.353E-03
DAV:   5    -0.332585327828E+04   -0.35460E-06   -0.34086E-07  2720   0.506E-04
  42 F= -.33400023E+04 E0= -.33400023E+04  d E =-.486061E-03
 BRION: g(F)=  0.598E-03 g(S)=  0.000E+00 retain N=  2 mean eig= 2.21
 eig:   0.129  4.290
 bond charge predicted
       N       E                     dE             d eps       ncg     rms          rms(c)
DAV:   1    -0.332585455782E+04   -0.12799E-02   -0.86041E-01  3584   0.405E-01    0.131E-01
DAV:   2    -0.332585534677E+04   -0.78895E-03   -0.10073E-02  3680   0.340E-02    0.758E-02
DAV:   3    -0.332585536710E+04   -0.20335E-04   -0.20777E-04  3872   0.626E-03    0.269E-02
DAV:   4    -0.332585539411E+04   -0.27004E-04   -0.29452E-05  3520   0.265E-03    0.899E-03
DAV:   5    -0.332585539598E+04   -0.18739E-05   -0.21328E-06  2912   0.947E-04    0.387E-03
DAV:   6    -0.332585539661E+04   -0.63144E-06   -0.20802E-07  2784   0.489E-04
  43 F= -.33400036E+04 E0= -.33400036E+04  d E =-.127898E-02
 BRION: g(F)=  0.757E-03 g(S)=  0.000E+00 retain N=  2 mean eig= 0.21
 eig:   0.211  0.211
 bond charge predicted
       N       E                     dE             d eps       ncg     rms          rms(c)
DAV:   1    -0.332585248099E+04    0.29150E-02   -0.84278E-01  3584   0.398E-01    0.129E-01
DAV:   2    -0.332585326071E+04   -0.77972E-03   -0.99665E-03  3680   0.338E-02    0.753E-02
DAV:   3    -0.332585328303E+04   -0.22318E-04   -0.20457E-04  3840   0.624E-03    0.265E-02
DAV:   4    -0.332585330855E+04   -0.25529E-04   -0.30458E-05  3520   0.281E-03    0.916E-03
DAV:   5    -0.332585331011E+04   -0.15594E-05   -0.31831E-06  3072   0.111E-03    0.496E-03
DAV:   6    -0.332585331021E+04   -0.95810E-07   -0.38485E-07  2848   0.573E-04
  44 F= -.33400023E+04 E0= -.33400023E+04  d E =0.125927E-02
 BRION: g(F)=  0.589E-03 g(S)=  0.000E+00 retain N=  2 mean eig= 0.66
 eig:   0.192  1.131
 bond charge predicted
       N       E                     dE             d eps       ncg     rms          rms(c)
DAV:   1    -0.332585437044E+04   -0.10603E-02   -0.39578E-01  3584   0.275E-01    0.883E-02
DAV:   2    -0.332585473690E+04   -0.36647E-03   -0.46641E-03  3680   0.229E-02    0.506E-02
DAV:   3    -0.332585474435E+04   -0.74455E-05   -0.91651E-05  3680   0.417E-03    0.185E-02
DAV:   4    -0.332585475748E+04   -0.13132E-04   -0.14999E-05  3296   0.191E-03    0.609E-03
DAV:   5    -0.332585475827E+04   -0.78965E-06   -0.12416E-06  2752   0.752E-04
  45 F= -.33400032E+04 E0= -.33400032E+04  d E =-.888650E-03
 BRION: g(F)=  0.454E-03 g(S)=  0.000E+00 retain N=  2 mean eig= 2.44
 eig:   0.184  4.690
 bond charge predicted
       N       E                     dE             d eps       ncg     rms          rms(c)
DAV:   1    -0.332585529026E+04   -0.53277E-03   -0.71624E-02  3584   0.116E-01    0.382E-02
DAV:   2    -0.332585536368E+04   -0.73421E-04   -0.91218E-04  3584   0.101E-02    0.225E-02
DAV:   3    -0.332585536492E+04   -0.12473E-05   -0.16902E-05  3424   0.184E-03    0.845E-03
DAV:   4    -0.332585536743E+04   -0.25034E-05   -0.25402E-06  2816   0.883E-04    0.265E-03
DAV:   5    -0.332585536767E+04   -0.24773E-06    0.11776E-08  2592   0.365E-04
  46 F= -.33400036E+04 E0= -.33400036E+04  d E =-.366177E-03
 BRION: g(F)=  0.465E-03 g(S)=  0.000E+00 retain N=  2 mean eig= 1.38
 eig:   0.029  2.737
 bond charge predicted
       N       E                     dE             d eps       ncg     rms          rms(c)
DAV:   1    -0.332585658850E+04   -0.12211E-02   -0.10869E+00  3584   0.453E-01    0.147E-01
DAV:   2    -0.332585755670E+04   -0.96820E-03   -0.12581E-02  3680   0.378E-02    0.834E-02
DAV:   3    -0.332585757930E+04   -0.22601E-04   -0.25392E-04  3968   0.697E-03    0.312E-02
DAV:   4    -0.332585761733E+04   -0.38029E-04   -0.44375E-05  3552   0.319E-03    0.102E-02
DAV:   5    -0.332585761995E+04   -0.26263E-05   -0.42061E-06  2912   0.122E-03    0.413E-03
DAV:   6    -0.332585762091E+04   -0.95379E-06   -0.37800E-07  2848   0.492E-04
  47 F= -.33400049E+04 E0= -.33400049E+04  d E =-.133191E-02
 BRION: g(F)=  0.538E-03 g(S)=  0.000E+00 retain N=  2 mean eig= 0.52
 eig:   0.523  0.523
 bond charge predicted
       N       E                     dE             d eps       ncg     rms          rms(c)
DAV:   1    -0.332585499622E+04    0.26237E-02   -0.78210E-01  3584   0.382E-01    0.124E-01
DAV:   2    -0.332585565923E+04   -0.66301E-03   -0.87510E-03  3680   0.316E-02    0.706E-02
DAV:   3    -0.332585568343E+04   -0.24199E-04   -0.18782E-04  3872   0.616E-03    0.242E-02
DAV:   4    -0.332585570572E+04   -0.22288E-04   -0.33007E-05  3520   0.285E-03    0.917E-03
DAV:   5    -0.332585570691E+04   -0.11859E-05   -0.37210E-06  2976   0.114E-03    0.545E-03
DAV:   6    -0.332585570719E+04   -0.28266E-06   -0.64911E-07  2752   0.587E-04
  48 F= -.33400038E+04 E0= -.33400038E+04  d E =0.113834E-02
 BRION: g(F)=  0.736E-03 g(S)=  0.000E+00 retain N=  2 mean eig= 0.61
 eig:   0.660  0.558
 bond charge predicted
       N       E                     dE             d eps       ncg     rms          rms(c)
DAV:   1    -0.332585678269E+04   -0.10758E-02   -0.51232E-01  3584   0.310E-01    0.101E-01
DAV:   2    -0.332585727275E+04   -0.49006E-03   -0.61984E-03  3680   0.261E-02    0.584E-02
DAV:   3    -0.332585728346E+04   -0.10708E-04   -0.12212E-04  3776   0.481E-03    0.217E-02
DAV:   4    -0.332585730063E+04   -0.17173E-04   -0.19785E-05  3392   0.228E-03    0.716E-03
DAV:   5    -0.332585730162E+04   -0.99069E-06   -0.21258E-06  2976   0.904E-04
  49 F= -.33400047E+04 E0= -.33400047E+04  d E =-.953495E-03
 BRION: g(F)=  0.437E-03 g(S)=  0.000E+00 retain N=  2 mean eig= 3.02
 eig:   0.214  5.818
 bond charge predicted
       N       E                     dE             d eps       ncg     rms          rms(c)
DAV:   1    -0.332585764209E+04   -0.34145E-03   -0.31782E-02  3648   0.770E-02    0.260E-02
DAV:   2    -0.332585767371E+04   -0.31625E-04   -0.41311E-04  3424   0.670E-03    0.145E-02
DAV:   3    -0.332585767358E+04    0.12945E-06   -0.72304E-06  3168   0.132E-03
  50 F= -.33400050E+04 E0= -.33400050E+04  d E =-.221340E-03
 BRION: g(F)=  0.362E-03 g(S)=  0.000E+00 retain N=  2 mean eig= 1.30
 eig:   0.104  2.496
 bond charge predicted
       N       E                     dE             d eps       ncg     rms          rms(c)
DAV:   1    -0.332585857157E+04   -0.89786E-03   -0.32662E-01  3584   0.246E-01    0.809E-02
DAV:   2    -0.332585886640E+04   -0.29484E-03   -0.38117E-03  3680   0.208E-02    0.465E-02
DAV:   3    -0.332585887720E+04   -0.10801E-04   -0.75442E-05  3616   0.375E-03    0.167E-02
DAV:   4    -0.332585888890E+04   -0.11694E-04   -0.11205E-05  3232   0.166E-03    0.551E-03
DAV:   5    -0.332585888978E+04   -0.88324E-06   -0.78886E-07  2784   0.649E-04
  51 F= -.33400057E+04 E0= -.33400057E+04  d E =-.701264E-03
 BRION: g(F)=  0.377E-03 g(S)=  0.000E+00 retain N=  2 mean eig= 0.40
 eig:   0.316  0.486
 bond charge predicted
       N       E                     dE             d eps       ncg     rms          rms(c)
DAV:   1    -0.332585836889E+04    0.52001E-03   -0.45546E-02  3648   0.913E-02    0.317E-02
DAV:   2    -0.332585842277E+04   -0.53880E-04   -0.67828E-04  3520   0.857E-03    0.200E-02
DAV:   3    -0.332585842217E+04    0.59989E-06   -0.14932E-05  3328   0.184E-03    0.822E-03
DAV:   4    -0.332585842339E+04   -0.12210E-05   -0.30372E-06  3040   0.107E-03    0.334E-03
DAV:   5    -0.332585842357E+04   -0.17078E-06   -0.44610E-07  2752   0.485E-04
  52 F= -.33400054E+04 E0= -.33400054E+04  d E =0.274445E-03
 BRION: g(F)=  0.632E-03 g(S)=  0.000E+00 retain N=  2 mean eig= 0.40
 eig:   0.400  0.400
 bond charge predicted
       N       E                     dE             d eps       ncg     rms          rms(c)
DAV:   1    -0.332585918419E+04   -0.76080E-03   -0.21290E-01  3584   0.199E-01    0.653E-02
DAV:   2    -0.332585937901E+04   -0.19482E-03   -0.25413E-03  3680   0.168E-02    0.378E-02
DAV:   3    -0.332585938313E+04   -0.41183E-05   -0.53264E-05  3584   0.320E-03    0.139E-02
DAV:   4    -0.332585939092E+04   -0.77895E-05   -0.88637E-06  3136   0.159E-03    0.491E-03
DAV:   5    -0.332585939149E+04   -0.57509E-06   -0.97834E-07  2848   0.662E-04
  53 F= -.33400059E+04 E0= -.33400059E+04  d E =-.560497E-03
 BRION: g(F)=  0.417E-03 g(S)=  0.000E+00 retain N=  2 mean eig= 3.20
 eig:   0.151  6.248
 bond charge predicted
       N       E                     dE             d eps       ncg     rms          rms(c)
DAV:   1    -0.332585949061E+04   -0.99691E-04   -0.28370E-03  3328   0.222E-02    0.112E-02
DAV:   2    -0.332585949548E+04   -0.48677E-05   -0.63988E-05  3360   0.280E-03    0.653E-03
DAV:   3    -0.332585949552E+04   -0.47497E-07   -0.16668E-06  2816   0.726E-04
  54 F= -.33400060E+04 E0= -.33400060E+04  d E =-.621976E-04
 BRION: g(F)=  0.314E-03 g(S)=  0.000E+00 retain N=  2 mean eig= 1.35
 eig:   0.140  2.562
 bond charge predicted
       N       E                     dE             d eps       ncg     rms          rms(c)
DAV:   1    -0.332586005965E+04   -0.56418E-03   -0.10846E-01  3648   0.141E-01    0.470E-02
DAV:   2    -0.332586015902E+04   -0.99362E-04   -0.12898E-03  3616   0.119E-02    0.266E-02
DAV:   3    -0.332586016246E+04   -0.34441E-05   -0.25057E-05  3520   0.221E-03    0.984E-03
DAV:   4    -0.332586016705E+04   -0.45915E-05   -0.43157E-06  2976   0.105E-03    0.325E-03
DAV:   5    -0.332586016741E+04   -0.35553E-06   -0.19669E-07  2656   0.447E-04
  55 F= -.33400064E+04 E0= -.33400064E+04  d E =-.379769E-03
 BRION: g(F)=  0.322E-03 g(S)=  0.000E+00 retain N=  2 mean eig= 0.22
 eig:   0.072  0.364
 bond charge predicted
       N       E                     dE             d eps       ncg     rms          rms(c)
DAV:   1    -0.332586001645E+04    0.15060E-03   -0.58550E-03  3328   0.326E-02    0.116E-02
DAV:   2    -0.332586002337E+04   -0.69188E-05   -0.85909E-05  3200   0.306E-03    0.702E-03
DAV:   3    -0.332586002341E+04   -0.37369E-07   -0.16144E-06  2816   0.701E-04
  56 F= -.33400063E+04 E0= -.33400063E+04  d E =0.819488E-04
 BRION: g(F)=  0.336E-03 g(S)=  0.000E+00 retain N=  2 mean eig= 0.84
 eig:   0.444  1.240
 bond charge predicted
       N       E                     dE             d eps       ncg     rms          rms(c)
DAV:   1    -0.332586049305E+04   -0.46968E-03   -0.69554E-02  3648   0.113E-01    0.367E-02
DAV:   2    -0.332586055895E+04   -0.65902E-04   -0.83822E-04  3520   0.956E-03    0.211E-02
DAV:   3    -0.332586056076E+04   -0.18153E-05   -0.15719E-05  3424   0.173E-03    0.772E-03
DAV:   4    -0.332586056368E+04   -0.29200E-05   -0.23679E-06  2784   0.821E-04    0.251E-03
DAV:   5    -0.332586056389E+04   -0.20734E-06    0.47711E-08  2592   0.339E-04
  57 F= -.33400066E+04 E0= -.33400066E+04  d E =-.304609E-03
 BRION: g(F)=  0.300E-03 g(S)=  0.000E+00 retain N=  2 mean eig= 2.24
 eig:   0.185  4.291
 bond charge predicted
       N       E                     dE             d eps       ncg     rms          rms(c)
DAV:   1    -0.332586106501E+04   -0.50132E-03   -0.90744E-02  3648   0.129E-01    0.428E-02
DAV:   2    -0.332586114511E+04   -0.80099E-04   -0.10581E-03  3648   0.108E-02    0.240E-02
DAV:   3    -0.332586114767E+04   -0.25609E-05   -0.20826E-05  3584   0.205E-03    0.905E-03
DAV:   4    -0.332586115190E+04   -0.42325E-05   -0.39382E-06  2880   0.989E-04    0.298E-03
DAV:   5    -0.332586115223E+04   -0.33225E-06   -0.14289E-07  2624   0.417E-04
  58 F= -.33400069E+04 E0= -.33400069E+04  d E =-.327103E-03
 BRION: g(F)=  0.360E-03 g(S)=  0.000E+00 retain N=  2 mean eig= 1.25
 eig:   0.146  2.350
 bond charge predicted
       N       E                     dE             d eps       ncg     rms          rms(c)
DAV:   1    -0.332586190897E+04   -0.75707E-03   -0.24773E-01  3648   0.212E-01    0.705E-02
DAV:   2    -0.332586213621E+04   -0.22724E-03   -0.29179E-03  3680   0.180E-02    0.409E-02
DAV:   3    -0.332586214797E+04   -0.11763E-04   -0.59620E-05  3584   0.330E-03    0.143E-02
DAV:   4    -0.332586215928E+04   -0.11313E-04   -0.80156E-06  3104   0.142E-03    0.479E-03
DAV:   5    -0.332586216016E+04   -0.87672E-06   -0.39999E-07  2688   0.546E-04
  59 F= -.33400075E+04 E0= -.33400075E+04  d E =-.556279E-03
 BRION: g(F)=  0.397E-03 g(S)=  0.000E+00 retain N=  2 mean eig= 0.21
 eig:   0.279  0.140
 bond charge predicted
       N       E                     dE             d eps       ncg     rms          rms(c)
DAV:   1    -0.332586073534E+04    0.14239E-02   -0.30647E-01  3584   0.236E-01    0.781E-02
DAV:   2    -0.332586102200E+04   -0.28666E-03   -0.36642E-03  3680   0.199E-02    0.452E-02
DAV:   3    -0.332586103692E+04   -0.14922E-04   -0.72363E-05  3616   0.366E-03    0.160E-02
DAV:   4    -0.332586105098E+04   -0.14061E-04   -0.11128E-05  3264   0.168E-03    0.541E-03
DAV:   5    -0.332586105174E+04   -0.75647E-06   -0.90174E-07  2816   0.670E-04
  60 F= -.33400069E+04 E0= -.33400069E+04  d E =0.610602E-03
 BRION: g(F)=  0.303E-03 g(S)=  0.000E+00 retain N=  2 mean eig= 0.50
 eig:   0.137  0.871
 bond charge predicted
       N       E                     dE             d eps       ncg     rms          rms(c)
DAV:   1    -0.332586168850E+04   -0.63752E-03   -0.15654E-01  3584   0.169E-01    0.558E-02
DAV:   2    -0.332586183146E+04   -0.14296E-03   -0.18482E-03  3616   0.141E-02    0.319E-02
DAV:   3    -0.332586183816E+04   -0.67006E-05   -0.35962E-05  3552   0.258E-03    0.116E-02
DAV:   4    -0.332586184601E+04   -0.78476E-05   -0.57102E-06  2944   0.118E-03    0.377E-03
DAV:   5    -0.332586184648E+04   -0.47055E-06   -0.26499E-07  2720   0.465E-04
  61 F= -.33400073E+04 E0= -.33400073E+04  d E =-.443028E-03
 BRION: g(F)=  0.284E-03 g(S)=  0.000E+00 retain N=  2 mean eig= 3.45
 eig:   0.145  6.754
 bond charge predicted
       N       E                     dE             d eps       ncg     rms          rms(c)
DAV:   1    -0.332586215159E+04   -0.30557E-03   -0.27832E-02  3648   0.712E-02    0.236E-02
DAV:   2    -0.332586217842E+04   -0.26833E-04   -0.34312E-04  3264   0.603E-03    0.137E-02
DAV:   3    -0.332586217999E+04   -0.15647E-05   -0.59605E-06  3168   0.112E-03    0.501E-03
DAV:   4    -0.332586218155E+04   -0.15631E-05   -0.76489E-07  2784   0.546E-04    0.159E-03
DAV:   5    -0.332586218170E+04   -0.15390E-06    0.21653E-07  2432   0.239E-04
  62 F= -.33400075E+04 E0= -.33400075E+04  d E =-.185652E-03
 BRION: g(F)=  0.281E-03 g(S)=  0.000E+00 retain N=  2 mean eig= 0.61
 eig:   0.245  0.972
 bond charge predicted
       N       E                     dE             d eps       ncg     rms          rms(c)
DAV:   1    -0.332586302834E+04   -0.84679E-03   -0.37605E-01  3584   0.262E-01    0.864E-02
DAV:   2    -0.332586334985E+04   -0.32152E-03   -0.42353E-03  3680   0.216E-02    0.490E-02
DAV:   3    -0.332586336633E+04   -0.16473E-04   -0.87495E-05  3584   0.402E-03    0.175E-02
DAV:   4    -0.332586338496E+04   -0.18636E-04   -0.13994E-05  3264   0.180E-03    0.593E-03
DAV:   5    -0.332586338621E+04   -0.12483E-05   -0.10555E-06  2784   0.688E-04    0.222E-03
DAV:   6    -0.332586338654E+04   -0.33365E-06    0.10797E-07  2688   0.283E-04
  63 F= -.33400082E+04 E0= -.33400082E+04  d E =-.665165E-03
 BRION: g(F)=  0.292E-03 g(S)=  0.000E+00 retain N=  2 mean eig= 0.67
 eig:   0.667  0.667
 bond charge predicted
       N       E                     dE             d eps       ncg     rms          rms(c)
DAV:   1    -0.332586294793E+04    0.43828E-03   -0.41574E-02  3648   0.866E-02    0.293E-02
DAV:   2    -0.332586298604E+04   -0.38106E-04   -0.50125E-04  3360   0.738E-03    0.168E-02
DAV:   3    -0.332586298834E+04   -0.22976E-05   -0.10600E-05  3232   0.153E-03    0.630E-03
DAV:   4    -0.332586299045E+04   -0.21151E-05   -0.19590E-06  3008   0.811E-04    0.239E-03
DAV:   5    -0.332586299064E+04   -0.18324E-06   -0.38566E-08  2688   0.352E-04
  64 F= -.33400079E+04 E0= -.33400079E+04  d E =0.220896E-03
 BRION: g(F)=  0.372E-03 g(S)=  0.000E+00 retain N=  2 mean eig= 0.58
 eig:   0.634  0.522
 bond charge predicted
       N       E                     dE             d eps       ncg     rms          rms(c)
DAV:   1    -0.332586330004E+04   -0.30958E-03   -0.28612E-02  3648   0.719E-02    0.242E-02
DAV:   2    -0.332586332653E+04   -0.26497E-04   -0.34801E-04  3264   0.618E-03    0.144E-02
DAV:   3    -0.332586332808E+04   -0.15447E-05   -0.76970E-06  3200   0.129E-03    0.517E-03
DAV:   4    -0.332586332939E+04   -0.13161E-05   -0.10658E-06  2848   0.688E-04    0.206E-03
DAV:   5    -0.332586332950E+04   -0.10477E-06    0.69018E-08  2656   0.305E-04
  65 F= -.33400081E+04 E0= -.33400081E+04  d E =-.189631E-03
 BRION: g(F)=  0.282E-03 g(S)=  0.000E+00 retain N=  1 mean eig= 0.17
 eig:   0.171
 bond charge predicted
       N       E                     dE             d eps       ncg     rms          rms(c)
DAV:   1    -0.332586369690E+04   -0.36751E-03   -0.51947E-02  3584   0.971E-02    0.333E-02
DAV:   2    -0.332586373838E+04   -0.41482E-04   -0.59851E-04  3488   0.806E-03    0.182E-02
DAV:   3    -0.332586373962E+04   -0.12409E-05   -0.12489E-05  3296   0.166E-03    0.712E-03
DAV:   4    -0.332586374253E+04   -0.29051E-05   -0.28309E-06  2912   0.816E-04    0.227E-03
DAV:   5    -0.332586374276E+04   -0.23376E-06   -0.79998E-08  2592   0.370E-04
  66 F= -.33400084E+04 E0= -.33400084E+04  d E =-.225687E-03
 BRION: g(F)=  0.342E-03 g(S)=  0.000E+00 retain N=  2 mean eig= 0.21
 eig:   0.187  0.241
 bond charge predicted
       N       E                     dE             d eps       ncg     rms          rms(c)
DAV:   1    -0.332586387014E+04   -0.12762E-03   -0.42807E-03  3328   0.274E-02    0.116E-02
DAV:   2    -0.332586387595E+04   -0.58102E-05   -0.75611E-05  3328   0.294E-03    0.683E-03
DAV:   3    -0.332586387614E+04   -0.18347E-06   -0.15808E-06  2880   0.716E-04
  67 F= -.33400084E+04 E0= -.33400084E+04  d E =-.756596E-04
 BRION: g(F)=  0.259E-03 g(S)=  0.000E+00 retain N=  1 mean eig= 0.24
 eig:   0.236
 bond charge predicted
       N       E                     dE             d eps       ncg     rms          rms(c)
DAV:   1    -0.332586429027E+04   -0.41431E-03   -0.59758E-02  3584   0.104E-01    0.351E-02
DAV:   2    -0.332586434180E+04   -0.51535E-04   -0.69641E-04  3456   0.864E-03    0.200E-02
DAV:   3    -0.332586434567E+04   -0.38733E-05   -0.13802E-05  3360   0.166E-03    0.712E-03
DAV:   4    -0.332586434900E+04   -0.33317E-05   -0.20668E-06  2816   0.775E-04    0.241E-03
DAV:   5    -0.332586434925E+04   -0.24424E-06    0.72601E-08  2592   0.324E-04
  68 F= -.33400087E+04 E0= -.33400087E+04  d E =-.258849E-03
 BRION: g(F)=  0.270E-03 g(S)=  0.000E+00 retain N=  2 mean eig= 0.29
 eig:   0.184  0.391
 bond charge predicted
       N       E                     dE             d eps       ncg     rms          rms(c)
DAV:   1    -0.332586444466E+04   -0.95653E-04   -0.26587E-03  3328   0.220E-02    0.741E-03
DAV:   2    -0.332586444744E+04   -0.27843E-05   -0.35029E-05  3136   0.194E-03    0.436E-03
DAV:   3    -0.332586444758E+04   -0.14121E-06   -0.32065E-07  2816   0.401E-04
  69 F= -.33400088E+04 E0= -.33400088E+04  d E =-.541555E-04
 BRION: g(F)=  0.257E-03 g(S)=  0.000E+00 retain N=  1 mean eig= 0.16
 eig:   0.165
 bond charge predicted
       N       E                     dE             d eps       ncg     rms          rms(c)
DAV:   1    -0.332586486261E+04   -0.41517E-03   -0.59339E-02  3584   0.104E-01    0.347E-02
DAV:   2    -0.332586491393E+04   -0.51320E-04   -0.67739E-04  3456   0.868E-03    0.201E-02
DAV:   3    -0.332586491805E+04   -0.41188E-05   -0.14173E-05  3392   0.167E-03    0.694E-03
DAV:   4    -0.332586492113E+04   -0.30826E-05   -0.17266E-06  2784   0.720E-04    0.236E-03
DAV:   5    -0.332586492138E+04   -0.25227E-06    0.15496E-07  2432   0.281E-04
  70 F= -.33400090E+04 E0= -.33400090E+04  d E =-.257090E-03
 BRION: g(F)=  0.276E-03 g(S)=  0.000E+00 retain N=  2 mean eig= 0.40
 eig:   0.187  0.620
 bond charge predicted
       N       E                     dE             d eps       ncg     rms          rms(c)
DAV:   1    -0.332586509031E+04   -0.16917E-03   -0.93771E-03  3328   0.413E-02    0.141E-02
DAV:   2    -0.332586509865E+04   -0.83403E-05   -0.11575E-04  3264   0.352E-03    0.784E-03
DAV:   3    -0.332586509888E+04   -0.23493E-06   -0.19093E-06  3008   0.733E-04
  71 F= -.33400091E+04 E0= -.33400091E+04  d E =-.981460E-04
 BRION: g(F)=  0.266E-03 g(S)=  0.000E+00 retain N=  2 mean eig= 0.46
 eig:   0.159  0.753
 bond charge predicted
       N       E                     dE             d eps       ncg     rms          rms(c)
DAV:   1    -0.332586498468E+04    0.11396E-03   -0.35646E-03  3328   0.253E-02    0.824E-03
DAV:   2    -0.332586498883E+04   -0.41520E-05   -0.49520E-05  3104   0.231E-03    0.506E-03
DAV:   3    -0.332586498896E+04   -0.13085E-06   -0.58596E-07  2816   0.461E-04
  72 F= -.33400090E+04 E0= -.33400090E+04  d E =0.595685E-04
 BRION: g(F)=  0.260E-03 g(S)=  0.000E+00 retain N=  2 mean eig= 0.31
 eig:   0.288  0.329
 bond charge predicted
       N       E                     dE             d eps       ncg     rms          rms(c)
DAV:   1    -0.332586542332E+04   -0.43449E-03   -0.68474E-02  3584   0.111E-01    0.367E-02
DAV:   2    -0.332586548249E+04   -0.59164E-04   -0.77441E-04  3456   0.914E-03    0.209E-02
DAV:   3    -0.332586548582E+04   -0.33346E-05   -0.15813E-05  3392   0.173E-03    0.719E-03
DAV:   4    -0.332586548913E+04   -0.33085E-05   -0.22028E-06  2816   0.776E-04    0.248E-03
DAV:   5    -0.332586548941E+04   -0.27451E-06    0.89838E-08  2592   0.310E-04
  73 F= -.33400093E+04 E0= -.33400093E+04  d E =-.273371E-03
 BRION: g(F)=  0.266E-03 g(S)=  0.000E+00 retain N=  1 mean eig= 0.22
 eig:   0.219
 bond charge predicted
       N       E                     dE             d eps       ncg     rms          rms(c)
DAV:   1    -0.332586549907E+04   -0.99411E-05   -0.27804E-04  3104   0.658E-03    0.352E-03
DAV:   2    -0.332586549975E+04   -0.67486E-06   -0.82012E-06  2688   0.958E-04
 soft stop encountered!  aborting job ...
  74 F= -.33400093E+04 E0= -.33400093E+04  d E =-.556587E-05
 BRION: g(F)=  0.268E-03 g(S)=  0.000E+00 retain N=  1 mean eig= 0.16
 eig:   0.162
 deleting file STOPCAR
 PROFILE, used timers:     332
