 vasp.6.4.2 20Jul23 (build Oct 12 2023 10:31:02) complex                         
 executed on              LinuxNV date 2024.11.01  17:15:38
 running  128 mpi-ranks, with    1 threads/rank, on    2 nodes
 distrk:  each k-point on   64 cores,    2 groups
 distr:  one band on NCORE=   8 cores,    8 groups


--------------------------------------------------------------------------------------------------------


 INCAR:
   ENCUT = 520.000000
   SIGMA = 0.050000
   EDIFF = 1.00e-06
   ALGO = N
   GGA = PE
   PREC = Accurate
   SYSTEM = 01_AOPT
   ICHARG = 0
   ISMEAR = 0
   ISPIN = 2
   ISTART = 1
   ISYM = -1
   KPAR = 2
   LORBIT = 11
   NBANDS = 220
   NELM = 100
   NELMIN = 5
   NPAR = 8
   LASPH = .TRUE.
   LCHARG = .FALSE.
   LWAVE = .FALSE.
   LREAL = .FALSE.

 POTCAR:    PAW_PBE Ge 05Jan2001                  
 POTCAR:    PAW_PBE Se 06Sep2000                  
 -----------------------------------------------------------------------------
|                                                                             |
|           W    W    AA    RRRRR   N    N  II  N    N   GGGG   !!!           |
|           W    W   A  A   R    R  NN   N  II  NN   N  G    G  !!!           |
|           W    W  A    A  R    R  N N  N  II  N N  N  G       !!!           |
|           W WW W  AAAAAA  RRRRR   N  N N  II  N  N N  G  GGG   !            |
|           WW  WW  A    A  R   R   N   NN  II  N   NN  G    G                |
|           W    W  A    A  R    R  N    N  II  N    N   GGGG   !!!           |
|                                                                             |
|     You use a magnetic or noncollinear calculation, but did not specify     |
|     the initial magnetic moment with the MAGMOM tag. Note that a            |
|     default of 1 will be used for all atoms. This ferromagnetic setup       |
|     may break the symmetry of the crystal, in particular it may rule        |
|     out finding an antiferromagnetic solution. Thence, we recommend         |
|     setting the initial magnetic moment manually or verifying carefully     |
|     that this magnetic setup is desired.                                    |
|                                                                             |
 -----------------------------------------------------------------------------

 POTCAR:    PAW_PBE Ge 05Jan2001                  
   VRHFIN =Ge: s2p2                                                                                 
   LEXCH  = PE                                                                                      
   EATOM  =   104.9960 eV,    7.7170 Ry                                                             
                                                                                                    
   TITEL  = PAW_PBE Ge 05Jan2001                                                                    
   LULTRA =        F    use ultrasoft PP ?                                                          
   IUNSCR =        1    unscreen: 0-lin 1-nonlin 2-no                                               
   RPACOR =    2.170    partial core radius                                                         
   POMASS =   72.610; ZVAL   =    4.000    mass and valenz                                          
   RCORE  =    2.300    outmost cutoff radius                                                       
   RWIGS  =    2.300; RWIGS  =    1.217    wigner-seitz radius (au A)                               
   ENMAX  =  173.807; ENMIN  =  130.355 eV                                                          
   ICORE  =        3    local potential                                                             
   LCOR   =        T    correct aug charges                                                         
   LPAW   =        T    paw PP                                                                      
   EAUG   =  385.843                                                                                
   DEXC   =    0.000                                                                                
   RMAX   =    2.342    core radius for proj-oper                                                   
   RAUG   =    1.300    factor for augmentation sphere                                              
   RDEP   =    2.318    radius for radial grids                                                     
   RDEPT  =    2.103    core radius for aug-charge                                                  
                                                                                                    
   Atomic configuration                                                                             
   10 entries                                                                                       
     n  l   j            E        occ.                                                              
     1  0  0.50    -10959.8463   2.0000                                                             
     2  0  0.50     -1371.6056   2.0000                                                             
     2  1  1.50     -1198.4791   6.0000                                                             
     3  0  0.50      -168.4733   2.0000                                                             
     3  1  1.50      -115.6019   6.0000                                                             
     3  2  2.50       -29.3106  10.0000                                                             
     4  0  0.50       -11.7309   2.0000                                                             
     4  1  0.50        -3.8952   2.0000                                                             
     4  2  1.50        -4.0817   0.0000                                                             
     4  3  2.50        -4.0817   0.0000                                                             
   Description                                                                                      
     l       E           TYP  RCUT    TYP  RCUT                                                     
     0    -11.7309493     23  2.300                                                                 
     0     -7.4578696     23  2.300                                                                 
     1     -3.8952261     23  2.300                                                                 
     1      6.1178114     23  2.300                                                                 
     2     -4.0817478     23  2.300                                                                 
     3     -1.3605826      7  2.300                                                                 
  local pseudopotential read in
  partial core-charges read in
  partial kinetic energy density read in
  atomic valenz-charges read in
  non local Contribution for L=            0  read in
    real space projection operators read in
  non local Contribution for L=            0  read in
    real space projection operators read in
  non local Contribution for L=            1  read in
    real space projection operators read in
  non local Contribution for L=            1  read in
    real space projection operators read in
  non local Contribution for L=            2  read in
    real space projection operators read in
    PAW grid and wavefunctions read in
 
   number of l-projection  operators is LMAX  =            5
   number of lm-projection operators is LMMAX =           13
 
 POTCAR:    PAW_PBE Se 06Sep2000                  
   VRHFIN =Se: s2p4                                                                                 
   LEXCH  = PE                                                                                      
   EATOM  =   257.1286 eV,   18.8984 Ry                                                             
                                                                                                    
   TITEL  = PAW_PBE Se 06Sep2000                                                                    
   LULTRA =        F    use ultrasoft PP ?                                                          
   IUNSCR =        1    unscreen: 0-lin 1-nonlin 2-no                                               
   RPACOR =    1.900    partial core radius                                                         
   POMASS =   78.960; ZVAL   =    6.000    mass and valenz                                          
   RCORE  =    2.100    outmost cutoff radius                                                       
   RWIGS  =    2.200; RWIGS  =    1.164    wigner-seitz radius (au A)                               
   ENMAX  =  211.555; ENMIN  =  158.666 eV                                                          
   ICORE  =        3    local potential                                                             
   LCOR   =        T    correct aug charges                                                         
   LPAW   =        T    paw PP                                                                      
   EAUG   =  446.842                                                                                
   DEXC   =    0.000                                                                                
   RMAX   =    2.147    core radius for proj-oper                                                   
   RAUG   =    1.300    factor for augmentation sphere                                              
   RDEP   =    2.177    radius for radial grids                                                     
   RDEPT  =    1.928    core radius for aug-charge                                                  
                                                                                                    
   Atomic configuration                                                                             
   10 entries                                                                                       
     n  l   j            E        occ.                                                              
     1  0  0.50    -12503.4787   2.0000                                                             
     2  0  0.50     -1606.9547   2.0000                                                             
     2  1  1.50     -1413.3140   6.0000                                                             
     3  0  0.50      -213.4885   2.0000                                                             
     3  1  1.50      -152.9538   6.0000                                                             
     3  2  2.50       -53.1221  10.0000                                                             
     4  0  0.50       -17.2865   2.0000                                                             
     4  1  0.50        -6.5110   4.0000                                                             
     4  2  2.50        -6.8029   0.0000                                                             
     4  3  2.50        -6.8029   0.0000                                                             
   Description                                                                                      
     l       E           TYP  RCUT    TYP  RCUT                                                     
     0    -17.2865377     23  2.100                                                                 
     0    -15.3094411     23  2.100                                                                 
     1     -6.5110275     23  2.100                                                                 
     1     -0.0695192     23  2.100                                                                 
     2     -6.8029130     23  2.100                                                                 
     3     -1.3605826      7  2.100                                                                 
  local pseudopotential read in
  partial core-charges read in
  partial kinetic energy density read in
  atomic valenz-charges read in
  non local Contribution for L=            0  read in
    real space projection operators read in
  non local Contribution for L=            0  read in
    real space projection operators read in
  non local Contribution for L=            1  read in
    real space projection operators read in
  non local Contribution for L=            1  read in
    real space projection operators read in
  non local Contribution for L=            2  read in
    real space projection operators read in
    PAW grid and wavefunctions read in
 
   number of l-projection  operators is LMAX  =            5
   number of lm-projection operators is LMMAX =           13
 
 -----------------------------------------------------------------------------
|                                                                             |
|               ----> ADVICE to this user running VASP <----                  |
|                                                                             |
|     You have a (more or less) 'large supercell' and for larger cells it     |
|     might be more efficient to use real-space projection operators.         |
|     Therefore, try LREAL= Auto in the INCAR file.                           |
|     Mind: For very accurate calculation, you might also keep the            |
|     reciprocal projection scheme (i.e. LREAL=.FALSE.).                      |
|                                                                             |
 -----------------------------------------------------------------------------

  PAW_PBE Ge 05Jan2001                  :
 energy of atom  1       EATOM= -104.9960
 kinetic energy error for atom=    0.0002 (will be added to EATOM!!)
  PAW_PBE Se 06Sep2000                  :
 energy of atom  2       EATOM= -257.1286
 kinetic energy error for atom=    0.0007 (will be added to EATOM!!)
 
 
 POSCAR: Ge Se
  positions in cartesian coordinates
  No initial velocities read in
 exchange correlation table for  LEXCH =        8
   RHO(1)=    0.500       N(1)  =     2000
   RHO(2)=  100.500       N(2)  =     4000
 


--------------------------------------------------------------------------------------------------------


 ion  position               nearest neighbor table
   1  0.082  0.053  0.133-  54 2.47  45 2.59  55 2.81
   2  0.253  0.883  0.368-  48 2.54  45 2.63  67 2.80
   3  0.592  0.210  0.368-  68 2.44  56 2.47  49 2.62
   4  0.589  0.545  0.377-  72 2.65  69 2.67
   5  0.594  0.876  0.374-  70 2.50  44 2.67
   6  0.896  0.200  0.376-  55 2.57  56 2.71  46 2.82
   7  0.923  0.518  0.380-  71 2.65  46 2.71  47 2.84
   8  0.923  0.875  0.362-  53 2.51  45 2.63  44 2.71
   9  0.059  0.131  0.623-  37 2.56  57 2.58  51 2.72
  10  0.055  0.473  0.624-  38 2.50  43 2.58  58 2.63
  11  0.031  0.851  0.637-  59 2.50  37 2.52  52 2.77
  12  0.368  0.158  0.625-  51 2.54  60 2.59  40 2.62
  13  0.363  0.495  0.629-  61 2.52  38 2.66  39 2.67
  14  0.402  0.810  0.632-  39 2.52  62 2.64  42 2.75
  15  0.684  0.167  0.622-  40 2.48  41 2.63  63 2.66
  16  0.718  0.475  0.623-  41 2.54  64 2.63  43 2.75
  17  0.238  0.537  0.375-  47 2.50  66 2.61  50 2.82
  18  0.261  0.199  0.364-  54 2.58  49 2.64  48 2.68
  19  0.722  0.804  0.621-  52 2.45  42 2.57  65 2.76
  20  0.886  0.650  0.863-  52 2.50  58 2.57  64 2.57
  21  0.863  0.005  0.885-  37 2.55  63 2.63  65 2.72
  22  0.105  0.352  0.135-  46 2.54  54 2.60  66 2.61
  23  0.065  0.703  0.145-  47 2.61  53 2.73
  24  0.442  0.028  0.126-  48 2.57  68 2.63  70 2.66
  25  0.435  0.370  0.116-  69 2.46  49 2.57
  26  0.754  0.043  0.134-  55 2.57  44 2.68  68 2.77
  27  0.737  0.377  0.104-  69 2.56  71 2.72  56 2.85
  28  0.404  0.723  0.096-  67 2.58  70 2.59  50 2.70
  29  0.212  0.320  0.862-  38 2.42  57 2.56  60 2.70
  30  0.193  0.663  0.872-  58 2.59  59 2.59  39 2.66
  31  0.238  0.989  0.866-  51 2.55  62 2.76  59 2.85
  32  0.529  0.340  0.859-  61 2.50  41 2.60  60 2.71
  33  0.568  0.636  0.879-  61 2.60  64 2.62  42 2.79
  34  0.554  0.005  0.876-  62 2.58  40 2.61  65 2.77
  35  0.895  0.304  0.861-  43 2.54  63 2.66  57 2.67
  36  0.769  0.706  0.125-  72 2.54  53 2.65  71 2.67
  37  0.901  0.005  0.658-  11 2.52  21 2.55   9 2.56
  38  0.210  0.348  0.645-  29 2.42  10 2.50  13 2.66
  39  0.250  0.677  0.641-  14 2.52  30 2.66  13 2.67
  40  0.537  0.035  0.643-  15 2.48  34 2.61  12 2.62
  41  0.565  0.340  0.627-  16 2.54  32 2.60  15 2.63
  42  0.570  0.666  0.630-  19 2.57  14 2.75  33 2.79
  43  0.894  0.343  0.636-  35 2.54  10 2.58  16 2.75
  44  0.757  0.014  0.375-   5 2.67  26 2.68   8 2.71
  45  0.085  0.009  0.362-   1 2.59   2 2.63   8 2.63
  46  0.062  0.353  0.359-  22 2.54   7 2.71   6 2.82
  47  0.090  0.672  0.377-  17 2.50  23 2.61   7 2.84
  48  0.392  0.030  0.352-   2 2.54  24 2.57  18 2.68
  49  0.423  0.333  0.345-  25 2.57   3 2.62  18 2.64
  50  0.407  0.682  0.336-  28 2.70  17 2.82
  51  0.236  0.003  0.635-  12 2.54  31 2.55   9 2.72
  52  0.880  0.688  0.641-  19 2.45  20 2.50  11 2.77
  53  0.913  0.861  0.136-   8 2.51  36 2.65  23 2.73
  54  0.230  0.185  0.134-   1 2.47  18 2.58  22 2.60
  55  0.902  0.187  0.144-   6 2.57  26 2.57   1 2.81
  56  0.736  0.346  0.359-   3 2.47   6 2.71  27 2.85
  57  0.066  0.176  0.850-  29 2.56   9 2.58  35 2.67
  58  0.044  0.519  0.855-  20 2.57  30 2.59  10 2.63
  59  0.073  0.832  0.857-  11 2.50  30 2.59  31 2.85
  60  0.379  0.182  0.857-  12 2.59  29 2.70  32 2.71
  61  0.411  0.501  0.851-  32 2.50  13 2.52  33 2.60
  62  0.414  0.854  0.865-  34 2.58  14 2.64  31 2.76
  63  0.731  0.167  0.857-  21 2.63  15 2.66  35 2.66
  64  0.735  0.510  0.856-  20 2.57  33 2.62  16 2.63
  65  0.712  0.849  0.865-  21 2.72  19 2.76  34 2.77
  66  0.249  0.504  0.142-  22 2.61  17 2.61
  67  0.242  0.851  0.117-  28 2.58   2 2.80
  68  0.582  0.183  0.150-   3 2.44  24 2.63  26 2.77
  69  0.579  0.503  0.140-  25 2.46  27 2.56   4 2.67
  70  0.559  0.852  0.153-   5 2.50  28 2.59  24 2.66
  71  0.889  0.530  0.144-   7 2.65  36 2.67  27 2.72
  72  0.736  0.697  0.352-  36 2.54   4 2.65
 

IMPORTANT INFORMATION: All symmetrisations will be switched off!
NOSYMM: (Re-)initialisation of all symmetry stuff for point group C_1.


----------------------------------------------------------------------------------------

                                     Primitive cell                                     

  volume of cell :    1723.9173

  direct lattice vectors                    reciprocal lattice vectors
    12.463339169  0.000000505  0.000001533     0.080235319 -0.000000003 -0.000000013
     0.000000506 12.502949305  0.000005546    -0.000000003  0.079981129 -0.000000046
     0.000001752  0.000006317 11.062914401    -0.000000011 -0.000000040  0.090392094

  length of vectors
    12.463339169 12.502949305 11.062914401     0.080235319  0.079981129  0.090392094

  position of ions in fractional coordinates (direct lattice)
     0.082199347  0.053193113  0.133401654
     0.252930008  0.882581165  0.367595630
     0.592063078  0.210498150  0.368103011
     0.589113914  0.544826207  0.376897139
     0.594187434  0.876107540  0.373536536
     0.896179747  0.200382535  0.375938868
     0.922967420  0.517766591  0.379610435
     0.922895318  0.874984386  0.361928305
     0.059473981  0.130911537  0.622858130
     0.054614608  0.472900293  0.623835535
     0.030531876  0.850719874  0.636925059
     0.367816186  0.157569274  0.624971499
     0.362922349  0.495388412  0.629383114
     0.402377423  0.809662188  0.632353200
     0.684151162  0.166637809  0.622140152
     0.718017497  0.474780550  0.622739102
     0.237563737  0.536948308  0.374784685
     0.260566488  0.199169537  0.364055628
     0.722255301  0.803902594  0.620761876
     0.885615330  0.649773529  0.862708933
     0.863329474  0.004704501  0.884623030
     0.105327980  0.351831231  0.134830043
     0.064707493  0.703391026  0.145365189
     0.441746925  0.027557480  0.126095120
     0.435143699  0.370096710  0.116471390
     0.754263560  0.043392000  0.134493033
     0.737353468  0.377386865  0.103887831
     0.404221617  0.723427305  0.096245471
     0.212053725  0.319722496  0.861715489
     0.192969162  0.663156266  0.872138997
     0.238303032  0.989285840  0.865639869
     0.528780640  0.339729402  0.858775389
     0.568134376  0.635641968  0.879131031
     0.554223429  0.004751904  0.876153070
     0.894536300  0.303945227  0.860905927
     0.768503575  0.705753795  0.125121187
     0.901341688  0.004505643  0.657875218
     0.209934277  0.347627494  0.645436900
     0.250359366  0.676632288  0.640692111
     0.536896331  0.034661467  0.643044298
     0.564817851  0.340291523  0.627020927
     0.569542638  0.665932734  0.629500921
     0.894371191  0.343268036  0.635743531
     0.756907231  0.014387431  0.374847291
     0.085162594  0.009440997  0.362472881
     0.062021327  0.352624714  0.358934907
     0.090105490  0.672146243  0.377302345
     0.392081202  0.030174189  0.351805479
     0.422891598  0.333420502  0.344887895
     0.407378196  0.681673377  0.335551421
     0.235579051  0.002815057  0.635344449
     0.879585989  0.687626989  0.640879383
     0.913013523  0.860677573  0.135551725
     0.229585709  0.185237563  0.133905088
     0.901868953  0.187207615  0.144110176
     0.735559023  0.346140999  0.359325964
     0.066169903  0.176312944  0.850466699
     0.044320187  0.519325974  0.855068776
     0.073339883  0.831883432  0.856794093
     0.379117100  0.182491168  0.856650264
     0.410756755  0.501389070  0.850994385
     0.413503340  0.853977821  0.865287936
     0.731130719  0.166954806  0.856769659
     0.735237526  0.509552775  0.856486278
     0.712338618  0.849097926  0.864910840
     0.248659758  0.503608875  0.142395198
     0.242102901  0.850724609  0.117266663
     0.581910002  0.183196140  0.150243067
     0.578821330  0.503176670  0.140415580
     0.559279590  0.851867286  0.152799294
     0.889037870  0.529580002  0.143711127
     0.735868680  0.696754752  0.351590326

  ion indices of the primitive-cell ions
   primitive index   ion index
                 1           1
                 2           2
                 3           3
                 4           4
                 5           5
                 6           6
                 7           7
                 8           8
                 9           9
                10          10
                11          11
                12          12
                13          13
                14          14
                15          15
                16          16
                17          17
                18          18
                19          19
                20          20
                21          21
                22          22
                23          23
                24          24
                25          25
                26          26
                27          27
                28          28
                29          29
                30          30
                31          31
                32          32
                33          33
                34          34
                35          35
                36          36
                37          37
                38          38
                39          39
                40          40
                41          41
                42          42
                43          43
                44          44
                45          45
                46          46
                47          47
                48          48
                49          49
                50          50
                51          51
                52          52
                53          53
                54          54
                55          55
                56          56
                57          57
                58          58
                59          59
                60          60
                61          61
                62          62
                63          63
                64          64
                65          65
                66          66
                67          67
                68          68
                69          69
                70          70
                71          71
                72          72

----------------------------------------------------------------------------------------

 
 
 KPOINTS: KPOINTS created by Atomic Simulation Env

Automatic generation of k-mesh.
 Grid dimensions read from file:
 generate k-points for:    2    2    2

 Generating k-lattice:

  Cartesian coordinates                     Fractional coordinates (reciprocal lattice)
     0.040117660 -0.000000002 -0.000000006     0.500000000 -0.000000000  0.000000000
    -0.000000002  0.039990564 -0.000000023     0.000000000  0.500000000 -0.000000000
    -0.000000006 -0.000000020  0.045196047     0.000000000  0.000000000  0.500000000

  Length of vectors
     0.040117660  0.039990564  0.045196047

  Shift w.r.t. Gamma in fractional coordinates (k-lattice)
     0.000000000  0.000000000  0.000000000

 
 Subroutine IBZKPT returns following result:
 ===========================================
 
 Found      8 irreducible k-points:
 
 Following reciprocal coordinates:
            Coordinates               Weight
  0.000000  0.000000  0.000000      1.000000
  0.500000  0.000000  0.000000      1.000000
  0.000000  0.500000  0.000000      1.000000
  0.500000  0.500000  0.000000      1.000000
  0.000000  0.000000  0.500000      1.000000
  0.500000  0.000000  0.500000      1.000000
  0.000000  0.500000  0.500000      1.000000
  0.500000  0.500000  0.500000      1.000000
 
 Following cartesian coordinates:
            Coordinates               Weight
  0.000000  0.000000  0.000000      1.000000
  0.040118 -0.000000 -0.000000      1.000000
 -0.000000  0.039991 -0.000000      1.000000
  0.040118  0.039991 -0.000000      1.000000
 -0.000000 -0.000000  0.045196      1.000000
  0.040118 -0.000000  0.045196      1.000000
 -0.000000  0.039991  0.045196      1.000000
  0.040118  0.039991  0.045196      1.000000
 
 -----------------------------------------------------------------------------
|                                                                             |
|           W    W    AA    RRRRR   N    N  II  N    N   GGGG   !!!           |
|           W    W   A  A   R    R  NN   N  II  NN   N  G    G  !!!           |
|           W    W  A    A  R    R  N N  N  II  N N  N  G       !!!           |
|           W WW W  AAAAAA  RRRRR   N  N N  II  N  N N  G  GGG   !            |
|           WW  WW  A    A  R   R   N   NN  II  N   NN  G    G                |
|           W    W  A    A  R    R  N    N  II  N    N   GGGG   !!!           |
|                                                                             |
|     The number of bands has been changed from the values supplied in        |
|     the INCAR file. This is a result of running the parallel version.       |
|     The orbitals not found in the WAVECAR file will be initialized with     |
|     random numbers, which is usually adequate. For correlated               |
|     calculations, however, you should redo the groundstate calculation.     |
|     I found NBANDS = 220. Now, NBANDS = 224.                                |
|                                                                             |
 -----------------------------------------------------------------------------



--------------------------------------------------------------------------------------------------------




 Dimension of arrays:
   k-points           NKPTS =      8   k-points in BZ     NKDIM =      8   number of bands    NBANDS=    224
   number of dos      NEDOS =    301   number of ions     NIONS =     72
   non local maximal  LDIM  =      5   non local SUM 2l+1 LMDIM =     13
   total plane-waves  NPLWV = 774144
   max r-space proj   IRMAX =      1   max aug-charges    IRDMAX=  24603
   dimension x,y,z NGX =    96 NGY =   96 NGZ =   84
   dimension x,y,z NGXF=   192 NGYF=  192 NGZF=  168
   support grid    NGXF=   192 NGYF=  192 NGZF=  168
   ions per type =              36  36
   NGX,Y,Z   is equivalent  to a cutoff of  12.81, 12.76, 12.62 a.u.
   NGXF,Y,Z  is equivalent  to a cutoff of  25.61, 25.53, 25.25 a.u.

 SYSTEM =  01_AOPT                                 
 POSCAR =  Ge Se                                   

 Startparameter for this run:
   NWRITE =      2    write-flag & timer
   PREC   = accura    normal or accurate (medium, high low for compatibility)
   ISTART =      0    job   : 0-new  1-cont  2-samecut
   ICHARG =      2    charge: 1-file 2-atom 10-const
   ISPIN  =      2    spin polarized calculation?
   LNONCOLLINEAR =      F non collinear calculations
   LSORBIT =      F    spin-orbit coupling
   INIWAV =      1    electr: 0-lowe 1-rand  2-diag
   LASPH  =      T    aspherical Exc in radial PAW
 Electronic Relaxation 1
   ENCUT  =  520.0 eV  38.22 Ry    6.18 a.u.  23.17 23.25 20.57*2*pi/ulx,y,z
   ENINI  =  520.0     initial cutoff
   ENAUG  =  446.8 eV  augmentation charge cutoff
   NELM   =    100;   NELMIN=  5; NELMDL=  0     # of ELM steps 
   EDIFF  = 0.1E-05   stopping-criterion for ELM
   LREAL  =      F    real-space projection
   NLSPLINE    = F    spline interpolate recip. space projectors
   LCOMPAT=      F    compatible to vasp.4.4
   GGA_COMPAT  = T    GGA compatible to vasp.4.4-vasp.4.6
   LMAXPAW     = -100 max onsite density
   LMAXMIX     =    2 max onsite mixed and CHGCAR
   VOSKOWN=      0    Vosko Wilk Nusair interpolation
   ROPT   =    0.00000   0.00000
 Ionic relaxation
   EDIFFG = 0.1E-04   stopping-criterion for IOM
   NSW    =      0    number of steps for IOM
   NBLOCK =      1;   KBLOCK =      1    inner block; outer block 
   IBRION =     -1    ionic relax: 0-MD 1-quasi-New 2-CG
   NFREE  =      0    steps in history (QN), initial steepest desc. (CG)
   ISIF   =      2    stress and relaxation
   IWAVPR =     10    prediction:  0-non 1-charg 2-wave 3-comb
   ISYM   =     -1    0-nonsym 1-usesym 2-fastsym
   LCORR  =      T    Harris-Foulkes like correction to forces

   POTIM  = 0.5000    time-step for ionic-motion
   TEIN   =    0.0    initial temperature
   TEBEG  =    0.0;   TEEND  =   0.0 temperature during run
   SMASS  =  -3.00    Nose mass-parameter (am)
   estimated Nose-frequenzy (Omega)   =  0.10E-29 period in steps = 0.13E+47 mass=  -0.355E-26a.u.
   SCALEE = 1.0000    scale energy and forces
   NPACO  =    256;   APACO  = 10.0  distance and # of slots for P.C.
   PSTRESS=    0.0 pullay stress

  Mass of Ions in am
   POMASS =  72.61 78.96
  Ionic Valenz
   ZVAL   =   4.00  6.00
  Atomic Wigner-Seitz radii
   RWIGS  =  -1.00 -1.00
  virtual crystal weights 
   VCA    =   1.00  1.00
   NELECT =     360.0000    total number of electrons
   NUPDOWN=      -1.0000    fix difference up-down

 DOS related values:
   EMIN   =  10.00;   EMAX   =-10.00  energy-range for DOS
   EFERMI =   0.00;   METHOD = LEGACY      
   ISMEAR =     0;   SIGMA  =   0.05  broadening in eV -4-tet -1-fermi 0-gaus

 Electronic relaxation 2 (details)
   IALGO  =     38    algorithm
   LDIAG  =      T    sub-space diagonalisation (order eigenvalues)
   LSUBROT=      F    optimize rotation matrix (better conditioning)
   TURBO    =      0    0=normal 1=particle mesh
   IRESTART =      0    0=no restart 2=restart with 2 vectors
   NREBOOT  =      0    no. of reboots
   NMIN     =      0    reboot dimension
   EREF     =   0.00    reference energy to select bands
   IMIX   =      4    mixing-type and parameters
     AMIX     =   0.40;   BMIX     =  1.00
     AMIX_MAG =   1.60;   BMIX_MAG =  1.00
     AMIN     =   0.10
     WC   =   100.;   INIMIX=   1;  MIXPRE=   1;  MAXMIX= -45

 Intra band minimization:
   WEIMIN = 0.0000     energy-eigenvalue tresh-hold
   EBREAK =  0.11E-08  absolut break condition
   DEPER  =   0.30     relativ break condition  

   TIME   =   0.40     timestep for ELM

  volume/ion in A,a.u.               =      23.94       161.58
  Fermi-wavevector in a.u.,A,eV,Ry     =   0.971263  1.835421 12.835081  0.943352
  Thomas-Fermi vector in A             =   2.101466
 
 Write flags
   LWAVE        =      F    write WAVECAR
   LDOWNSAMPLE  =      F    k-point downsampling of WAVECAR
   LCHARG       =      F    write CHGCAR
   LVTOT        =      F    write LOCPOT, total local potential
   LVHAR        =      F    write LOCPOT, Hartree potential only
   LELF         =      F    write electronic localiz. function (ELF)
   LORBIT       =     11    0 simple, 1 ext, 2 COOP (PROOUT), +10 PAW based schemes


 Dipole corrections
   LMONO  =      F    monopole corrections only (constant potential shift)
   LDIPOL =      F    correct potential (dipole corrections)
   IDIPOL =      0    1-x, 2-y, 3-z, 4-all directions 
   EPSILON=  1.0000000 bulk dielectric constant

 Exchange correlation treatment:
   GGA     =    PE    GGA type
   LEXCH   =     8    internal setting for exchange type
   LIBXC   =     F    Libxc                    
   VOSKOWN =     0    Vosko Wilk Nusair interpolation
   LHFCALC =     F    Hartree Fock is set to
   LHFONE  =     F    Hartree Fock one center treatment
   AEXX    =    0.0000 exact exchange contribution

 Linear response parameters
   LEPSILON=     F    determine dielectric tensor
   LRPA    =     F    only Hartree local field effects (RPA)
   LNABLA  =     F    use nabla operator in PAW spheres
   LVEL    =     F    velocity operator in full k-point grid
   CSHIFT  =0.1000    complex shift for real part using Kramers Kronig
   OMEGAMAX=  -1.0    maximum frequency
   DEG_THRESHOLD= 0.2000000E-02 threshold for treating states as degnerate
   RTIME   =   -0.100 relaxation time in fs
  (WPLASMAI=    0.000 imaginary part of plasma frequency in eV, 0.658/RTIME)
   DFIELD  = 0.0000000 0.0000000 0.0000000 field for delta impulse in time
 
  Optional k-point grid parameters
   LKPOINTS_OPT  =     F    use optional k-point grid
   KPOINTS_OPT_MODE=     1    mode for optional k-point grid
 
 Orbital magnetization related:
   ORBITALMAG=     F  switch on orbital magnetization
   LCHIMAG   =     F  perturbation theory with respect to B field
   DQ        =  0.001000  dq finite difference perturbation B field
   LLRAUG    =     F  two centre corrections for induced B field
   LBONE     =     F  B-component reconstruction in AE one-centre
   LVGVCALC  =     T  calculate vGv susceptibility
   LVGVAPPL  =     F  apply vGv susceptibility instead of pGv for G=0

 Random number generation:
   RANDOM_GENERATOR = DEFAULT
   PCG_SEED         = not used


--------------------------------------------------------------------------------------------------------


 Static calculation
 charge density and potential will be updated during run
 spin polarized calculation
 Variant of blocked Davidson
 Davidson routine will perform the subspace rotation
 perform sub-space diagonalisation
    after iterative eigenvector-optimisation
 modified Broyden-mixing scheme, WC =      100.0
 initial mixing is a Kerker type mixing with AMIX =  0.4000 and BMIX =      1.0000
 Hartree-type preconditioning will be used
 using additional bands            44
 reciprocal scheme for non local part
 use partial core corrections
 calculate Harris-corrections to forces 
   (improved forces if not selfconsistent)
 use gradient corrections 
 use of overlap-Matrix (Vanderbilt PP)
 Gauss-broadening in eV      SIGMA  =   0.05


--------------------------------------------------------------------------------------------------------


  energy-cutoff  :      520.00
  volume of cell :     1723.92
      direct lattice vectors                 reciprocal lattice vectors
    12.463339169  0.000000505  0.000001533     0.080235319 -0.000000003 -0.000000013
     0.000000506 12.502949305  0.000005546    -0.000000003  0.079981129 -0.000000046
     0.000001752  0.000006317 11.062914401    -0.000000011 -0.000000040  0.090392094

  length of vectors
    12.463339169 12.502949305 11.062914401     0.080235319  0.079981129  0.090392094


 
 k-points in units of 2pi/SCALE and weight: KPOINTS created by Atomic Simulation Env
   0.00000000  0.00000000  0.00000000       0.125
   0.04011766 -0.00000000 -0.00000001       0.125
  -0.00000000  0.03999056 -0.00000002       0.125
   0.04011766  0.03999056 -0.00000003       0.125
  -0.00000001 -0.00000002  0.04519605       0.125
   0.04011765 -0.00000002  0.04519604       0.125
  -0.00000001  0.03999054  0.04519602       0.125
   0.04011765  0.03999054  0.04519602       0.125
 
 k-points in reciprocal lattice and weights: KPOINTS created by Atomic Simulation Env
   0.00000000  0.00000000  0.00000000       0.125
   0.50000000  0.00000000  0.00000000       0.125
   0.00000000  0.50000000  0.00000000       0.125
   0.50000000  0.50000000  0.00000000       0.125
   0.00000000  0.00000000  0.50000000       0.125
   0.50000000  0.00000000  0.50000000       0.125
   0.00000000  0.50000000  0.50000000       0.125
   0.50000000  0.50000000  0.50000000       0.125
 
 position of ions in fractional coordinates (direct lattice) 
   0.08219935  0.05319311  0.13340165
   0.25293001  0.88258117  0.36759563
   0.59206308  0.21049815  0.36810301
   0.58911391  0.54482621  0.37689714
   0.59418743  0.87610754  0.37353654
   0.89617975  0.20038254  0.37593887
   0.92296742  0.51776659  0.37961044
   0.92289532  0.87498439  0.36192831
   0.05947398  0.13091154  0.62285813
   0.05461461  0.47290029  0.62383554
   0.03053188  0.85071987  0.63692506
   0.36781619  0.15756927  0.62497150
   0.36292235  0.49538841  0.62938311
   0.40237742  0.80966219  0.63235320
   0.68415116  0.16663781  0.62214015
   0.71801750  0.47478055  0.62273910
   0.23756374  0.53694831  0.37478469
   0.26056649  0.19916954  0.36405563
   0.72225530  0.80390259  0.62076188
   0.88561533  0.64977353  0.86270893
   0.86332947  0.00470450  0.88462303
   0.10532798  0.35183123  0.13483004
   0.06470749  0.70339103  0.14536519
   0.44174692  0.02755748  0.12609512
   0.43514370  0.37009671  0.11647139
   0.75426356  0.04339200  0.13449303
   0.73735347  0.37738686  0.10388783
   0.40422162  0.72342730  0.09624547
   0.21205373  0.31972250  0.86171549
   0.19296916  0.66315627  0.87213900
   0.23830303  0.98928584  0.86563987
   0.52878064  0.33972940  0.85877539
   0.56813438  0.63564197  0.87913103
   0.55422343  0.00475190  0.87615307
   0.89453630  0.30394523  0.86090593
   0.76850357  0.70575380  0.12512119
   0.90134169  0.00450564  0.65787522
   0.20993428  0.34762749  0.64543690
   0.25035937  0.67663229  0.64069211
   0.53689633  0.03466147  0.64304430
   0.56481785  0.34029152  0.62702093
   0.56954264  0.66593273  0.62950092
   0.89437119  0.34326804  0.63574353
   0.75690723  0.01438743  0.37484729
   0.08516259  0.00944100  0.36247288
   0.06202133  0.35262471  0.35893491
   0.09010549  0.67214624  0.37730234
   0.39208120  0.03017419  0.35180548
   0.42289160  0.33342050  0.34488789
   0.40737820  0.68167338  0.33555142
   0.23557905  0.00281506  0.63534445
   0.87958599  0.68762699  0.64087938
   0.91301352  0.86067757  0.13555173
   0.22958571  0.18523756  0.13390509
   0.90186895  0.18720761  0.14411018
   0.73555902  0.34614100  0.35932596
   0.06616990  0.17631294  0.85046670
   0.04432019  0.51932597  0.85506878
   0.07333988  0.83188343  0.85679409
   0.37911710  0.18249117  0.85665026
   0.41075676  0.50138907  0.85099438
   0.41350334  0.85397782  0.86528794
   0.73113072  0.16695481  0.85676966
   0.73523753  0.50955277  0.85648628
   0.71233862  0.84909793  0.86491084
   0.24865976  0.50360888  0.14239520
   0.24210290  0.85072461  0.11726666
   0.58191000  0.18319614  0.15024307
   0.57882133  0.50317667  0.14041558
   0.55927959  0.85186729  0.15279929
   0.88903787  0.52958000  0.14371113
   0.73586868  0.69675475  0.35159033
 
 position of ions in cartesian coordinates  (Angst):
   1.02447861  0.66507169  1.47581150
   3.15235357 11.03487002  4.06668427
   7.37908370  2.63185033  4.07229418
   7.34232745  6.81193713  4.16958471
   7.40556061 10.95393082  4.13240850
  11.16939291  2.50537551  4.15898200
  11.50325692  6.47361231  4.19960204
  11.50235844 10.93988818  4.00398813
   0.74124555  1.63678427  6.89062699
   0.68068171  5.91265236  6.90144183
   0.38053067 10.63651150  7.04625217
   4.58421906  1.97008478  6.91400764
   4.52322567  6.19382036  6.96281482
   5.01496781 10.12316949  6.99567443
   8.52680915  2.08346835  6.88268521
   8.94889693  5.93616145  6.88931311
   2.96083836  6.71343997  4.14621424
   3.24752926  2.49020906  4.02751775
   9.00171428 10.05115766  6.86744107
  11.03772607  8.12409139  9.54408004
  10.75996960  0.05882616  9.78651020
   1.31273875  4.39892895  1.49161533
   0.80647204  8.79446330  1.60816664
   5.50564198  0.34455079  1.39498035
   5.42334391  4.62730135  1.28851574
   9.40064283  0.54252920  1.48788630
   9.18988674  4.71844987  1.14930541
   5.03795165  9.04497573  1.06476004
   2.64289917  3.99747971  9.53308679
   2.40504198  8.29141478  9.64840305
   2.97005354 12.36899629  9.57650562
   6.59037414  4.24762518  9.50056131
   7.08085328  7.94740514  9.72575574
   6.90747611  0.05941863  9.69280729
  11.14891096  3.80021765  9.52413163
   9.57812128  8.82400510  1.38421008
  11.23372832  0.05633843  7.27801863
   2.61648340  4.34637311  7.14041543
   3.12031515  8.45990336  7.08792612
   6.69152222  0.43337490  7.11394504
   7.03951771  4.25465191  6.93668160
   7.09840451  8.32612748  6.96411937
  11.14685278  4.29186731  7.03317954
   9.43359221  0.17988807  4.14690473
   1.06141094  0.11804264  4.01000664
   0.77299365  4.40885122  3.97086821
   1.12301629  8.40381284  4.17406741
   4.88664163  0.37726878  3.89199467
   5.27064219  4.16874203  3.81546775
   5.07729356  8.52293000  3.71218106
   2.93610273  0.03520065  7.02876163
  10.96257998  8.59736988  7.08999892
  11.37919787 10.76100938  1.49960330
   2.86140489  2.31601682  1.48138190
  11.24029900  2.34064868  1.59428096
   9.16752239  4.32778601  3.97519543
   0.82469952  2.20443720  9.40864137
   0.55237929  6.49311174  9.45955563
   0.91406176 10.40100182  9.47864444
   4.72506659  2.28168343  9.47705013
   5.11940250  6.26884771  9.41448144
   5.15363432 10.67724708  9.57261173
   9.11233172  2.08743325  9.47837144
   9.16351642  6.37091829  9.47523834
   8.87811975 10.61623414  9.56844039
   3.09913140  6.29659726  1.57530906
   3.01741121 10.63656752  1.29731615
   7.25254208  2.29049330  1.66212810
   7.21404706  6.29119358  1.55340922
   6.97049192 10.65085474  1.69041109
  11.08038102  6.62131328  1.58986819
   9.17138192  8.71149194  3.88961867
 


--------------------------------------------------------------------------------------------------------


 k-point   1 :   0.0000 0.0000 0.0000  plane waves:   46377
 k-point   2 :   0.5000 0.0000 0.0000  plane waves:   46434
 k-point   3 :   0.0000 0.5000 0.0000  plane waves:   46438
 k-point   4 :   0.5000 0.5000 0.0000  plane waves:   46504
 k-point   5 :   0.0000 0.0000 0.5000  plane waves:   46430
 k-point   6 :   0.5000 0.0000 0.5000  plane waves:   46404
 k-point   7 :   0.0000 0.5000 0.5000  plane waves:   46424
 k-point   8 :   0.5000 0.5000 0.5000  plane waves:   46432

 maximum and minimum number of plane-waves per node :      5873     5730

 maximum number of plane-waves:     46504
 maximum index in each direction: 
   IXMAX=   23   IYMAX=   23   IZMAX=   20
   IXMIN=  -23   IYMIN=  -23   IZMIN=  -21


 parallel 3D FFT for wavefunctions:
    minimum data exchange during FFTs selected (reduces bandwidth)
 parallel 3D FFT for charge:
    minimum data exchange during FFTs selected (reduces bandwidth)


 total amount of memory used by VASP MPI-rank0   110764. kBytes
=======================================================================

   base      :      30000. kBytes
   nonl-proj :      16355. kBytes
   fftplans  :       6179. kBytes
   grid      :      15593. kBytes
   one-center:        146. kBytes
   wavefun   :      42491. kBytes
 
     INWAV:  cpu time      0.0000: real time      0.0001
 Broyden mixing: mesh for mixing (old mesh)
   NGX = 47   NGY = 47   NGZ = 41
  (NGX  =192   NGY  =192   NGZ  =168)
  gives a total of  90569 points

 initial charge density was supplied:
 charge density of overlapping atoms calculated
 number of electron     360.0000000 magnetization      72.0000000
 keeping initial charge density in first step


--------------------------------------------------------------------------------------------------------


 Maximum index for augmentation-charges           953 (set IRDMAX)


--------------------------------------------------------------------------------------------------------


 First call to EWALD:  gamma=   0.148
 Maximum number of real-space cells 3x 3x 3
 Maximum number of reciprocal cells 3x 3x 3

    FEWALD:  cpu time      0.0039: real time      0.0039


--------------------------------------- Ionic step        1  -------------------------------------------




--------------------------------------- Iteration      1(   1)  ---------------------------------------


    POTLOK:  cpu time      0.1370: real time      0.1380
    SETDIJ:  cpu time      0.6016: real time      0.6035
     EDDAV:  cpu time      8.5885: real time      8.6465
       DOS:  cpu time      0.0016: real time      0.0016
    --------------------------------------------
      LOOP:  cpu time      9.3288: real time      9.3897

 eigenvalue-minimisations  :  7168
 total energy-change (2. order) : 0.1819103E+04  (-0.1419845E+05)
 number of electron     360.0000000 magnetization      72.0000000
 augmentation part      360.0000000 magnetization      72.0000000

 Free energy of the ion-electron system (eV)
  ---------------------------------------------------
  alpha Z        PSCENC =       796.15191216
  Ewald energy   TEWEN  =    -12837.20259562
  -Hartree energ DENC   =     -1129.32053676
  -exchange      EXHF   =         0.00000000
  -V(xc)+E(xc)   XCENC  =      -293.36198139
  PAW double counting   =     10738.42099860    -9719.93139476
  entropy T*S    EENTRO =        -0.01827315
  eigenvalues    EBANDS =      1227.91339413
  atomic energy  EATOM  =     13036.45147835
  Solvation  Ediel_sol  =         0.00000000
  ---------------------------------------------------
  free energy    TOTEN  =      1819.10300156 eV

  energy without entropy =     1819.12127471  energy(sigma->0) =     1819.11213813


--------------------------------------------------------------------------------------------------------




--------------------------------------- Iteration      1(   2)  ---------------------------------------


     EDDAV:  cpu time      9.7310: real time      9.7881
       DOS:  cpu time      0.0016: real time      0.0016
    --------------------------------------------
      LOOP:  cpu time      9.7326: real time      9.7897

 eigenvalue-minimisations  :  8496
 total energy-change (2. order) :-0.1884406E+04  (-0.1809588E+04)
 number of electron     360.0000000 magnetization      72.0000000
 augmentation part      360.0000000 magnetization      72.0000000

 Free energy of the ion-electron system (eV)
  ---------------------------------------------------
  alpha Z        PSCENC =       796.15191216
  Ewald energy   TEWEN  =    -12837.20259562
  -Hartree energ DENC   =     -1129.32053676
  -exchange      EXHF   =         0.00000000
  -V(xc)+E(xc)   XCENC  =      -293.36198139
  PAW double counting   =     10738.42099860    -9719.93139476
  entropy T*S    EENTRO =        -0.01772078
  eigenvalues    EBANDS =      -656.49322303
  atomic energy  EATOM  =     13036.45147835
  Solvation  Ediel_sol  =         0.00000000
  ---------------------------------------------------
  free energy    TOTEN  =       -65.30306324 eV

  energy without entropy =      -65.28534245  energy(sigma->0) =      -65.29420284


--------------------------------------------------------------------------------------------------------




--------------------------------------- Iteration      1(   3)  ---------------------------------------


     EDDAV:  cpu time      9.7593: real time      9.8113
       DOS:  cpu time      0.0013: real time      0.0013
    --------------------------------------------
      LOOP:  cpu time      9.7605: real time      9.8125

 eigenvalue-minimisations  :  8592
 total energy-change (2. order) :-0.2163249E+03  (-0.2104435E+03)
 number of electron     360.0000000 magnetization      72.0000000
 augmentation part      360.0000000 magnetization      72.0000000

 Free energy of the ion-electron system (eV)
  ---------------------------------------------------
  alpha Z        PSCENC =       796.15191216
  Ewald energy   TEWEN  =    -12837.20259562
  -Hartree energ DENC   =     -1129.32053676
  -exchange      EXHF   =         0.00000000
  -V(xc)+E(xc)   XCENC  =      -293.36198139
  PAW double counting   =     10738.42099860    -9719.93139476
  entropy T*S    EENTRO =        -0.00391135
  eigenvalues    EBANDS =      -872.83188991
  atomic energy  EATOM  =     13036.45147835
  Solvation  Ediel_sol  =         0.00000000
  ---------------------------------------------------
  free energy    TOTEN  =      -281.62792068 eV

  energy without entropy =     -281.62400933  energy(sigma->0) =     -281.62596501


--------------------------------------------------------------------------------------------------------




--------------------------------------- Iteration      1(   4)  ---------------------------------------


     EDDAV:  cpu time      9.8987: real time      9.9599
       DOS:  cpu time      0.0012: real time      0.0012
    --------------------------------------------
      LOOP:  cpu time      9.8998: real time      9.9611

 eigenvalue-minimisations  :  8824
 total energy-change (2. order) :-0.7955668E+01  (-0.7868403E+01)
 number of electron     360.0000000 magnetization      72.0000000
 augmentation part      360.0000000 magnetization      72.0000000

 Free energy of the ion-electron system (eV)
  ---------------------------------------------------
  alpha Z        PSCENC =       796.15191216
  Ewald energy   TEWEN  =    -12837.20259562
  -Hartree energ DENC   =     -1129.32053676
  -exchange      EXHF   =         0.00000000
  -V(xc)+E(xc)   XCENC  =      -293.36198139
  PAW double counting   =     10738.42099860    -9719.93139476
  entropy T*S    EENTRO =        -0.00137135
  eigenvalues    EBANDS =      -880.79009771
  atomic energy  EATOM  =     13036.45147835
  Solvation  Ediel_sol  =         0.00000000
  ---------------------------------------------------
  free energy    TOTEN  =      -289.58358848 eV

  energy without entropy =     -289.58221713  energy(sigma->0) =     -289.58290281


--------------------------------------------------------------------------------------------------------




--------------------------------------- Iteration      1(   5)  ---------------------------------------


     EDDAV:  cpu time     10.0927: real time     10.1464
       DOS:  cpu time      0.0013: real time      0.0013
    CHARGE:  cpu time      0.4183: real time      0.4201
    MIXING:  cpu time      0.0078: real time      0.0078
    --------------------------------------------
      LOOP:  cpu time     10.5200: real time     10.5756

 eigenvalue-minimisations  :  9040
 total energy-change (2. order) :-0.2709209E+00  (-0.2701320E+00)
 number of electron     359.9999998 magnetization      48.7795733
 augmentation part      -66.7907271 magnetization      48.9698704

 Broyden mixing:
  rms(total) = 0.29259E+01    rms(broyden)= 0.29259E+01
  rms(prec ) = 0.30790E+01
  weight for this iteration     100.00

 Free energy of the ion-electron system (eV)
  ---------------------------------------------------
  alpha Z        PSCENC =       796.15191216
  Ewald energy   TEWEN  =    -12837.20259562
  -Hartree energ DENC   =     -1129.32053676
  -exchange      EXHF   =         0.00000000
  -V(xc)+E(xc)   XCENC  =      -293.36198139
  PAW double counting   =     10738.42099860    -9719.93139476
  entropy T*S    EENTRO =        -0.00137331
  eigenvalues    EBANDS =      -881.06101667
  atomic energy  EATOM  =     13036.45147835
  Solvation  Ediel_sol  =         0.00000000
  ---------------------------------------------------
  free energy    TOTEN  =      -289.85450940 eV

  energy without entropy =     -289.85313609  energy(sigma->0) =     -289.85382274


--------------------------------------------------------------------------------------------------------




--------------------------------------- Iteration      1(   6)  ---------------------------------------


    POTLOK:  cpu time      0.2115: real time      0.2134
    SETDIJ:  cpu time      0.6076: real time      0.6099
     EDDAV:  cpu time      9.1995: real time      9.2523
       DOS:  cpu time      0.0012: real time      0.0012
    CHARGE:  cpu time      0.4155: real time      0.4175
    MIXING:  cpu time      0.0072: real time      0.0073
    --------------------------------------------
      LOOP:  cpu time     10.4425: real time     10.5016

 eigenvalue-minimisations  :  7920
 total energy-change (2. order) : 0.2696732E+00  (-0.2622376E+01)
 number of electron     359.9999998 magnetization      27.8491196
 augmentation part      -66.1884258 magnetization      29.0165564

 Broyden mixing:
  rms(total) = 0.17339E+01    rms(broyden)= 0.17339E+01
  rms(prec ) = 0.17707E+01
  weight for this iteration     100.00

 eigenvalues of (default mixing * dielectric matrix)
  average eigenvalue GAMMA=   1.0097
  1.0097

 Free energy of the ion-electron system (eV)
  ---------------------------------------------------
  alpha Z        PSCENC =       796.15191216
  Ewald energy   TEWEN  =    -12837.20259562
  -Hartree energ DENC   =     -1181.60600225
  -exchange      EXHF   =         0.00000000
  -V(xc)+E(xc)   XCENC  =      -286.74447106
  PAW double counting   =     13052.29143138   -12037.35609236
  entropy T*S    EENTRO =        -0.00047829
  eigenvalues    EBANDS =      -831.57001850
  atomic energy  EATOM  =     13036.45147835
  Solvation  Ediel_sol  =         0.00000000
  ---------------------------------------------------
  free energy    TOTEN  =      -289.58483619 eV

  energy without entropy =     -289.58435790  energy(sigma->0) =     -289.58459705


--------------------------------------------------------------------------------------------------------




--------------------------------------- Iteration      1(   7)  ---------------------------------------


    POTLOK:  cpu time      0.1290: real time      0.1297
    SETDIJ:  cpu time      0.6009: real time      0.6033
     EDDAV:  cpu time      9.3188: real time      9.3668
       DOS:  cpu time      0.0013: real time      0.0013
    CHARGE:  cpu time      0.4171: real time      0.4189
    MIXING:  cpu time      0.0075: real time      0.0075
    --------------------------------------------
      LOOP:  cpu time     10.4746: real time     10.5276

 eigenvalue-minimisations  :  7984
 total energy-change (2. order) :-0.7373153E+01  (-0.8720142E+00)
 number of electron     359.9999998 magnetization       9.0030505
 augmentation part      -66.1766762 magnetization       9.6713710

 Broyden mixing:
  rms(total) = 0.91188E+00    rms(broyden)= 0.91188E+00
  rms(prec ) = 0.92823E+00
  weight for this iteration     100.00

 eigenvalues of (default mixing * dielectric matrix)
  average eigenvalue GAMMA=   1.4627
  0.8624  2.0631

 Free energy of the ion-electron system (eV)
  ---------------------------------------------------
  alpha Z        PSCENC =       796.15191216
  Ewald energy   TEWEN  =    -12837.20259562
  -Hartree energ DENC   =     -1198.39436191
  -exchange      EXHF   =         0.00000000
  -V(xc)+E(xc)   XCENC  =      -289.69947651
  PAW double counting   =     15180.08004305   -14166.80937784
  entropy T*S    EENTRO =        -0.00000062
  eigenvalues    EBANDS =      -817.53561065
  atomic energy  EATOM  =     13036.45147835
  Solvation  Ediel_sol  =         0.00000000
  ---------------------------------------------------
  free energy    TOTEN  =      -296.95798959 eV

  energy without entropy =     -296.95798897  energy(sigma->0) =     -296.95798928


--------------------------------------------------------------------------------------------------------




--------------------------------------- Iteration      1(   8)  ---------------------------------------


    POTLOK:  cpu time      0.1287: real time      0.1294
    SETDIJ:  cpu time      0.6005: real time      0.6028
     EDDAV:  cpu time      9.4293: real time      9.4798
       DOS:  cpu time      0.0007: real time      0.0007
    CHARGE:  cpu time      0.4167: real time      0.4184
    MIXING:  cpu time      0.0087: real time      0.0087
    --------------------------------------------
      LOOP:  cpu time     10.5845: real time     10.6398

 eigenvalue-minimisations  :  8208
 total energy-change (2. order) :-0.3193434E+01  (-0.1755975E+00)
 number of electron     359.9999998 magnetization       4.3045107
 augmentation part      -66.1825521 magnetization       4.6043406

 Broyden mixing:
  rms(total) = 0.32556E+00    rms(broyden)= 0.32556E+00
  rms(prec ) = 0.33086E+00
  weight for this iteration     100.00

 eigenvalues of (default mixing * dielectric matrix)
  average eigenvalue GAMMA=   1.3615
  2.5069  0.9248  0.6529

 Free energy of the ion-electron system (eV)
  ---------------------------------------------------
  alpha Z        PSCENC =       796.15191216
  Ewald energy   TEWEN  =    -12837.20259562
  -Hartree energ DENC   =     -1203.57961188
  -exchange      EXHF   =         0.00000000
  -V(xc)+E(xc)   XCENC  =      -289.34273630
  PAW double counting   =     17001.35496826   -15989.06994795
  entropy T*S    EENTRO =        -0.00000000
  eigenvalues    EBANDS =      -814.91489071
  atomic energy  EATOM  =     13036.45147835
  Solvation  Ediel_sol  =         0.00000000
  ---------------------------------------------------
  free energy    TOTEN  =      -300.15142371 eV

  energy without entropy =     -300.15142371  energy(sigma->0) =     -300.15142371


--------------------------------------------------------------------------------------------------------




--------------------------------------- Iteration      1(   9)  ---------------------------------------


    POTLOK:  cpu time      0.1286: real time      0.1293
    SETDIJ:  cpu time      0.6001: real time      0.6027
     EDDAV:  cpu time     10.2461: real time     10.2988
       DOS:  cpu time      0.0011: real time      0.0011
    CHARGE:  cpu time      0.4185: real time      0.4202
    MIXING:  cpu time      0.0087: real time      0.0087
    --------------------------------------------
      LOOP:  cpu time     11.4030: real time     11.4608

 eigenvalue-minimisations  :  9056
 total energy-change (2. order) :-0.3624539E+00  (-0.4135630E-01)
 number of electron     359.9999998 magnetization       2.2989685
 augmentation part      -66.2170602 magnetization       2.4491274

 Broyden mixing:
  rms(total) = 0.14666E+00    rms(broyden)= 0.14666E+00
  rms(prec ) = 0.14859E+00
  weight for this iteration     100.00

 eigenvalues of (default mixing * dielectric matrix)
  average eigenvalue GAMMA=   1.3245
  2.6320  1.2179  0.8289  0.6193

 Free energy of the ion-electron system (eV)
  ---------------------------------------------------
  alpha Z        PSCENC =       796.15191216
  Ewald energy   TEWEN  =    -12837.20259562
  -Hartree energ DENC   =     -1202.77003009
  -exchange      EXHF   =         0.00000000
  -V(xc)+E(xc)   XCENC  =      -289.36776234
  PAW double counting   =     17283.38609808   -16271.44572039
  entropy T*S    EENTRO =        -0.00000000
  eigenvalues    EBANDS =      -815.71725778
  atomic energy  EATOM  =     13036.45147835
  Solvation  Ediel_sol  =         0.00000000
  ---------------------------------------------------
  free energy    TOTEN  =      -300.51387764 eV

  energy without entropy =     -300.51387764  energy(sigma->0) =     -300.51387764


--------------------------------------------------------------------------------------------------------




--------------------------------------- Iteration      1(  10)  ---------------------------------------


    POTLOK:  cpu time      0.1279: real time      0.1288
    SETDIJ:  cpu time      0.6035: real time      0.6055
     EDDAV:  cpu time      9.4757: real time      9.5252
       DOS:  cpu time      0.0007: real time      0.0007
    CHARGE:  cpu time      0.4186: real time      0.4204
    MIXING:  cpu time      0.0086: real time      0.0086
    --------------------------------------------
      LOOP:  cpu time     10.6350: real time     10.6893

 eigenvalue-minimisations  :  8248
 total energy-change (2. order) :-0.1001530E+00  (-0.9080145E-02)
 number of electron     359.9999998 magnetization       0.7502263
 augmentation part      -66.2181712 magnetization       0.8180492

 Broyden mixing:
  rms(total) = 0.73361E-01    rms(broyden)= 0.73361E-01
  rms(prec ) = 0.74453E-01
  weight for this iteration     100.00

 eigenvalues of (default mixing * dielectric matrix)
  average eigenvalue GAMMA=   1.3726
  2.6971  1.7604  0.9637  0.8169  0.6249

 Free energy of the ion-electron system (eV)
  ---------------------------------------------------
  alpha Z        PSCENC =       796.15191216
  Ewald energy   TEWEN  =    -12837.20259562
  -Hartree energ DENC   =     -1203.01459252
  -exchange      EXHF   =         0.00000000
  -V(xc)+E(xc)   XCENC  =      -289.35906709
  PAW double counting   =     17289.78194382   -16277.85272174
  entropy T*S    EENTRO =        -0.00000000
  eigenvalues    EBANDS =      -815.57038801
  atomic energy  EATOM  =     13036.45147835
  Solvation  Ediel_sol  =         0.00000000
  ---------------------------------------------------
  free energy    TOTEN  =      -300.61403065 eV

  energy without entropy =     -300.61403065  energy(sigma->0) =     -300.61403065


--------------------------------------------------------------------------------------------------------




--------------------------------------- Iteration      1(  11)  ---------------------------------------


    POTLOK:  cpu time      0.1281: real time      0.1288
    SETDIJ:  cpu time      0.6000: real time      0.6025
     EDDAV:  cpu time     10.0381: real time     10.0943
       DOS:  cpu time      0.0010: real time      0.0010
    CHARGE:  cpu time      0.4159: real time      0.4176
    MIXING:  cpu time      0.0076: real time      0.0076
    --------------------------------------------
      LOOP:  cpu time     11.1907: real time     11.2520

 eigenvalue-minimisations  :  8840
 total energy-change (2. order) :-0.3223451E-01  (-0.3670795E-02)
 number of electron     359.9999998 magnetization       0.1869161
 augmentation part      -66.2047445 magnetization       0.2055389

 Broyden mixing:
  rms(total) = 0.28940E-01    rms(broyden)= 0.28940E-01
  rms(prec ) = 0.29484E-01
  weight for this iteration     100.00

 eigenvalues of (default mixing * dielectric matrix)
  average eigenvalue GAMMA=   1.4029
  2.9025  2.1839  1.1598  0.8543  0.6951  0.6217

 Free energy of the ion-electron system (eV)
  ---------------------------------------------------
  alpha Z        PSCENC =       796.15191216
  Ewald energy   TEWEN  =    -12837.20259562
  -Hartree energ DENC   =     -1204.09348215
  -exchange      EXHF   =         0.00000000
  -V(xc)+E(xc)   XCENC  =      -289.31501483
  PAW double counting   =     17215.21029991   -16203.25189123
  entropy T*S    EENTRO =        -0.00000000
  eigenvalues    EBANDS =      -814.59697176
  atomic energy  EATOM  =     13036.45147835
  Solvation  Ediel_sol  =         0.00000000
  ---------------------------------------------------
  free energy    TOTEN  =      -300.64626516 eV

  energy without entropy =     -300.64626516  energy(sigma->0) =     -300.64626516


--------------------------------------------------------------------------------------------------------




--------------------------------------- Iteration      1(  12)  ---------------------------------------


    POTLOK:  cpu time      0.1423: real time      0.1452
    SETDIJ:  cpu time      0.6020: real time      0.6035
     EDDAV:  cpu time      9.9310: real time      9.9813
       DOS:  cpu time      0.0010: real time      0.0010
    CHARGE:  cpu time      0.4175: real time      0.4192
    MIXING:  cpu time      0.0077: real time      0.0077
    --------------------------------------------
      LOOP:  cpu time     11.1015: real time     11.1578

 eigenvalue-minimisations  :  8648
 total energy-change (2. order) :-0.3373585E-02  (-0.4474087E-03)
 number of electron     359.9999998 magnetization       0.0627153
 augmentation part      -66.2042072 magnetization       0.0672078

 Broyden mixing:
  rms(total) = 0.10926E-01    rms(broyden)= 0.10926E-01
  rms(prec ) = 0.11521E-01
  weight for this iteration     100.00

 eigenvalues of (default mixing * dielectric matrix)
  average eigenvalue GAMMA=   1.3643
  2.9989  2.3336  1.1982  0.8777  0.8777  0.6082  0.6559

 Free energy of the ion-electron system (eV)
  ---------------------------------------------------
  alpha Z        PSCENC =       796.15191216
  Ewald energy   TEWEN  =    -12837.20259562
  -Hartree energ DENC   =     -1204.22644263
  -exchange      EXHF   =         0.00000000
  -V(xc)+E(xc)   XCENC  =      -289.31365068
  PAW double counting   =     17179.73596424   -16167.75508200
  entropy T*S    EENTRO =        -0.00000000
  eigenvalues    EBANDS =      -814.49122255
  atomic energy  EATOM  =     13036.45147835
  Solvation  Ediel_sol  =         0.00000000
  ---------------------------------------------------
  free energy    TOTEN  =      -300.64963874 eV

  energy without entropy =     -300.64963874  energy(sigma->0) =     -300.64963874


--------------------------------------------------------------------------------------------------------




--------------------------------------- Iteration      1(  13)  ---------------------------------------


    POTLOK:  cpu time      0.1282: real time      0.1288
    SETDIJ:  cpu time      0.6040: real time      0.6054
     EDDAV:  cpu time     10.7271: real time     10.7807
       DOS:  cpu time      0.0007: real time      0.0007
    CHARGE:  cpu time      0.4151: real time      0.4166
    MIXING:  cpu time      0.0081: real time      0.0081
    --------------------------------------------
      LOOP:  cpu time     11.8831: real time     11.9402

 eigenvalue-minimisations  :  9648
 total energy-change (2. order) :-0.1380049E-03  (-0.6294627E-04)
 number of electron     359.9999998 magnetization       0.0172100
 augmentation part      -66.2053858 magnetization       0.0180927

 Broyden mixing:
  rms(total) = 0.45174E-02    rms(broyden)= 0.45174E-02
  rms(prec ) = 0.47550E-02
  weight for this iteration     100.00

 eigenvalues of (default mixing * dielectric matrix)
  average eigenvalue GAMMA=   1.3500
  3.0484  2.4355  1.1218  1.1218  0.9544  0.8611  0.6497  0.6075

 Free energy of the ion-electron system (eV)
  ---------------------------------------------------
  alpha Z        PSCENC =       796.15191216
  Ewald energy   TEWEN  =    -12837.20259562
  -Hartree energ DENC   =     -1204.14953059
  -exchange      EXHF   =         0.00000000
  -V(xc)+E(xc)   XCENC  =      -289.32217950
  PAW double counting   =     17165.63388765   -16153.64196969
  entropy T*S    EENTRO =        -0.00000000
  eigenvalues    EBANDS =      -814.57077951
  atomic energy  EATOM  =     13036.45147835
  Solvation  Ediel_sol  =         0.00000000
  ---------------------------------------------------
  free energy    TOTEN  =      -300.64977675 eV

  energy without entropy =     -300.64977675  energy(sigma->0) =     -300.64977675


--------------------------------------------------------------------------------------------------------




--------------------------------------- Iteration      1(  14)  ---------------------------------------


    POTLOK:  cpu time      0.1278: real time      0.1286
    SETDIJ:  cpu time      0.6018: real time      0.6035
     EDDAV:  cpu time      9.6281: real time      9.6730
       DOS:  cpu time      0.0008: real time      0.0008
    CHARGE:  cpu time      0.4087: real time      0.4101
    MIXING:  cpu time      0.0079: real time      0.0079
    --------------------------------------------
      LOOP:  cpu time     10.7751: real time     10.8239

 eigenvalue-minimisations  :  8344
 total energy-change (2. order) :-0.1837165E-04  (-0.8919515E-05)
 number of electron     359.9999998 magnetization       0.0050160
 augmentation part      -66.2050061 magnetization       0.0054113

 Broyden mixing:
  rms(total) = 0.17035E-02    rms(broyden)= 0.17035E-02
  rms(prec ) = 0.18158E-02
  weight for this iteration     100.00

 eigenvalues of (default mixing * dielectric matrix)
  average eigenvalue GAMMA=   1.3328
  3.0763  2.4593  1.4542  1.1858  0.8825  0.8825  0.8025  0.6093  0.6434

 Free energy of the ion-electron system (eV)
  ---------------------------------------------------
  alpha Z        PSCENC =       796.15191216
  Ewald energy   TEWEN  =    -12837.20259562
  -Hartree energ DENC   =     -1204.16019006
  -exchange      EXHF   =         0.00000000
  -V(xc)+E(xc)   XCENC  =      -289.32200927
  PAW double counting   =     17161.18335935   -16149.18863557
  entropy T*S    EENTRO =        -0.00000000
  eigenvalues    EBANDS =      -814.56311445
  atomic energy  EATOM  =     13036.45147835
  Solvation  Ediel_sol  =         0.00000000
  ---------------------------------------------------
  free energy    TOTEN  =      -300.64979512 eV

  energy without entropy =     -300.64979512  energy(sigma->0) =     -300.64979512


--------------------------------------------------------------------------------------------------------




--------------------------------------- Iteration      1(  15)  ---------------------------------------


    POTLOK:  cpu time      0.1284: real time      0.1290
    SETDIJ:  cpu time      0.6010: real time      0.6028
     EDDAV:  cpu time      9.9011: real time      9.9467
       DOS:  cpu time      0.0009: real time      0.0009
    CHARGE:  cpu time      0.4113: real time      0.4128
    MIXING:  cpu time      0.0080: real time      0.0080
    --------------------------------------------
      LOOP:  cpu time     11.0505: real time     11.1002

 eigenvalue-minimisations  :  8664
 total energy-change (2. order) :-0.4062695E-05  (-0.2068764E-05)
 number of electron     359.9999998 magnetization       0.0015210
 augmentation part      -66.2051037 magnetization       0.0017177

 Broyden mixing:
  rms(total) = 0.75483E-03    rms(broyden)= 0.75483E-03
  rms(prec ) = 0.81327E-03
  weight for this iteration     100.00

 eigenvalues of (default mixing * dielectric matrix)
  average eigenvalue GAMMA=   1.3016
  3.0900  2.4315  1.6669  1.0914  0.9823  0.9823  0.8195  0.7132  0.6196  0.6196

 Free energy of the ion-electron system (eV)
  ---------------------------------------------------
  alpha Z        PSCENC =       796.15191216
  Ewald energy   TEWEN  =    -12837.20259562
  -Hartree energ DENC   =     -1204.15104181
  -exchange      EXHF   =         0.00000000
  -V(xc)+E(xc)   XCENC  =      -289.32212832
  PAW double counting   =     17160.57987381   -16148.58434401
  entropy T*S    EENTRO =        -0.00000000
  eigenvalues    EBANDS =      -814.57295375
  atomic energy  EATOM  =     13036.45147835
  Solvation  Ediel_sol  =         0.00000000
  ---------------------------------------------------
  free energy    TOTEN  =      -300.64979918 eV

  energy without entropy =     -300.64979918  energy(sigma->0) =     -300.64979918


--------------------------------------------------------------------------------------------------------




--------------------------------------- Iteration      1(  16)  ---------------------------------------


    POTLOK:  cpu time      0.1298: real time      0.1306
    SETDIJ:  cpu time      0.5997: real time      0.6015
     EDDAV:  cpu time      6.7445: real time      6.7771
       DOS:  cpu time      0.0008: real time      0.0008
    --------------------------------------------
      LOOP:  cpu time      7.4747: real time      7.5100

 eigenvalue-minimisations  :  5032
 total energy-change (2. order) :-0.5419454E-06  (-0.1622561E-06)
 number of electron     359.9999998 magnetization       0.0015210
 augmentation part      -66.2051037 magnetization       0.0017177

 Free energy of the ion-electron system (eV)
  ---------------------------------------------------
  alpha Z        PSCENC =       796.15191216
  Ewald energy   TEWEN  =    -12837.20259562
  -Hartree energ DENC   =     -1204.14576739
  -exchange      EXHF   =         0.00000000
  -V(xc)+E(xc)   XCENC  =      -289.32236272
  PAW double counting   =     17160.45696164   -16148.46113592
  entropy T*S    EENTRO =        -0.00000000
  eigenvalues    EBANDS =      -814.57829022
  atomic energy  EATOM  =     13036.45147835
  Solvation  Ediel_sol  =         0.00000000
  ---------------------------------------------------
  free energy    TOTEN  =      -300.64979973 eV

  energy without entropy =     -300.64979973  energy(sigma->0) =     -300.64979973


--------------------------------------------------------------------------------------------------------




 average (electrostatic) potential at core
  the test charge radii are     1.1631  1.0808
  (the norm of the test charge is              1.0000)
       1 -33.4246       2 -33.4363       3 -33.2280       4 -33.6356       5 -33.5249
       6 -33.5819       7 -33.6674       8 -33.4749       9 -33.5067      10 -33.4612
      11 -33.3389      12 -33.4672      13 -33.4936      14 -33.4746      15 -33.3468
      16 -33.5659      17 -33.3031      18 -33.5369      19 -33.2726      20 -33.3134
      21 -33.4722      22 -33.2369      23 -33.6727      24 -33.5244      25 -33.4250
      26 -33.5668      27 -33.6705      28 -33.3408      29 -33.3597      30 -33.4335
      31 -33.6254      32 -33.5217      33 -33.6800      34 -33.4523      35 -33.4744
      36 -33.4050      37 -55.0170      38 -55.1848      39 -54.8046      40 -54.8700
      41 -55.0388      42 -54.8420      43 -54.8692      44 -54.9294      45 -54.9006
      46 -54.7420      47 -54.8543      48 -54.8904      49 -54.7583      50 -54.3319
      51 -55.0688      52 -54.8705      53 -55.0509      54 -55.0006      55 -54.8367
      56 -54.8658      57 -54.9361      58 -54.9136      59 -54.7507      60 -54.9714
      61 -55.0092      62 -54.8200      63 -54.8235      64 -55.0237      65 -54.5624
      66 -54.5907      67 -54.6356      68 -55.0095      69 -54.9692      70 -54.8578
      71 -54.7343      72 -54.7658
 
 
 
 E-fermi :   3.4770     XC(G=0):  -9.3596     alpha+bet : -8.8127

 Fermi energy:         3.4769835642

 spin component 1

 k-point     1 :       0.0000    0.0000    0.0000
  band No.  band energies     occupation 
      1     -10.9848      1.00000
      2     -10.6425      1.00000
      3     -10.5120      1.00000
      4     -10.4415      1.00000
      5     -10.3781      1.00000
      6     -10.2749      1.00000
      7     -10.1675      1.00000
      8     -10.1489      1.00000
      9     -10.0702      1.00000
     10     -10.0117      1.00000
     11      -9.9475      1.00000
     12      -9.9076      1.00000
     13      -9.8436      1.00000
     14      -9.8209      1.00000
     15      -9.7491      1.00000
     16      -9.6798      1.00000
     17      -9.6687      1.00000
     18      -9.6325      1.00000
     19      -9.5499      1.00000
     20      -9.5134      1.00000
     21      -9.4955      1.00000
     22      -9.4717      1.00000
     23      -9.4284      1.00000
     24      -9.3938      1.00000
     25      -9.3521      1.00000
     26      -9.2822      1.00000
     27      -9.2510      1.00000
     28      -9.2285      1.00000
     29      -9.2181      1.00000
     30      -9.1867      1.00000
     31      -9.1446      1.00000
     32      -9.0612      1.00000
     33      -9.0194      1.00000
     34      -8.9542      1.00000
     35      -8.8625      1.00000
     36      -8.5806      1.00000
     37      -5.5006      1.00000
     38      -5.4033      1.00000
     39      -5.3505      1.00000
     40      -5.2563      1.00000
     41      -5.2116      1.00000
     42      -5.1556      1.00000
     43      -5.1032      1.00000
     44      -5.0352      1.00000
     45      -4.8217      1.00000
     46      -4.7484      1.00000
     47      -4.6564      1.00000
     48      -4.5883      1.00000
     49      -4.5664      1.00000
     50      -4.5261      1.00000
     51      -4.4758      1.00000
     52      -4.4512      1.00000
     53      -4.4272      1.00000
     54      -4.3977      1.00000
     55      -4.3331      1.00000
     56      -4.2947      1.00000
     57      -4.2752      1.00000
     58      -4.2399      1.00000
     59      -4.1999      1.00000
     60      -4.1879      1.00000
     61      -4.1368      1.00000
     62      -4.1230      1.00000
     63      -3.9915      1.00000
     64      -3.9391      1.00000
     65      -3.8736      1.00000
     66      -3.7398      1.00000
     67      -3.7145      1.00000
     68      -3.6124      1.00000
     69      -3.5061      1.00000
     70      -3.4288      1.00000
     71      -2.4752      1.00000
     72      -2.3958      1.00000
     73      -1.9531      1.00000
     74      -1.6600      1.00000
     75      -1.5944      1.00000
     76      -1.5430      1.00000
     77      -1.4254      1.00000
     78      -1.3611      1.00000
     79      -1.3045      1.00000
     80      -1.2686      1.00000
     81      -1.2525      1.00000
     82      -1.2106      1.00000
     83      -1.1266      1.00000
     84      -1.0663      1.00000
     85      -1.0329      1.00000
     86      -0.8569      1.00000
     87      -0.7913      1.00000
     88      -0.7251      1.00000
     89      -0.6912      1.00000
     90      -0.6612      1.00000
     91      -0.6178      1.00000
     92      -0.5139      1.00000
     93      -0.4507      1.00000
     94      -0.3333      1.00000
     95      -0.3241      1.00000
     96      -0.2900      1.00000
     97      -0.2029      1.00000
     98      -0.1233      1.00000
     99      -0.0368      1.00000
    100      -0.0236      1.00000
    101       0.0650      1.00000
    102       0.1355      1.00000
    103       0.1523      1.00000
    104       0.1670      1.00000
    105       0.2019      1.00000
    106       0.2328      1.00000
    107       0.2415      1.00000
    108       0.3384      1.00000
    109       0.4165      1.00000
    110       0.4642      1.00000
    111       0.4883      1.00000
    112       0.5078      1.00000
    113       0.5376      1.00000
    114       0.5898      1.00000
    115       0.6177      1.00000
    116       0.6471      1.00000
    117       0.6848      1.00000
    118       0.7200      1.00000
    119       0.7534      1.00000
    120       0.7664      1.00000
    121       0.8038      1.00000
    122       0.8299      1.00000
    123       0.8558      1.00000
    124       0.8727      1.00000
    125       0.9184      1.00000
    126       0.9455      1.00000
    127       0.9612      1.00000
    128       1.0035      1.00000
    129       1.0142      1.00000
    130       1.0776      1.00000
    131       1.1122      1.00000
    132       1.1445      1.00000
    133       1.1594      1.00000
    134       1.2227      1.00000
    135       1.2719      1.00000
    136       1.3017      1.00000
    137       1.3240      1.00000
    138       1.3910      1.00000
    139       1.4312      1.00000
    140       1.5424      1.00000
    141       1.5844      1.00000
    142       1.5912      1.00000
    143       1.6284      1.00000
    144       1.6694      1.00000
    145       1.6762      1.00000
    146       1.7166      1.00000
    147       1.7459      1.00000
    148       1.8027      1.00000
    149       1.8555      1.00000
[...]
   -.183E+01 -.120E+02 -.278E+02   0.183E+01 0.142E+02 0.307E+02   -.569E-01 -.223E+01 -.272E+01   0.284E-03 0.148E-03 0.696E-04
   0.105E+02 -.232E+01 0.231E+02   -.129E+02 0.201E+01 -.260E+02   0.230E+01 0.182E+00 0.273E+01   0.203E-03 0.577E-03 -.110E-03
   0.256E+02 -.618E+00 0.223E+02   -.274E+02 0.965E+00 -.240E+02   0.167E+01 -.290E+00 0.150E+01   -.365E-03 -.676E-03 0.797E-04
   -.769E+01 0.258E+01 0.366E+02   0.820E+01 -.394E+01 -.388E+02   -.523E-01 0.129E+01 0.145E+01   0.226E-03 0.518E-03 0.509E-04
   0.188E+02 -.517E+01 0.193E+02   -.205E+02 0.545E+01 -.209E+02   0.148E+01 -.701E+00 0.202E+01   -.452E-03 -.438E-03 -.760E-04
   -.922E+01 0.354E+02 0.288E+02   0.912E+01 -.375E+02 -.303E+02   0.270E-01 0.161E+01 0.167E+01   0.709E-03 -.201E-03 -.182E-03
   0.204E+02 -.873E+01 0.175E+02   -.218E+02 0.894E+01 -.191E+02   0.129E+01 -.334E+00 0.208E+01   -.354E-03 -.103E-03 -.130E-03
   0.155E+02 0.334E+00 0.187E+02   -.159E+02 -.133E+01 -.196E+02   0.141E+00 0.104E+01 0.154E+01   0.233E-03 0.408E-03 -.246E-03
   0.248E+01 0.110E+02 0.198E+02   -.277E+01 -.123E+02 -.216E+02   0.273E+00 0.110E+01 0.175E+01   0.352E-03 0.207E-03 0.241E-03
   0.360E+01 0.466E+01 -.295E+02   -.379E+01 -.403E+01 0.313E+02   0.110E+00 -.781E+00 -.244E+01   -.225E-03 -.326E-03 0.137E-03
   0.525E+01 -.358E+01 -.192E+02   -.532E+01 0.468E+01 0.208E+02   -.335E+00 -.825E+00 -.175E+01   -.370E-03 -.377E-03 -.190E-03
   -.103E+02 0.942E+00 -.158E+02   0.110E+02 -.151E+01 0.176E+02   -.925E+00 0.545E+00 -.162E+01   0.540E-03 0.485E-03 -.156E-03
   0.641E+01 -.184E+02 -.217E+02   -.698E+01 0.198E+02 0.237E+02   -.398E+00 -.114E+01 -.254E+01   0.887E-04 -.196E-03 0.497E-03
   -.154E+02 0.118E+02 -.233E+02   0.167E+02 -.118E+02 0.251E+02   -.102E+01 0.485E-01 -.165E+01   0.465E-03 -.243E-03 -.166E-03
   0.210E+02 -.293E+02 -.306E+02   -.212E+02 0.311E+02 0.322E+02   -.673E-01 -.156E+01 -.148E+01   -.265E-03 0.220E-03 0.355E-03
   0.363E+01 -.647E+00 -.224E+02   -.358E+01 0.145E+01 0.234E+02   -.142E+00 -.133E+01 -.808E+00   -.388E-03 -.106E-03 0.733E-04
   0.486E+01 0.275E+02 0.233E+02   -.491E+01 -.290E+02 -.250E+02   -.282E+00 0.134E+01 0.161E+01   -.221E-03 -.207E-03 -.188E-03
   -.210E+02 0.117E+02 0.322E+02   0.220E+02 -.132E+02 -.343E+02   -.264E+00 0.123E+01 0.183E+01   0.306E-03 0.422E-03 0.197E-03
   -.739E+01 -.228E+01 0.305E+02   0.779E+01 0.314E+01 -.325E+02   -.201E+00 -.150E+01 0.204E+01   -.409E-03 -.296E-04 -.302E-03
   -.168E+02 -.138E+01 0.251E+02   0.185E+02 0.135E+01 -.267E+02   -.115E+01 0.395E+00 0.187E+01   -.115E-03 0.251E-03 -.356E-03
   -.129E+02 -.174E+02 0.278E+02   0.131E+02 0.188E+02 -.292E+02   0.266E-01 -.172E+01 0.152E+01   0.199E-03 -.507E-03 -.278E-03
   -.173E+02 -.243E+02 -.122E+02   0.178E+02 0.256E+02 0.128E+02   0.225E+00 -.104E+01 -.117E+01   -.334E-03 -.432E-03 0.468E-03
   0.864E+01 0.135E+02 -.301E+02   -.881E+01 -.149E+02 0.317E+02   -.391E-01 0.116E+01 -.154E+01   0.198E-04 0.248E-03 0.244E-03
   -.106E+02 0.100E+02 -.338E+02   0.106E+02 -.115E+02 0.358E+02   0.134E+00 0.126E+01 -.217E+01   0.272E-03 0.223E-03 0.964E-04
   0.101E+02 -.236E+01 -.274E+02   -.111E+02 0.330E+01 0.295E+02   0.119E+01 -.573E+00 -.188E+01   -.572E-03 -.456E-03 -.187E-03
   -.596E+01 0.278E+01 -.333E+02   0.620E+01 -.349E+01 0.350E+02   -.287E+00 0.118E+01 -.191E+01   0.745E-04 0.401E-03 0.106E-03
   0.298E+02 -.213E+02 -.270E+02   -.316E+02 0.219E+02 0.290E+02   0.131E+01 -.420E+00 -.164E+01   -.712E-03 -.542E-05 -.326E-04
   0.451E+01 0.265E+02 -.816E+01   -.471E+01 -.276E+02 0.935E+01   -.326E+00 0.116E+01 -.163E+01   0.403E-03 -.194E-03 0.353E-03
   0.962E+01 -.998E+01 -.187E+02   -.107E+02 0.107E+02 0.203E+02   0.140E+01 -.448E+00 -.161E+01   -.119E-04 -.505E-03 -.121E-03
   -.374E+01 0.115E+02 -.207E+02   0.397E+01 -.129E+02 0.220E+02   -.513E+00 0.959E+00 -.137E+01   0.545E-03 0.490E-03 -.775E-04
   -.197E+01 0.133E+02 -.158E+02   0.172E+01 -.142E+02 0.172E+02   0.332E+00 0.158E+01 -.196E+01   0.433E-03 0.268E-04 -.754E-04
   0.260E+01 -.218E+02 0.291E+02   -.226E+01 0.229E+02 -.306E+02   -.236E+00 -.133E+01 0.184E+01   -.281E-03 0.265E-04 -.425E-04
   0.167E+02 0.255E+01 0.893E+01   -.176E+02 -.160E+01 -.102E+02   0.446E+00 -.101E+01 0.208E+01   0.464E-04 -.306E-03 0.552E-04
   -.792E+00 0.123E+01 0.392E+02   0.102E+01 -.589E+00 -.410E+02   0.190E+00 -.116E+01 0.102E+01   -.235E-03 -.590E-03 0.140E-03
   0.528E+01 -.362E+02 0.131E+02   -.526E+01 0.382E+02 -.140E+02   0.187E+00 -.119E+01 0.102E+01   -.627E-03 0.494E-03 -.178E-03
   -.195E+02 0.122E+02 0.180E+02   0.212E+02 -.124E+02 -.197E+02   -.136E+01 0.769E+00 0.119E+01   0.223E-03 -.552E-04 -.153E-03
   -.260E+02 0.648E+01 0.184E+02   0.274E+02 -.699E+01 -.199E+02   -.125E+01 0.369E+00 0.180E+01   0.588E-03 0.633E-03 -.370E-03
   -.114E+02 0.133E-01 -.202E+02   0.125E+02 -.578E-01 0.218E+02   -.145E+01 0.345E-01 -.136E+01   0.255E-03 0.631E-03 0.876E-04
 -----------------------------------------------------------------------------------------------
   0.157E+01 0.162E+01 -.275E+00   0.107E-13 0.480E-13 -.462E-13   -.157E+01 -.162E+01 0.276E+00   -.758E-04 -.437E-03 -.752E-03
 
 
 POSITION                                       TOTAL-FORCE (eV/Angst)
 -----------------------------------------------------------------------------------
      1.02448      0.66507      1.47581        -0.622758     -0.487459     -0.064289
      3.15235     11.03487      4.06668        -0.034691     -0.541097     -0.574533
      7.37908      2.63185      4.07229        -0.540669     -0.403595      0.732778
      7.34233      6.81194      4.16958        -0.483898      0.653921     -0.355009
      7.40556     10.95393      4.13241         0.062630     -0.486472      0.465636
     11.16939      2.50538      4.15898         0.153549      0.497077     -0.204118
     11.50326      6.47361      4.19960         0.393349      0.213416     -0.494770
     11.50236     10.93989      4.00399        -0.081684      0.038797      0.266312
      0.74125      1.63678      6.89063         0.116109      0.313664     -0.093847
      0.68068      5.91265      6.90144        -0.521242      0.567597      0.103664
      0.38053     10.63651      7.04625         0.090793     -0.707914     -0.300012
      4.58422      1.97008      6.91401         0.431859      0.068694      0.116285
      4.52323      6.19382      6.96281         0.112162      0.313282     -0.527198
      5.01497     10.12317      6.99567         0.349150     -0.052429      0.061491
      8.52681      2.08347      6.88269         0.408312      0.254618     -0.033048
      8.94890      5.93616      6.88931         0.350664      0.182479      0.051362
      2.96084      6.71344      4.14621         0.981965      0.027203     -0.533679
      3.24753      2.49021      4.02752         0.334940     -0.009147     -0.110940
      9.00171     10.05116      6.86744        -0.558737      0.743409      0.421699
     11.03773      8.12409      9.54408        -0.042682      0.439794      0.346666
     10.75997      0.05883      9.78651        -0.367866     -0.347026     -0.046735
      1.31274      4.39893      1.49162        -0.241428      0.483241     -0.388136
      0.80647      8.79446      1.60817         0.528541      0.166698      0.038951
      5.50564      0.34455      1.39498        -0.196591     -0.125552     -0.015221
      5.42334      4.62730      1.28852        -0.845541     -0.221876      0.244427
      9.40064      0.54253      1.48789        -0.069626      0.148771      0.387990
      9.18989      4.71845      1.14931         0.408139      0.132036      0.498774
      5.03795      9.04498      1.06476        -0.211285     -0.286195      0.610844
      2.64290      3.99748      9.53309         0.114645     -0.002439      1.082239
      2.40504      8.29141      9.64840         0.232142      0.204849     -0.202949
      2.97005     12.36900      9.57651        -0.037750     -0.652803      0.211881
      6.59037      4.24763      9.50056         0.192438     -0.502876     -0.005728
      7.08085      7.94741      9.72576         0.107830      0.289805     -0.486368
      6.90748      0.05942      9.69281         0.226767     -0.545319     -0.362496
     11.14891      3.80022      9.52413        -0.062163      0.026951      0.137968
      9.57812      8.82401      1.38421        -0.094358     -0.122113     -0.147004
     11.23373      0.05634      7.27802        -0.169969      0.055732     -0.150466
      2.61648      4.34637      7.14042         0.456796     -0.073015     -0.838699
      3.12032      8.45990      7.08793        -0.268019     -0.420784      0.363900
      6.69152      0.43337      7.11395        -0.069190     -0.475636      0.183138
      7.03952      4.25465      6.93668        -0.150123     -0.119758      0.386725
      7.09840      8.32613      6.96412        -0.268980      0.049212      0.612761
     11.14685      4.29187      7.03318        -0.014907     -0.243915     -0.039464
      9.43359      0.17989      4.14690        -0.076442     -0.147556     -0.615778
      1.06141      0.11804      4.01001        -0.402128      0.271056     -0.158109
      0.77299      4.40885      3.97087        -0.276063     -0.021065      0.236310
      1.12302      8.40381      4.17407        -0.970361      0.284830     -0.560820
      4.88664      0.37727      3.89199         0.271313      0.053703      0.105852
      5.27064      4.16874      3.81547        -0.286860      0.221601      0.120585
      5.07729      8.52293      3.71218        -0.094948     -0.523583      0.185625
      2.93610      0.03520      7.02876        -0.332439     -0.152923     -0.040455
     10.96258      8.59737      7.09000         0.741958     -0.283701     -0.255204
     11.37920     10.76101      1.49960         0.199235     -0.635557      0.035293
      2.86140      2.31602      1.48138         0.566750      0.367772      0.254898
     11.24030      2.34065      1.59428         0.208900     -0.233072      0.089833
      9.16752      4.32779      3.97520         0.696958      0.329172     -0.530975
      0.82470      2.20444      9.40864        -0.209771     -0.246719      0.139633
      0.55238      6.49311      9.45956         0.217110     -0.219799     -0.197107
      0.91406     10.40100      9.47864         0.186606      0.373474      0.251702
      4.72507      2.28168      9.47705        -0.047457      0.462241     -0.175905
      5.11940      6.26885      9.41448        -0.459558      0.152324      0.383599
      5.15363     10.67725      9.57261        -0.529350      0.050374     -0.442203
      9.11233      2.08743      9.47837         0.300734      0.234606     -0.065160
      9.16352      6.37092      9.47524        -0.279772     -0.426282     -0.060391
      8.87812     10.61623      9.56844         0.076851      0.641943     -0.502985
      3.09913      6.29660      1.57531         0.098982     -0.218617      0.268472
      3.01741     10.63657      1.29732        -0.434623     -0.066925      0.856725
      7.25254      2.29049      1.66213         0.420831     -0.518915     -0.798306
      7.21405      6.29119      1.55341         0.205475      0.750095      0.095784
      6.97049     10.65085      1.69041         0.332412      0.605986     -0.509616
     11.08038      6.62131      1.58987         0.152138     -0.138878      0.263836
      9.17138      8.71149      3.88962        -0.375102     -0.009408      0.274086
 -----------------------------------------------------------------------------------
    total drift:                               -0.000910      0.000235      0.000336


--------------------------------------------------------------------------------------------------------



  FREE ENERGIE OF THE ION-ELECTRON SYSTEM (eV)
  ---------------------------------------------------
  free  energy   TOTEN  =      -300.64979973 eV

  energy  without entropy=     -300.64979973  energy(sigma->0) =     -300.64979973
 


--------------------------------------------------------------------------------------------------------


    POTLOK:  cpu time      0.7279: real time      0.7302


--------------------------------------------------------------------------------------------------------


     LOOP+:  cpu time    180.4815: real time    181.4296
    4ORBIT:  cpu time      0.0000: real time      0.0000



 total charge

# of ion       s       p       d       tot
------------------------------------------
    1        1.326   0.776   0.058   2.160
    2        1.333   0.738   0.053   2.124
    3        1.284   0.885   0.076   2.244
    4        1.335   0.702   0.047   2.084
    5        1.332   0.739   0.052   2.123
    6        1.333   0.724   0.053   2.109
    7        1.333   0.704   0.047   2.083
    8        1.317   0.782   0.056   2.155
    9        1.327   0.768   0.056   2.152
   10        1.306   0.816   0.062   2.183
   11        1.314   0.806   0.059   2.180
   12        1.307   0.810   0.062   2.180
   13        1.329   0.767   0.056   2.152
   14        1.324   0.757   0.052   2.134
   15        1.316   0.801   0.061   2.178
   16        1.327   0.756   0.057   2.140
   17        1.303   0.785   0.056   2.144
   18        1.323   0.759   0.056   2.138
   19        1.306   0.814   0.059   2.179
   20        1.305   0.828   0.066   2.198
   21        1.317   0.770   0.055   2.142
   22        1.314   0.800   0.058   2.172
   23        1.333   0.708   0.044   2.085
   24        1.318   0.772   0.057   2.146
   25        1.305   0.806   0.061   2.172
   26        1.319   0.756   0.053   2.129
   27        1.339   0.707   0.052   2.098
   28        1.317   0.764   0.057   2.138
   29        1.309   0.834   0.066   2.209
   30        1.319   0.771   0.052   2.143
   31        1.339   0.713   0.052   2.103
   32        1.311   0.798   0.060   2.168
   33        1.336   0.721   0.052   2.108
   34        1.311   0.771   0.058   2.140
   35        1.324   0.767   0.054   2.144
   36        1.322   0.769   0.056   2.146
   37        1.478   2.321   0.037   3.837
   38        1.479   2.336   0.042   3.858
   39        1.477   2.298   0.029   3.804
   40        1.476   2.316   0.034   3.826
   41        1.479   2.302   0.036   3.816
   42        1.476   2.283   0.029   3.787
   43        1.476   2.305   0.031   3.812
   44        1.482   2.274   0.031   3.788
   45        1.474   2.308   0.032   3.814
   46        1.475   2.295   0.029   3.799
   47        1.481   2.280   0.031   3.792
   48        1.474   2.316   0.033   3.823
   49        1.476   2.301   0.030   3.807
   50        1.475   2.258   0.020   3.754
   51        1.478   2.306   0.036   3.820
   52        1.475   2.325   0.035   3.835
   53        1.483   2.285   0.035   3.803
   54        1.478   2.324   0.037   3.839
   55        1.477   2.295   0.031   3.804
   56        1.476   2.304   0.032   3.812
   57        1.475   2.312   0.033   3.820
   58        1.478   2.303   0.033   3.813
   59        1.476   2.301   0.030   3.807
   60        1.479   2.287   0.032   3.798
   61        1.476   2.332   0.038   3.845
   62        1.476   2.293   0.030   3.800
   63        1.478   2.295   0.031   3.803
   64        1.474   2.308   0.033   3.815
   65        1.478   2.260   0.022   3.760
   66        1.478   2.273   0.025   3.776
   67        1.477   2.266   0.025   3.768
   68        1.477   2.316   0.037   3.829
   69        1.473   2.331   0.035   3.838
   70        1.475   2.317   0.034   3.827
   71        1.475   2.285   0.027   3.787
   72        1.474   2.295   0.029   3.798
--------------------------------------------------
tot        100.677 110.550   3.172 214.400



 magnetization (x)

# of ion       s       p       d       tot
------------------------------------------
    1       -0.000   0.000   0.000   0.000
    2       -0.000  -0.000  -0.000  -0.000
    3       -0.000   0.000   0.000   0.000
    4       -0.000   0.000   0.000   0.000
    5       -0.000  -0.000  -0.000  -0.000
    6       -0.000   0.000   0.000   0.000
    7       -0.000   0.000   0.000   0.000
    8       -0.000   0.000   0.000  -0.000
    9       -0.000   0.000   0.000   0.000
   10       -0.000   0.000   0.000   0.000
   11       -0.000   0.000  -0.000   0.000
   12       -0.000   0.000   0.000   0.000
   13       -0.000   0.000  -0.000  -0.000
   14       -0.000  -0.000  -0.000  -0.000
   15       -0.000   0.000   0.000   0.000
   16       -0.000   0.000   0.000   0.000
   17       -0.000   0.000  -0.000   0.000
   18       -0.000   0.000   0.000   0.000
   19       -0.000   0.000  -0.000   0.000
   20       -0.000   0.000   0.000   0.000
   21       -0.000   0.000   0.000   0.000
   22       -0.000   0.000   0.000   0.000
   23       -0.000  -0.000  -0.000  -0.000
   24       -0.000   0.000   0.000   0.000
   25       -0.000   0.000   0.000   0.000
   26       -0.000   0.000   0.000   0.000
   27       -0.000   0.000   0.000   0.000
   28       -0.000  -0.000  -0.000  -0.000
   29       -0.000   0.000   0.000   0.000
   30        0.000  -0.000  -0.000  -0.000
   31       -0.000   0.000   0.000   0.000
   32       -0.000   0.000   0.000   0.000
   33       -0.000  -0.000  -0.000  -0.000
   34       -0.000   0.000   0.000   0.000
   35       -0.000   0.000   0.000   0.000
   36       -0.000   0.000  -0.000  -0.000
   37       -0.000  -0.000   0.000  -0.000
   38       -0.000  -0.000   0.000  -0.000
   39       -0.000  -0.000  -0.000  -0.000
   40       -0.000  -0.000   0.000  -0.000
   41       -0.000  -0.000   0.000  -0.000
   42       -0.000  -0.000  -0.000  -0.000
   43       -0.000  -0.000   0.000  -0.000
   44       -0.000  -0.000   0.000  -0.000
   45       -0.000  -0.000   0.000  -0.000
   46       -0.000  -0.000   0.000  -0.000
   47       -0.000  -0.000  -0.000  -0.000
   48       -0.000  -0.000   0.000  -0.000
   49       -0.000  -0.000   0.000  -0.000
   50       -0.000  -0.000  -0.000  -0.000
   51       -0.000  -0.000   0.000  -0.000
   52       -0.000  -0.000   0.000  -0.000
   53       -0.000  -0.000  -0.000  -0.000
   54       -0.000  -0.000   0.000  -0.000
   55       -0.000  -0.000   0.000  -0.000
   56       -0.000  -0.000   0.000  -0.000
   57       -0.000  -0.000   0.000  -0.000
   58       -0.000  -0.000   0.000  -0.000
   59       -0.000  -0.000  -0.000  -0.000
   60       -0.000  -0.000   0.000  -0.000
   61       -0.000  -0.000  -0.000  -0.000
   62       -0.000  -0.000  -0.000  -0.000
   63       -0.000  -0.000   0.000  -0.000
   64       -0.000  -0.000   0.000  -0.000
   65       -0.000  -0.000   0.000  -0.000
   66       -0.000  -0.000   0.000  -0.000
   67       -0.000  -0.000  -0.000  -0.000
   68       -0.000  -0.000   0.000  -0.000
   69       -0.000  -0.000   0.000  -0.000
   70       -0.000  -0.000  -0.000  -0.000
   71       -0.000  -0.000   0.000  -0.000
   72       -0.000  -0.000  -0.000  -0.000
--------------------------------------------------
tot         -0.000  -0.000   0.000  -0.000
 

 total amount of memory used by VASP MPI-rank0   110764. kBytes
=======================================================================

   base      :      30000. kBytes
   nonl-proj :      16355. kBytes
   fftplans  :       6179. kBytes
   grid      :      15593. kBytes
   one-center:        146. kBytes
   wavefun   :      42491. kBytes
 
  
  
 General timing and accounting informations for this job:
 ========================================================
  
                  Total CPU time used (sec):      192.059
                            User time (sec):      185.772
                          System time (sec):        6.287
                         Elapsed time (sec):      194.778
  
                   Maximum memory used (kb):      316432.
                   Average memory used (kb):          N/A
  
                          Minor page faults:       100992
                          Major page faults:           34
                 Voluntary context switches:        11272
