 vasp.6.4.2 20Jul23 (build Oct 12 2023 10:31:02) complex                         
 executed on              LinuxNV date 2025.05.28  08:35:04
 running  128 mpi-ranks, with    1 threads/rank, on    2 nodes
 distrk:  each k-point on   64 cores,    2 groups
 distr:  one band on NCORE=   4 cores,   16 groups


--------------------------------------------------------------------------------------------------------


 INCAR:
   ENCUT = 360.000000
   SIGMA = 0.050000
   EDIFF = 1.00e-06
   ALGO = Normal
   GGA = PE
   PREC = Normal
   SYSTEM = ./
   ICHARG = 2
   ISMEAR = 0
   ISPIN = 1
   ISTART = 0
   ISYM = 0
   KPAR = 2
   LMAXMIX = 4
   NELM = 100
   NPAR = 16
   LASPH = .TRUE.
   LCHARG = .FALSE.
   LWAVE = .FALSE.

 POTCAR:    PAW_PBE Ge 05Jan2001                  
 POTCAR:    PAW_PBE Se 06Sep2000                  
 POTCAR:    PAW_PBE Ge 05Jan2001                  
   VRHFIN =Ge: s2p2                                                                                 
   LEXCH  = PE                                                                                      
   EATOM  =   104.9960 eV,    7.7170 Ry                                                             
                                                                                                    
   TITEL  = PAW_PBE Ge 05Jan2001                                                                    
   LULTRA =        F    use ultrasoft PP ?                                                          
   IUNSCR =        1    unscreen: 0-lin 1-nonlin 2-no                                               
   RPACOR =    2.170    partial core radius                                                         
   POMASS =   72.610; ZVAL   =    4.000    mass and valenz                                          
   RCORE  =    2.300    outmost cutoff radius                                                       
   RWIGS  =    2.300; RWIGS  =    1.217    wigner-seitz radius (au A)                               
   ENMAX  =  173.807; ENMIN  =  130.355 eV                                                          
   ICORE  =        3    local potential                                                             
   LCOR   =        T    correct aug charges                                                         
   LPAW   =        T    paw PP                                                                      
   EAUG   =  385.843                                                                                
   DEXC   =    0.000                                                                                
   RMAX   =    2.342    core radius for proj-oper                                                   
   RAUG   =    1.300    factor for augmentation sphere                                              
   RDEP   =    2.318    radius for radial grids                                                     
   RDEPT  =    2.103    core radius for aug-charge                                                  
                                                                                                    
   Atomic configuration                                                                             
   10 entries                                                                                       
     n  l   j            E        occ.                                                              
     1  0  0.50    -10959.8463   2.0000                                                             
     2  0  0.50     -1371.6056   2.0000                                                             
     2  1  1.50     -1198.4791   6.0000                                                             
     3  0  0.50      -168.4733   2.0000                                                             
     3  1  1.50      -115.6019   6.0000                                                             
     3  2  2.50       -29.3106  10.0000                                                             
     4  0  0.50       -11.7309   2.0000                                                             
     4  1  0.50        -3.8952   2.0000                                                             
     4  2  1.50        -4.0817   0.0000                                                             
     4  3  2.50        -4.0817   0.0000                                                             
   Description                                                                                      
     l       E           TYP  RCUT    TYP  RCUT                                                     
     0    -11.7309493     23  2.300                                                                 
     0     -7.4578696     23  2.300                                                                 
     1     -3.8952261     23  2.300                                                                 
     1      6.1178114     23  2.300                                                                 
     2     -4.0817478     23  2.300                                                                 
     3     -1.3605826      7  2.300                                                                 
  local pseudopotential read in
  partial core-charges read in
  partial kinetic energy density read in
  atomic valenz-charges read in
  non local Contribution for L=            0  read in
    real space projection operators read in
  non local Contribution for L=            0  read in
    real space projection operators read in
  non local Contribution for L=            1  read in
    real space projection operators read in
  non local Contribution for L=            1  read in
    real space projection operators read in
  non local Contribution for L=            2  read in
    real space projection operators read in
    PAW grid and wavefunctions read in
 
   number of l-projection  operators is LMAX  =            5
   number of lm-projection operators is LMMAX =           13
 
 POTCAR:    PAW_PBE Se 06Sep2000                  
   VRHFIN =Se: s2p4                                                                                 
   LEXCH  = PE                                                                                      
   EATOM  =   257.1286 eV,   18.8984 Ry                                                             
                                                                                                    
   TITEL  = PAW_PBE Se 06Sep2000                                                                    
   LULTRA =        F    use ultrasoft PP ?                                                          
   IUNSCR =        1    unscreen: 0-lin 1-nonlin 2-no                                               
   RPACOR =    1.900    partial core radius                                                         
   POMASS =   78.960; ZVAL   =    6.000    mass and valenz                                          
   RCORE  =    2.100    outmost cutoff radius                                                       
   RWIGS  =    2.200; RWIGS  =    1.164    wigner-seitz radius (au A)                               
   ENMAX  =  211.555; ENMIN  =  158.666 eV                                                          
   ICORE  =        3    local potential                                                             
   LCOR   =        T    correct aug charges                                                         
   LPAW   =        T    paw PP                                                                      
   EAUG   =  446.842                                                                                
   DEXC   =    0.000                                                                                
   RMAX   =    2.147    core radius for proj-oper                                                   
   RAUG   =    1.300    factor for augmentation sphere                                              
   RDEP   =    2.177    radius for radial grids                                                     
   RDEPT  =    1.928    core radius for aug-charge                                                  
                                                                                                    
   Atomic configuration                                                                             
   10 entries                                                                                       
     n  l   j            E        occ.                                                              
     1  0  0.50    -12503.4787   2.0000                                                             
     2  0  0.50     -1606.9547   2.0000                                                             
     2  1  1.50     -1413.3140   6.0000                                                             
     3  0  0.50      -213.4885   2.0000                                                             
     3  1  1.50      -152.9538   6.0000                                                             
     3  2  2.50       -53.1221  10.0000                                                             
     4  0  0.50       -17.2865   2.0000                                                             
     4  1  0.50        -6.5110   4.0000                                                             
     4  2  2.50        -6.8029   0.0000                                                             
     4  3  2.50        -6.8029   0.0000                                                             
   Description                                                                                      
     l       E           TYP  RCUT    TYP  RCUT                                                     
     0    -17.2865377     23  2.100                                                                 
     0    -15.3094411     23  2.100                                                                 
     1     -6.5110275     23  2.100                                                                 
     1     -0.0695192     23  2.100                                                                 
     2     -6.8029130     23  2.100                                                                 
     3     -1.3605826      7  2.100                                                                 
  local pseudopotential read in
  partial core-charges read in
  partial kinetic energy density read in
  atomic valenz-charges read in
  non local Contribution for L=            0  read in
    real space projection operators read in
  non local Contribution for L=            0  read in
    real space projection operators read in
  non local Contribution for L=            1  read in
    real space projection operators read in
  non local Contribution for L=            1  read in
    real space projection operators read in
  non local Contribution for L=            2  read in
    real space projection operators read in
    PAW grid and wavefunctions read in
 
   number of l-projection  operators is LMAX  =            5
   number of lm-projection operators is LMMAX =           13
 
  PAW_PBE Ge 05Jan2001                  :
 energy of atom  1       EATOM= -104.9960
 kinetic energy error for atom=    0.0005 (will be added to EATOM!!)
  PAW_PBE Se 06Sep2000                  :
 energy of atom  2       EATOM= -257.1286
 kinetic energy error for atom=    0.0030 (will be added to EATOM!!)
 
 
 POSCAR: Ge Se
  positions in cartesian coordinates
  No initial velocities read in
 exchange correlation table for  LEXCH =        8
   RHO(1)=    0.500       N(1)  =     2000
   RHO(2)=  100.500       N(2)  =     4000
 


--------------------------------------------------------------------------------------------------------


 ion  position               nearest neighbor table
   1  0.250  0.116  0.130-   5 2.56   6 2.69   6 2.69
   2  0.750  0.616  0.370-   6 2.56   5 2.69   5 2.69
   3  0.750  0.884  0.870-   7 2.56   8 2.69   8 2.69
   4  0.250  0.384  0.630-   8 2.56   7 2.69   7 2.69
   5  0.250  0.957  0.349-   1 2.56   2 2.69   2 2.69
   6  0.750  0.457  0.151-   2 2.56   1 2.69   1 2.69
   7  0.750  0.043  0.651-   3 2.56   4 2.69   4 2.69
   8  0.250  0.543  0.849-   4 2.56   3 2.69   3 2.69
 

IMPORTANT INFORMATION: All symmetrisations will be switched off!
NOSYMM: (Re-)initialisation of all symmetry stuff for point group C_1.


----------------------------------------------------------------------------------------

                                     Primitive cell                                     

  volume of cell :     227.3013

  direct lattice vectors                    reciprocal lattice vectors
     4.250000000  0.000000000  0.000000000     0.235294118  0.000000000  0.000000000
     0.000000000  4.800000000  0.000000000     0.000000000  0.208333333  0.000000000
     0.000000000  0.000000000 11.142221000     0.000000000  0.000000000  0.089748713

  length of vectors
     4.250000000  4.800000000 11.142221000     0.235294118  0.208333333  0.089748713

  position of ions in fractional coordinates (direct lattice)
     0.250000000  0.116213938  0.130092041
     0.750000000  0.616213938  0.369907959
     0.750000000  0.883786062  0.869907959
     0.250000000  0.383786062  0.630092041
     0.250000000  0.957373245  0.349430014
     0.750000000  0.457373245  0.150569986
     0.750000000  0.042626755  0.650569986
     0.250000000  0.542626755  0.849430014

  ion indices of the primitive-cell ions
   primitive index   ion index
                 1           1
                 2           2
                 3           3
                 4           4
                 5           5
                 6           6
                 7           7
                 8           8

----------------------------------------------------------------------------------------

 
 
 KPOINTS: KPOINTS created by Atomic Simulation Env

Automatic generation of k-mesh.
 Grid dimensions read from file:
 generate k-points for:    6    6    2

 Generating k-lattice:

  Cartesian coordinates                     Fractional coordinates (reciprocal lattice)
     0.039215686  0.000000000  0.000000000     0.166666667  0.000000000  0.000000000
     0.000000000  0.034722222  0.000000000     0.000000000  0.166666667  0.000000000
     0.000000000  0.000000000  0.044874357     0.000000000  0.000000000  0.500000000

  Length of vectors
     0.039215686  0.034722222  0.044874357

  Shift w.r.t. Gamma in fractional coordinates (k-lattice)
     0.000000000  0.000000000  0.000000000

 
 Subroutine IBZKPT returns following result:
 ===========================================
 
 Found     40 irreducible k-points:
 
 Following reciprocal coordinates:
            Coordinates               Weight
  0.000000  0.000000  0.000000      1.000000
  0.166667  0.000000  0.000000      2.000000
  0.333333  0.000000  0.000000      2.000000
  0.500000  0.000000  0.000000      1.000000
  0.000000  0.166667  0.000000      2.000000
  0.166667  0.166667  0.000000      2.000000
  0.166667 -0.166667  0.000000      2.000000
  0.333333  0.166667  0.000000      2.000000
  0.333333 -0.166667  0.000000      2.000000
  0.500000  0.166667  0.000000      2.000000
  0.000000  0.333333  0.000000      2.000000
  0.166667  0.333333  0.000000      2.000000
  0.166667 -0.333333  0.000000      2.000000
  0.333333  0.333333  0.000000      2.000000
  0.333333 -0.333333  0.000000      2.000000
  0.500000  0.333333  0.000000      2.000000
  0.000000  0.500000  0.000000      1.000000
  0.166667  0.500000  0.000000      2.000000
  0.333333  0.500000  0.000000      2.000000
  0.500000  0.500000  0.000000      1.000000
  0.000000  0.000000  0.500000      1.000000
  0.166667  0.000000  0.500000      2.000000
  0.333333  0.000000  0.500000      2.000000
  0.500000  0.000000  0.500000      1.000000
  0.000000  0.166667  0.500000      2.000000
  0.166667  0.166667  0.500000      2.000000
  0.166667 -0.166667  0.500000      2.000000
  0.333333  0.166667  0.500000      2.000000
  0.333333 -0.166667  0.500000      2.000000
  0.500000  0.166667  0.500000      2.000000
  0.000000  0.333333  0.500000      2.000000
  0.166667  0.333333  0.500000      2.000000
  0.166667 -0.333333  0.500000      2.000000
  0.333333  0.333333  0.500000      2.000000
  0.333333 -0.333333  0.500000      2.000000
  0.500000  0.333333  0.500000      2.000000
  0.000000  0.500000  0.500000      1.000000
  0.166667  0.500000  0.500000      2.000000
  0.333333  0.500000  0.500000      2.000000
  0.500000  0.500000  0.500000      1.000000
 
 Following cartesian coordinates:
            Coordinates               Weight
  0.000000  0.000000  0.000000      1.000000
  0.039216  0.000000  0.000000      2.000000
  0.078431  0.000000  0.000000      2.000000
  0.117647  0.000000  0.000000      1.000000
  0.000000  0.034722  0.000000      2.000000
  0.039216  0.034722  0.000000      2.000000
  0.039216 -0.034722  0.000000      2.000000
  0.078431  0.034722  0.000000      2.000000
  0.078431 -0.034722  0.000000      2.000000
  0.117647  0.034722  0.000000      2.000000
  0.000000  0.069444  0.000000      2.000000
  0.039216  0.069444  0.000000      2.000000
  0.039216 -0.069444  0.000000      2.000000
  0.078431  0.069444  0.000000      2.000000
  0.078431 -0.069444  0.000000      2.000000
  0.117647  0.069444  0.000000      2.000000
  0.000000  0.104167  0.000000      1.000000
  0.039216  0.104167  0.000000      2.000000
  0.078431  0.104167  0.000000      2.000000
  0.117647  0.104167  0.000000      1.000000
  0.000000  0.000000  0.044874      1.000000
  0.039216  0.000000  0.044874      2.000000
  0.078431  0.000000  0.044874      2.000000
  0.117647  0.000000  0.044874      1.000000
  0.000000  0.034722  0.044874      2.000000
  0.039216  0.034722  0.044874      2.000000
  0.039216 -0.034722  0.044874      2.000000
  0.078431  0.034722  0.044874      2.000000
  0.078431 -0.034722  0.044874      2.000000
  0.117647  0.034722  0.044874      2.000000
  0.000000  0.069444  0.044874      2.000000
  0.039216  0.069444  0.044874      2.000000
  0.039216 -0.069444  0.044874      2.000000
  0.078431  0.069444  0.044874      2.000000
  0.078431 -0.069444  0.044874      2.000000
  0.117647  0.069444  0.044874      2.000000
  0.000000  0.104167  0.044874      1.000000
  0.039216  0.104167  0.044874      2.000000
  0.078431  0.104167  0.044874      2.000000
  0.117647  0.104167  0.044874      1.000000
 


--------------------------------------------------------------------------------------------------------




 Dimension of arrays:
   k-points           NKPTS =     40   k-points in BZ     NKDIM =     40   number of bands    NBANDS=     32
   number of dos      NEDOS =    301   number of ions     NIONS =      8
   non local maximal  LDIM  =      5   non local SUM 2l+1 LMDIM =     13
   total plane-waves  NPLWV =  25920
   max r-space proj   IRMAX =      1   max aug-charges    IRDMAX=   6397
   dimension x,y,z NGX =    20 NGY =   24 NGZ =   54
   dimension x,y,z NGXF=    40 NGYF=   48 NGZF=  108
   support grid    NGXF=    40 NGYF=   48 NGZF=  108
   ions per type =               4   4
   NGX,Y,Z   is equivalent  to a cutoff of   7.82,  8.31,  8.06 a.u.
   NGXF,Y,Z  is equivalent  to a cutoff of  15.65, 16.62, 16.11 a.u.

 SYSTEM =  ./                                      
 POSCAR =  Ge Se                                   

 Startparameter for this run:
   NWRITE =      2    write-flag & timer
   PREC   = normal    normal or accurate (medium, high low for compatibility)
   ISTART =      0    job   : 0-new  1-cont  2-samecut
   ICHARG =      2    charge: 1-file 2-atom 10-const
   ISPIN  =      1    spin polarized calculation?
   LNONCOLLINEAR =      F non collinear calculations
   LSORBIT =      F    spin-orbit coupling
   INIWAV =      1    electr: 0-lowe 1-rand  2-diag
   LASPH  =      T    aspherical Exc in radial PAW
 Electronic Relaxation 1
   ENCUT  =  360.0 eV  26.46 Ry    5.14 a.u.   6.58  7.43 17.24*2*pi/ulx,y,z
   ENINI  =  360.0     initial cutoff
   ENAUG  =  446.8 eV  augmentation charge cutoff
   NELM   =    100;   NELMIN=  2; NELMDL= -5     # of ELM steps 
   EDIFF  = 0.1E-05   stopping-criterion for ELM
   LREAL  =      F    real-space projection
   NLSPLINE    = F    spline interpolate recip. space projectors
   LCOMPAT=      F    compatible to vasp.4.4
   GGA_COMPAT  = T    GGA compatible to vasp.4.4-vasp.4.6
   LMAXPAW     = -100 max onsite density
   LMAXMIX     =    4 max onsite mixed and CHGCAR
   VOSKOWN=      0    Vosko Wilk Nusair interpolation
   ROPT   =    0.00000   0.00000
 Ionic relaxation
   EDIFFG = 0.1E-04   stopping-criterion for IOM
   NSW    =      0    number of steps for IOM
   NBLOCK =      1;   KBLOCK =      1    inner block; outer block 
   IBRION =     -1    ionic relax: 0-MD 1-quasi-New 2-CG
   NFREE  =      0    steps in history (QN), initial steepest desc. (CG)
   ISIF   =      2    stress and relaxation
   IWAVPR =     10    prediction:  0-non 1-charg 2-wave 3-comb
   ISYM   =      0    0-nonsym 1-usesym 2-fastsym
   LCORR  =      T    Harris-Foulkes like correction to forces

   POTIM  = 0.5000    time-step for ionic-motion
   TEIN   =    0.0    initial temperature
   TEBEG  =    0.0;   TEEND  =   0.0 temperature during run
   SMASS  =  -3.00    Nose mass-parameter (am)
   estimated Nose-frequenzy (Omega)   =  0.10E-29 period in steps = 0.13E+47 mass=  -0.413E-27a.u.
   SCALEE = 1.0000    scale energy and forces
   NPACO  =    256;   APACO  = 10.0  distance and # of slots for P.C.
   PSTRESS=    0.0 pullay stress

  Mass of Ions in am
   POMASS =  72.61 78.96
  Ionic Valenz
   ZVAL   =   4.00  6.00
  Atomic Wigner-Seitz radii
   RWIGS  =  -1.00 -1.00
  virtual crystal weights 
   VCA    =   1.00  1.00
   NELECT =      40.0000    total number of electrons
   NUPDOWN=      -1.0000    fix difference up-down

 DOS related values:
   EMIN   =  10.00;   EMAX   =-10.00  energy-range for DOS
   EFERMI =   0.00;   METHOD = LEGACY      
   ISMEAR =     0;   SIGMA  =   0.05  broadening in eV -4-tet -1-fermi 0-gaus

 Electronic relaxation 2 (details)
   IALGO  =     38    algorithm
   LDIAG  =      T    sub-space diagonalisation (order eigenvalues)
   LSUBROT=      F    optimize rotation matrix (better conditioning)
   TURBO    =      0    0=normal 1=particle mesh
   IRESTART =      0    0=no restart 2=restart with 2 vectors
   NREBOOT  =      0    no. of reboots
   NMIN     =      0    reboot dimension
   EREF     =   0.00    reference energy to select bands
   IMIX   =      4    mixing-type and parameters
     AMIX     =   0.40;   BMIX     =  1.00
     AMIX_MAG =   1.60;   BMIX_MAG =  1.00
     AMIN     =   0.10
     WC   =   100.;   INIMIX=   1;  MIXPRE=   1;  MAXMIX= -45

 Intra band minimization:
   WEIMIN = 0.0000     energy-eigenvalue tresh-hold
   EBREAK =  0.78E-08  absolut break condition
   DEPER  =   0.30     relativ break condition  

   TIME   =   0.40     timestep for ELM

  volume/ion in A,a.u.               =      28.41       191.74
  Fermi-wavevector in a.u.,A,eV,Ry     =   0.917404  1.733643 11.451084  0.841631
  Thomas-Fermi vector in A             =   2.042370
 
 Write flags
   LWAVE        =      F    write WAVECAR
   LDOWNSAMPLE  =      F    k-point downsampling of WAVECAR
   LCHARG       =      F    write CHGCAR
   LVTOT        =      F    write LOCPOT, total local potential
   LVHAR        =      F    write LOCPOT, Hartree potential only
   LELF         =      F    write electronic localiz. function (ELF)
   LORBIT       =      0    0 simple, 1 ext, 2 COOP (PROOUT), +10 PAW based schemes


 Dipole corrections
   LMONO  =      F    monopole corrections only (constant potential shift)
   LDIPOL =      F    correct potential (dipole corrections)
   IDIPOL =      0    1-x, 2-y, 3-z, 4-all directions 
   EPSILON=  1.0000000 bulk dielectric constant

 Exchange correlation treatment:
   GGA     =    PE    GGA type
   LEXCH   =     8    internal setting for exchange type
   LIBXC   =     F    Libxc                    
   VOSKOWN =     0    Vosko Wilk Nusair interpolation
   LHFCALC =     F    Hartree Fock is set to
   LHFONE  =     F    Hartree Fock one center treatment
   AEXX    =    0.0000 exact exchange contribution

 Linear response parameters
   LEPSILON=     F    determine dielectric tensor
   LRPA    =     F    only Hartree local field effects (RPA)
   LNABLA  =     F    use nabla operator in PAW spheres
   LVEL    =     F    velocity operator in full k-point grid
   CSHIFT  =0.1000    complex shift for real part using Kramers Kronig
   OMEGAMAX=  -1.0    maximum frequency
   DEG_THRESHOLD= 0.2000000E-02 threshold for treating states as degnerate
   RTIME   =   -0.100 relaxation time in fs
  (WPLASMAI=    0.000 imaginary part of plasma frequency in eV, 0.658/RTIME)
   DFIELD  = 0.0000000 0.0000000 0.0000000 field for delta impulse in time
 
  Optional k-point grid parameters
   LKPOINTS_OPT  =     F    use optional k-point grid
   KPOINTS_OPT_MODE=     1    mode for optional k-point grid
 
 Orbital magnetization related:
   ORBITALMAG=     F  switch on orbital magnetization
   LCHIMAG   =     F  perturbation theory with respect to B field
   DQ        =  0.001000  dq finite difference perturbation B field
   LLRAUG    =     F  two centre corrections for induced B field
   LBONE     =     F  B-component reconstruction in AE one-centre
   LVGVCALC  =     T  calculate vGv susceptibility
   LVGVAPPL  =     F  apply vGv susceptibility instead of pGv for G=0

 Random number generation:
   RANDOM_GENERATOR = DEFAULT
   PCG_SEED         = not used


--------------------------------------------------------------------------------------------------------


 Static calculation
 charge density and potential will be updated during run
 non-spin polarized calculation
 Variant of blocked Davidson
 Davidson routine will perform the subspace rotation
 perform sub-space diagonalisation
    after iterative eigenvector-optimisation
 modified Broyden-mixing scheme, WC =      100.0
 initial mixing is a Kerker type mixing with AMIX =  0.4000 and BMIX =      1.0000
 Hartree-type preconditioning will be used
 using additional bands            12
 reciprocal scheme for non local part
 use partial core corrections
 calculate Harris-corrections to forces 
   (improved forces if not selfconsistent)
 use gradient corrections 
 use of overlap-Matrix (Vanderbilt PP)
 Gauss-broadening in eV      SIGMA  =   0.05


--------------------------------------------------------------------------------------------------------


  energy-cutoff  :      360.00
  volume of cell :      227.30
      direct lattice vectors                 reciprocal lattice vectors
     4.250000000  0.000000000  0.000000000     0.235294118  0.000000000  0.000000000
     0.000000000  4.800000000  0.000000000     0.000000000  0.208333333  0.000000000
     0.000000000  0.000000000 11.142221000     0.000000000  0.000000000  0.089748713

  length of vectors
     4.250000000  4.800000000 11.142221000     0.235294118  0.208333333  0.089748713


 
 k-points in units of 2pi/SCALE and weight: KPOINTS created by Atomic Simulation Env
   0.00000000  0.00000000  0.00000000       0.014
   0.03921569  0.00000000  0.00000000       0.028
   0.07843137  0.00000000  0.00000000       0.028
   0.11764706  0.00000000  0.00000000       0.014
   0.00000000  0.03472222  0.00000000       0.028
   0.03921569  0.03472222  0.00000000       0.028
   0.03921569 -0.03472222  0.00000000       0.028
   0.07843137  0.03472222  0.00000000       0.028
   0.07843137 -0.03472222  0.00000000       0.028
   0.11764706  0.03472222  0.00000000       0.028
   0.00000000  0.06944444  0.00000000       0.028
   0.03921569  0.06944444  0.00000000       0.028
   0.03921569 -0.06944444  0.00000000       0.028
   0.07843137  0.06944444  0.00000000       0.028
   0.07843137 -0.06944444  0.00000000       0.028
   0.11764706  0.06944444  0.00000000       0.028
   0.00000000  0.10416667  0.00000000       0.014
   0.03921569  0.10416667  0.00000000       0.028
   0.07843137  0.10416667  0.00000000       0.028
   0.11764706  0.10416667  0.00000000       0.014
   0.00000000  0.00000000  0.04487436       0.014
   0.03921569  0.00000000  0.04487436       0.028
   0.07843137  0.00000000  0.04487436       0.028
   0.11764706  0.00000000  0.04487436       0.014
   0.00000000  0.03472222  0.04487436       0.028
   0.03921569  0.03472222  0.04487436       0.028
   0.03921569 -0.03472222  0.04487436       0.028
   0.07843137  0.03472222  0.04487436       0.028
   0.07843137 -0.03472222  0.04487436       0.028
   0.11764706  0.03472222  0.04487436       0.028
   0.00000000  0.06944444  0.04487436       0.028
   0.03921569  0.06944444  0.04487436       0.028
   0.03921569 -0.06944444  0.04487436       0.028
   0.07843137  0.06944444  0.04487436       0.028
   0.07843137 -0.06944444  0.04487436       0.028
   0.11764706  0.06944444  0.04487436       0.028
   0.00000000  0.10416667  0.04487436       0.014
   0.03921569  0.10416667  0.04487436       0.028
   0.07843137  0.10416667  0.04487436       0.028
   0.11764706  0.10416667  0.04487436       0.014
 
 k-points in reciprocal lattice and weights: KPOINTS created by Atomic Simulation Env
   0.00000000  0.00000000  0.00000000       0.014
   0.16666667  0.00000000  0.00000000       0.028
   0.33333333  0.00000000  0.00000000       0.028
   0.50000000  0.00000000  0.00000000       0.014
   0.00000000  0.16666667  0.00000000       0.028
   0.16666667  0.16666667  0.00000000       0.028
   0.16666667 -0.16666667  0.00000000       0.028
   0.33333333  0.16666667  0.00000000       0.028
   0.33333333 -0.16666667  0.00000000       0.028
   0.50000000  0.16666667  0.00000000       0.028
   0.00000000  0.33333333  0.00000000       0.028
   0.16666667  0.33333333  0.00000000       0.028
   0.16666667 -0.33333333  0.00000000       0.028
   0.33333333  0.33333333  0.00000000       0.028
   0.33333333 -0.33333333  0.00000000       0.028
   0.50000000  0.33333333  0.00000000       0.028
   0.00000000  0.50000000  0.00000000       0.014
   0.16666667  0.50000000  0.00000000       0.028
   0.33333333  0.50000000  0.00000000       0.028
   0.50000000  0.50000000  0.00000000       0.014
   0.00000000  0.00000000  0.50000000       0.014
   0.16666667  0.00000000  0.50000000       0.028
   0.33333333  0.00000000  0.50000000       0.028
   0.50000000  0.00000000  0.50000000       0.014
   0.00000000  0.16666667  0.50000000       0.028
   0.16666667  0.16666667  0.50000000       0.028
   0.16666667 -0.16666667  0.50000000       0.028
   0.33333333  0.16666667  0.50000000       0.028
   0.33333333 -0.16666667  0.50000000       0.028
   0.50000000  0.16666667  0.50000000       0.028
   0.00000000  0.33333333  0.50000000       0.028
   0.16666667  0.33333333  0.50000000       0.028
   0.16666667 -0.33333333  0.50000000       0.028
   0.33333333  0.33333333  0.50000000       0.028
   0.33333333 -0.33333333  0.50000000       0.028
   0.50000000  0.33333333  0.50000000       0.028
   0.00000000  0.50000000  0.50000000       0.014
   0.16666667  0.50000000  0.50000000       0.028
   0.33333333  0.50000000  0.50000000       0.028
   0.50000000  0.50000000  0.50000000       0.014
 
 position of ions in fractional coordinates (direct lattice) 
   0.25000000  0.11621394  0.13009204
   0.75000000  0.61621394  0.36990796
   0.75000000  0.88378606  0.86990796
   0.25000000  0.38378606  0.63009204
   0.25000000  0.95737325  0.34943001
   0.75000000  0.45737325  0.15056999
   0.75000000  0.04262675  0.65056999
   0.25000000  0.54262675  0.84943001
 
 position of ions in cartesian coordinates  (Angst):
   1.06250000  0.55782690  1.44951427
   3.18750000  2.95782690  4.12159623
   3.18750000  4.24217310  9.69270673
   1.06250000  1.84217310  7.02062477
   1.06250000  4.59539158  3.89342644
   3.18750000  2.19539158  1.67768406
   3.18750000  0.20460842  7.24879456
   1.06250000  2.60460842  9.46453694
 


--------------------------------------------------------------------------------------------------------


 k-point   1 :   0.0000 0.0000 0.0000  plane waves:    3541
 k-point   2 :   0.1667 0.0000 0.0000  plane waves:    3529
 k-point   3 :   0.3333 0.0000 0.0000  plane waves:    3539
 k-point   4 :   0.5000 0.0000 0.0000  plane waves:    3530
 k-point   5 :   0.0000 0.1667 0.0000  plane waves:    3539
 k-point   6 :   0.1667 0.1667 0.0000  plane waves:    3535
 k-point   7 :   0.1667-0.1667 0.0000  plane waves:    3535
 k-point   8 :   0.3333 0.1667 0.0000  plane waves:    3516
 k-point   9 :   0.3333-0.1667 0.0000  plane waves:    3516
 k-point  10 :   0.5000 0.1667 0.0000  plane waves:    3524
 k-point  11 :   0.0000 0.3333 0.0000  plane waves:    3541
 k-point  12 :   0.1667 0.3333 0.0000  plane waves:    3518
 k-point  13 :   0.1667-0.3333 0.0000  plane waves:    3518
 k-point  14 :   0.3333 0.3333 0.0000  plane waves:    3509
 k-point  15 :   0.3333-0.3333 0.0000  plane waves:    3509
 k-point  16 :   0.5000 0.3333 0.0000  plane waves:    3504
 k-point  17 :   0.0000 0.5000 0.0000  plane waves:    3554
 k-point  18 :   0.1667 0.5000 0.0000  plane waves:    3526
 k-point  19 :   0.3333 0.5000 0.0000  plane waves:    3518
 k-point  20 :   0.5000 0.5000 0.0000  plane waves:    3508
 k-point  21 :   0.0000 0.0000 0.5000  plane waves:    3530
 k-point  22 :   0.1667 0.0000 0.5000  plane waves:    3534
 k-point  23 :   0.3333 0.0000 0.5000  plane waves:    3536
 k-point  24 :   0.5000 0.0000 0.5000  plane waves:    3520
 k-point  25 :   0.0000 0.1667 0.5000  plane waves:    3534
 k-point  26 :   0.1667 0.1667 0.5000  plane waves:    3532
 k-point  27 :   0.1667-0.1667 0.5000  plane waves:    3532
 k-point  28 :   0.3333 0.1667 0.5000  plane waves:    3540
 k-point  29 :   0.3333-0.1667 0.5000  plane waves:    3540
 k-point  30 :   0.5000 0.1667 0.5000  plane waves:    3532
 k-point  31 :   0.0000 0.3333 0.5000  plane waves:    3536
 k-point  32 :   0.1667 0.3333 0.5000  plane waves:    3540
 k-point  33 :   0.1667-0.3333 0.5000  plane waves:    3540
 k-point  34 :   0.3333 0.3333 0.5000  plane waves:    3520
 k-point  35 :   0.3333-0.3333 0.5000  plane waves:    3520
 k-point  36 :   0.5000 0.3333 0.5000  plane waves:    3492
 k-point  37 :   0.0000 0.5000 0.5000  plane waves:    3532
 k-point  38 :   0.1667 0.5000 0.5000  plane waves:    3528
 k-point  39 :   0.3333 0.5000 0.5000  plane waves:    3524
 k-point  40 :   0.5000 0.5000 0.5000  plane waves:    3504

 maximum and minimum number of plane-waves per node :       909      852

 maximum number of plane-waves:      3554
 maximum index in each direction: 
   IXMAX=    6   IYMAX=    7   IZMAX=   17
   IXMIN=   -7   IYMIN=   -7   IZMIN=  -17


 parallel 3D FFT for wavefunctions:
    minimum data exchange during FFTs selected (reduces bandwidth)
 parallel 3D FFT for charge:
    minimum data exchange during FFTs selected (reduces bandwidth)


 total amount of memory used by VASP MPI-rank0    39857. kBytes
=======================================================================

   base      :      30000. kBytes
   nonl-proj :       7704. kBytes
   fftplans  :        374. kBytes
   grid      :        555. kBytes
   one-center:         16. kBytes
   wavefun   :       1208. kBytes
 
     INWAV:  cpu time      0.0000: real time      0.0001
 Broyden mixing: mesh for mixing (old mesh)
   NGX = 13   NGY = 15   NGZ = 35
  (NGX  = 40   NGY  = 48   NGZ  =108)
  gives a total of   6825 points

 initial charge density was supplied:
 charge density of overlapping atoms calculated
 number of electron      40.0000000 magnetization 
 keeping initial charge density in first step


--------------------------------------------------------------------------------------------------------


 Maximum index for augmentation-charges            69 (set IRDMAX)


--------------------------------------------------------------------------------------------------------


 First call to EWALD:  gamma=   0.290
 Maximum number of real-space cells 4x 3x 2
 Maximum number of reciprocal cells 2x 2x 5

    FEWALD:  cpu time      0.0018: real time      0.0018


--------------------------------------- Ionic step        1  -------------------------------------------




--------------------------------------- Iteration      1(   1)  ---------------------------------------


    POTLOK:  cpu time      0.0102: real time      0.0106
    SETDIJ:  cpu time      0.1372: real time      0.1377
     EDDAV:  cpu time      0.2669: real time      0.2698
       DOS:  cpu time      0.0016: real time      0.0016
    --------------------------------------------
      LOOP:  cpu time      0.4159: real time      0.4198

 eigenvalue-minimisations  :  2560
 total energy-change (2. order) : 0.1355433E+03  (-0.1255103E+04)
 number of electron      40.0000000 magnetization 
 augmentation part       40.0000000 magnetization 

 Free energy of the ion-electron system (eV)
  ---------------------------------------------------
  alpha Z        PSCENC =        74.54618523
  Ewald energy   TEWEN  =     -1326.55121331
  -Hartree energ DENC   =      -163.76320135
  -exchange      EXHF   =         0.00000000
  -V(xc)+E(xc)   XCENC  =       -35.12078175
  PAW double counting   =      1193.78262552    -1080.73714043
  entropy T*S    EENTRO =        -0.00388738
  eigenvalues    EBANDS =        24.90606746
  atomic energy  EATOM  =      1448.48460880
  Solvation  Ediel_sol  =         0.00000000
  ---------------------------------------------------
  free energy    TOTEN  =       135.54326279 eV

  energy without entropy =      135.54715017  energy(sigma->0) =      135.54520648


--------------------------------------------------------------------------------------------------------




--------------------------------------- Iteration      1(   2)  ---------------------------------------


     EDDAV:  cpu time      0.3409: real time      0.3447
       DOS:  cpu time      0.0005: real time      0.0005
    --------------------------------------------
      LOOP:  cpu time      0.3415: real time      0.3452

 eigenvalue-minimisations  :  3760
 total energy-change (2. order) :-0.1595045E+03  (-0.1546562E+03)
 number of electron      40.0000000 magnetization 
 augmentation part       40.0000000 magnetization 

 Free energy of the ion-electron system (eV)
  ---------------------------------------------------
  alpha Z        PSCENC =        74.54618523
  Ewald energy   TEWEN  =     -1326.55121331
  -Hartree energ DENC   =      -163.76320135
  -exchange      EXHF   =         0.00000000
  -V(xc)+E(xc)   XCENC  =       -35.12078175
  PAW double counting   =      1193.78262552    -1080.73714043
  entropy T*S    EENTRO =        -0.00000000
  eigenvalues    EBANDS =      -134.60235435
  atomic energy  EATOM  =      1448.48460880
  Solvation  Ediel_sol  =         0.00000000
  ---------------------------------------------------
  free energy    TOTEN  =       -23.96127165 eV

  energy without entropy =      -23.96127165  energy(sigma->0) =      -23.96127165


--------------------------------------------------------------------------------------------------------




--------------------------------------- Iteration      1(   3)  ---------------------------------------


     EDDAV:  cpu time      0.3138: real time      0.3174
       DOS:  cpu time      0.0005: real time      0.0005
    --------------------------------------------
      LOOP:  cpu time      0.3143: real time      0.3179

 eigenvalue-minimisations  :  3232
 total energy-change (2. order) :-0.9893381E+01  (-0.9868844E+01)
 number of electron      40.0000000 magnetization 
 augmentation part       40.0000000 magnetization 

 Free energy of the ion-electron system (eV)
  ---------------------------------------------------
  alpha Z        PSCENC =        74.54618523
  Ewald energy   TEWEN  =     -1326.55121331
  -Hartree energ DENC   =      -163.76320135
  -exchange      EXHF   =         0.00000000
  -V(xc)+E(xc)   XCENC  =       -35.12078175
  PAW double counting   =      1193.78262552    -1080.73714043
  entropy T*S    EENTRO =        -0.00000000
  eigenvalues    EBANDS =      -144.49573581
  atomic energy  EATOM  =      1448.48460880
  Solvation  Ediel_sol  =         0.00000000
  ---------------------------------------------------
  free energy    TOTEN  =       -33.85465310 eV

  energy without entropy =      -33.85465310  energy(sigma->0) =      -33.85465310


--------------------------------------------------------------------------------------------------------




--------------------------------------- Iteration      1(   4)  ---------------------------------------


     EDDAV:  cpu time      0.2989: real time      0.3024
       DOS:  cpu time      0.0006: real time      0.0006
    --------------------------------------------
      LOOP:  cpu time      0.2995: real time      0.3030

 eigenvalue-minimisations  :  3104
 total energy-change (2. order) :-0.7780043E-01  (-0.7779469E-01)
 number of electron      40.0000000 magnetization 
 augmentation part       40.0000000 magnetization 

 Free energy of the ion-electron system (eV)
  ---------------------------------------------------
  alpha Z        PSCENC =        74.54618523
  Ewald energy   TEWEN  =     -1326.55121331
  -Hartree energ DENC   =      -163.76320135
  -exchange      EXHF   =         0.00000000
  -V(xc)+E(xc)   XCENC  =       -35.12078175
  PAW double counting   =      1193.78262552    -1080.73714043
  entropy T*S    EENTRO =        -0.00000000
  eigenvalues    EBANDS =      -144.57353624
  atomic energy  EATOM  =      1448.48460880
  Solvation  Ediel_sol  =         0.00000000
  ---------------------------------------------------
  free energy    TOTEN  =       -33.93245353 eV

  energy without entropy =      -33.93245353  energy(sigma->0) =      -33.93245353


--------------------------------------------------------------------------------------------------------




--------------------------------------- Iteration      1(   5)  ---------------------------------------


     EDDAV:  cpu time      0.3150: real time      0.3189
       DOS:  cpu time      0.0006: real time      0.0006
    CHARGE:  cpu time      0.0049: real time      0.0049
    MIXING:  cpu time      0.0008: real time      0.0008
    --------------------------------------------
      LOOP:  cpu time      0.3213: real time      0.3252

 eigenvalue-minimisations  :  3280
 total energy-change (2. order) :-0.5297737E-03  (-0.5297720E-03)
 number of electron      39.9999994 magnetization 
 augmentation part       -7.4154775 magnetization 

 Broyden mixing:
  rms(total) = 0.60690E+00    rms(broyden)= 0.60689E+00
  rms(prec ) = 0.73092E+00
  weight for this iteration     100.00

 Free energy of the ion-electron system (eV)
  ---------------------------------------------------
  alpha Z        PSCENC =        74.54618523
  Ewald energy   TEWEN  =     -1326.55121331
  -Hartree energ DENC   =      -163.76320135
  -exchange      EXHF   =         0.00000000
  -V(xc)+E(xc)   XCENC  =       -35.12078175
  PAW double counting   =      1193.78262552    -1080.73714043
  entropy T*S    EENTRO =        -0.00000000
  eigenvalues    EBANDS =      -144.57406601
  atomic energy  EATOM  =      1448.48460880
  Solvation  Ediel_sol  =         0.00000000
  ---------------------------------------------------
  free energy    TOTEN  =       -33.93298331 eV

  energy without entropy =      -33.93298331  energy(sigma->0) =      -33.93298331


--------------------------------------------------------------------------------------------------------




--------------------------------------- Iteration      1(   6)  ---------------------------------------


    POTLOK:  cpu time      0.0058: real time      0.0060
    SETDIJ:  cpu time      0.1392: real time      0.1400
     EDDAV:  cpu time      0.3105: real time      0.3137
       DOS:  cpu time      0.0006: real time      0.0006
    CHARGE:  cpu time      0.0060: real time      0.0060
    MIXING:  cpu time      0.0012: real time      0.0012
    --------------------------------------------
      LOOP:  cpu time      0.4633: real time      0.4675

 eigenvalue-minimisations  :  2880
 total energy-change (2. order) : 0.5791823E+00  (-0.1328195E+00)
 number of electron      39.9999994 magnetization 
 augmentation part       -7.3386741 magnetization 

 Broyden mixing:
  rms(total) = 0.37450E+00    rms(broyden)= 0.37450E+00
  rms(prec ) = 0.40094E+00
  weight for this iteration     100.00

 eigenvalues of (default mixing * dielectric matrix)
  average eigenvalue GAMMA=   1.8456
  1.8456

 Free energy of the ion-electron system (eV)
  ---------------------------------------------------
  alpha Z        PSCENC =        74.54618523
  Ewald energy   TEWEN  =     -1326.55121331
  -Hartree energ DENC   =      -171.29626979
  -exchange      EXHF   =         0.00000000
  -V(xc)+E(xc)   XCENC  =       -34.43486020
  PAW double counting   =      1422.34194502    -1309.58031310
  entropy T*S    EENTRO =        -0.00000000
  eigenvalues    EBANDS =      -136.86388367
  atomic energy  EATOM  =      1448.48460880
  Solvation  Ediel_sol  =         0.00000000
  ---------------------------------------------------
  free energy    TOTEN  =       -33.35380102 eV

  energy without entropy =      -33.35380102  energy(sigma->0) =      -33.35380102


--------------------------------------------------------------------------------------------------------




--------------------------------------- Iteration      1(   7)  ---------------------------------------


    POTLOK:  cpu time      0.0057: real time      0.0059
    SETDIJ:  cpu time      0.1375: real time      0.1382
     EDDAV:  cpu time      0.2918: real time      0.2953
       DOS:  cpu time      0.0006: real time      0.0006
    CHARGE:  cpu time      0.0046: real time      0.0046
    MIXING:  cpu time      0.0005: real time      0.0005
    --------------------------------------------
      LOOP:  cpu time      0.4408: real time      0.4453

 eigenvalue-minimisations  :  2976
 total energy-change (2. order) : 0.8453483E-02  (-0.2738202E-01)
 number of electron      39.9999993 magnetization 
 augmentation part       -7.3327190 magnetization 

 Broyden mixing:
  rms(total) = 0.16281E+00    rms(broyden)= 0.16281E+00
  rms(prec ) = 0.17417E+00
  weight for this iteration     100.00

 eigenvalues of (default mixing * dielectric matrix)
  average eigenvalue GAMMA=   1.7697
  1.1554  2.3839

 Free energy of the ion-electron system (eV)
  ---------------------------------------------------
  alpha Z        PSCENC =        74.54618523
  Ewald energy   TEWEN  =     -1326.55121331
  -Hartree energ DENC   =      -173.48676902
  -exchange      EXHF   =         0.00000000
  -V(xc)+E(xc)   XCENC  =       -34.04751084
  PAW double counting   =      1651.53461330    -1538.91145956
  entropy T*S    EENTRO =        -0.00000000
  eigenvalues    EBANDS =      -134.91380213
  atomic energy  EATOM  =      1448.48460880
  Solvation  Ediel_sol  =         0.00000000
  ---------------------------------------------------
  free energy    TOTEN  =       -33.34534753 eV

  energy without entropy =      -33.34534753  energy(sigma->0) =      -33.34534753


--------------------------------------------------------------------------------------------------------




--------------------------------------- Iteration      1(   8)  ---------------------------------------


    POTLOK:  cpu time      0.0056: real time      0.0058
    SETDIJ:  cpu time      0.1373: real time      0.1380
     EDDAV:  cpu time      0.2829: real time      0.2859
       DOS:  cpu time      0.0006: real time      0.0006
    CHARGE:  cpu time      0.0045: real time      0.0045
    MIXING:  cpu time      0.0006: real time      0.0006
    --------------------------------------------
      LOOP:  cpu time      0.4313: real time      0.4354

 eigenvalue-minimisations  :  2864
 total energy-change (2. order) :-0.1166730E-03  (-0.2806050E-02)
 number of electron      39.9999993 magnetization 
 augmentation part       -7.3438378 magnetization 

 Broyden mixing:
  rms(total) = 0.18356E-01    rms(broyden)= 0.18355E-01
  rms(prec ) = 0.25218E-01
  weight for this iteration     100.00

 eigenvalues of (default mixing * dielectric matrix)
  average eigenvalue GAMMA=   1.5999
  2.4252  1.1873  1.1873

 Free energy of the ion-electron system (eV)
  ---------------------------------------------------
  alpha Z        PSCENC =        74.54618523
  Ewald energy   TEWEN  =     -1326.55121331
  -Hartree energ DENC   =      -173.93231855
  -exchange      EXHF   =         0.00000000
  -V(xc)+E(xc)   XCENC  =       -33.84184433
  PAW double counting   =      1814.59686865    -1702.03103532
  entropy T*S    EENTRO =        -0.00000000
  eigenvalues    EBANDS =      -134.61671537
  atomic energy  EATOM  =      1448.48460880
  Solvation  Ediel_sol  =         0.00000000
  ---------------------------------------------------
  free energy    TOTEN  =       -33.34546421 eV

  energy without entropy =      -33.34546421  energy(sigma->0) =      -33.34546421


--------------------------------------------------------------------------------------------------------




--------------------------------------- Iteration      1(   9)  ---------------------------------------


    POTLOK:  cpu time      0.0056: real time      0.0058
    SETDIJ:  cpu time      0.1374: real time      0.1382
     EDDAV:  cpu time      0.2991: real time      0.3023
       DOS:  cpu time      0.0005: real time      0.0005
    CHARGE:  cpu time      0.0043: real time      0.0044
    MIXING:  cpu time      0.0005: real time      0.0005
    --------------------------------------------
      LOOP:  cpu time      0.4474: real time      0.4517

 eigenvalue-minimisations  :  3120
 total energy-change (2. order) : 0.6333524E-04  (-0.5438294E-03)
 number of electron      39.9999993 magnetization 
 augmentation part       -7.3399534 magnetization 

 Broyden mixing:
  rms(total) = 0.76444E-02    rms(broyden)= 0.76444E-02
  rms(prec ) = 0.92231E-02
  weight for this iteration     100.00

 eigenvalues of (default mixing * dielectric matrix)
  average eigenvalue GAMMA=   1.7343
  2.3468  2.3468  1.1219  1.1219

 Free energy of the ion-electron system (eV)
  ---------------------------------------------------
  alpha Z        PSCENC =        74.54618523
  Ewald energy   TEWEN  =     -1326.55121331
  -Hartree energ DENC   =      -174.44147046
  -exchange      EXHF   =         0.00000000
  -V(xc)+E(xc)   XCENC  =       -33.79994254
  PAW double counting   =      1822.01844034    -1709.46011381
  entropy T*S    EENTRO =        -0.00000000
  eigenvalues    EBANDS =      -134.14189512
  atomic energy  EATOM  =      1448.48460880
  Solvation  Ediel_sol  =         0.00000000
  ---------------------------------------------------
  free energy    TOTEN  =       -33.34540087 eV

  energy without entropy =      -33.34540087  energy(sigma->0) =      -33.34540087


--------------------------------------------------------------------------------------------------------




--------------------------------------- Iteration      1(  10)  ---------------------------------------


    POTLOK:  cpu time      0.0043: real time      0.0045
    SETDIJ:  cpu time      0.1380: real time      0.1386
     EDDAV:  cpu time      0.1914: real time      0.1924
       DOS:  cpu time      0.0003: real time      0.0003
    CHARGE:  cpu time      0.0035: real time      0.0035
    MIXING:  cpu time      0.0003: real time      0.0003
    --------------------------------------------
      LOOP:  cpu time      0.3378: real time      0.3397

 eigenvalue-minimisations  :  2832
 total energy-change (2. order) :-0.2314494E-03  (-0.6471863E-04)
 number of electron      39.9999993 magnetization 
 augmentation part       -7.3395421 magnetization 

 Broyden mixing:
  rms(total) = 0.25785E-02    rms(broyden)= 0.25784E-02
  rms(prec ) = 0.31866E-02
  weight for this iteration     100.00

 eigenvalues of (default mixing * dielectric matrix)
  average eigenvalue GAMMA=   1.7184
  2.7207  2.6108  1.1469  1.1469  0.9666

 Free energy of the ion-electron system (eV)
  ---------------------------------------------------
  alpha Z        PSCENC =        74.54618523
  Ewald energy   TEWEN  =     -1326.55121331
  -Hartree energ DENC   =      -174.53964745
  -exchange      EXHF   =         0.00000000
  -V(xc)+E(xc)   XCENC  =       -33.79037733
  PAW double counting   =      1817.37582383    -1704.81357757
  entropy T*S    EENTRO =        -0.00000000
  eigenvalues    EBANDS =      -134.05743453
  atomic energy  EATOM  =      1448.48460880
  Solvation  Ediel_sol  =         0.00000000
  ---------------------------------------------------
  free energy    TOTEN  =       -33.34563232 eV

  energy without entropy =      -33.34563232  energy(sigma->0) =      -33.34563232


--------------------------------------------------------------------------------------------------------




--------------------------------------- Iteration      1(  11)  ---------------------------------------


    POTLOK:  cpu time      0.0038: real time      0.0040
    SETDIJ:  cpu time      0.1370: real time      0.1374
     EDDAV:  cpu time      0.1956: real time      0.1967
       DOS:  cpu time      0.0003: real time      0.0003
    CHARGE:  cpu time      0.0037: real time      0.0037
    MIXING:  cpu time      0.0003: real time      0.0003
    --------------------------------------------
      LOOP:  cpu time      0.3408: real time      0.3424

 eigenvalue-minimisations  :  3008
 total energy-change (2. order) :-0.3548155E-04  (-0.5675523E-05)
 number of electron      39.9999993 magnetization 
 augmentation part       -7.3398690 magnetization 

 Broyden mixing:
  rms(total) = 0.14943E-02    rms(broyden)= 0.14943E-02
  rms(prec ) = 0.18024E-02
  weight for this iteration     100.00

 eigenvalues of (default mixing * dielectric matrix)
  average eigenvalue GAMMA=   1.7420
  2.6964  2.6964  1.7851  1.0994  1.0994  1.0754

 Free energy of the ion-electron system (eV)
  ---------------------------------------------------
  alpha Z        PSCENC =        74.54618523
  Ewald energy   TEWEN  =     -1326.55121331
  -Hartree energ DENC   =      -174.56271919
  -exchange      EXHF   =         0.00000000
  -V(xc)+E(xc)   XCENC  =       -33.78548876
  PAW double counting   =      1817.41061039    -1704.84779591
  entropy T*S    EENTRO =        -0.00000000
  eigenvalues    EBANDS =      -134.03985504
  atomic energy  EATOM  =      1448.48460880
  Solvation  Ediel_sol  =         0.00000000
  ---------------------------------------------------
  free energy    TOTEN  =       -33.34566780 eV

  energy without entropy =      -33.34566780  energy(sigma->0) =      -33.34566780


--------------------------------------------------------------------------------------------------------




--------------------------------------- Iteration      1(  12)  ---------------------------------------


    POTLOK:  cpu time      0.0043: real time      0.0045
    SETDIJ:  cpu time      0.1085: real time      0.1088
     EDDAV:  cpu time      0.1909: real time      0.1920
       DOS:  cpu time      0.0003: real time      0.0003
    CHARGE:  cpu time      0.0033: real time      0.0033
    MIXING:  cpu time      0.0003: real time      0.0003
    --------------------------------------------
      LOOP:  cpu time      0.3077: real time      0.3092

 eigenvalue-minimisations  :  3024
 total energy-change (2. order) :-0.1705467E-05  (-0.1466369E-05)
 number of electron      39.9999993 magnetization 
 augmentation part       -7.3398446 magnetization 

 Broyden mixing:
  rms(total) = 0.32826E-03    rms(broyden)= 0.32826E-03
  rms(prec ) = 0.36586E-03
  weight for this iteration     100.00

 eigenvalues of (default mixing * dielectric matrix)
  average eigenvalue GAMMA=   1.6644
  2.9137  2.3916  1.9319  0.9926  1.2205  1.1003  1.1003

 Free energy of the ion-electron system (eV)
  ---------------------------------------------------
  alpha Z        PSCENC =        74.54618523
  Ewald energy   TEWEN  =     -1326.55121331
  -Hartree energ DENC   =      -174.58106976
  -exchange      EXHF   =         0.00000000
  -V(xc)+E(xc)   XCENC  =       -33.78318634
  PAW double counting   =      1816.74650705    -1704.18338656
  entropy T*S    EENTRO =        -0.00000000
  eigenvalues    EBANDS =      -134.02411462
  atomic energy  EATOM  =      1448.48460880
  Solvation  Ediel_sol  =         0.00000000
  ---------------------------------------------------
  free energy    TOTEN  =       -33.34566951 eV

  energy without entropy =      -33.34566951  energy(sigma->0) =      -33.34566951


--------------------------------------------------------------------------------------------------------




--------------------------------------- Iteration      1(  13)  ---------------------------------------


    POTLOK:  cpu time      0.0036: real time      0.0037
    SETDIJ:  cpu time      0.1097: real time      0.1102
     EDDAV:  cpu time      0.1654: real time      0.1662
       DOS:  cpu time      0.0003: real time      0.0003
    --------------------------------------------
      LOOP:  cpu time      0.2791: real time      0.2805

 eigenvalue-minimisations  :  2192
 total energy-change (2. order) :-0.8668599E-06  (-0.1657041E-06)
 number of electron      39.9999993 magnetization 
 augmentation part       -7.3398446 magnetization 

 Free energy of the ion-electron system (eV)
  ---------------------------------------------------
  alpha Z        PSCENC =        74.54618523
  Ewald energy   TEWEN  =     -1326.55121331
  -Hartree energ DENC   =      -174.58393450
  -exchange      EXHF   =         0.00000000
  -V(xc)+E(xc)   XCENC  =       -33.78271343
  PAW double counting   =      1817.04747185    -1704.48442233
  entropy T*S    EENTRO =        -0.00000000
  eigenvalues    EBANDS =      -134.02165268
  atomic energy  EATOM  =      1448.48460880
  Solvation  Ediel_sol  =         0.00000000
  ---------------------------------------------------
  free energy    TOTEN  =       -33.34567038 eV

  energy without entropy =      -33.34567038  energy(sigma->0) =      -33.34567038


--------------------------------------------------------------------------------------------------------




 average (electrostatic) potential at core
  the test charge radii are     1.1631  1.0808
  (the norm of the test charge is              1.0000)
       1 -34.8115       2 -34.8115       3 -34.8115       4 -34.8115       5 -56.0523
       6 -56.0523       7 -56.0523       8 -56.0523
 
 
 
 E-fermi :   1.9083     XC(G=0):  -8.5622     alpha+bet : -7.4265

 Fermi energy:         1.9082537453

 k-point     1 :       0.0000    0.0000    0.0000
  band No.  band energies     occupation 
      1     -11.5621      2.00000
      2     -11.3472      2.00000
      3     -10.4154      2.00000
      4     -10.1404      2.00000
      5      -6.0195      2.00000
      6      -5.5720      2.00000
      7      -3.9600      2.00000
      8      -3.7520      2.00000
      9      -2.3083      2.00000
     10      -1.3089      2.00000
     11      -1.0676      2.00000
     12      -1.0024      2.00000
     13      -0.9632      2.00000
     14      -0.5415      2.00000
     15      -0.0364      2.00000
     16       0.4199      2.00000
     17       0.9076      2.00000
     18       1.3863      2.00000
     19       1.6066      2.00000
     20       1.6293      2.00000
     21       3.5119      0.00000
     22       3.6442      0.00000
     23       3.7953      0.00000
     24       4.0931      0.00000
     25       4.2690      0.00000
     26       4.7663      0.00000
     27       5.0758      0.00000
     28       5.2709      0.00000
     29       6.3816      0.00000
     30       6.5570      0.00000
     31       7.1740      0.00000
     32       7.4340      0.00000

 k-point     2 :       0.1667    0.0000    0.0000
  band No.  band energies     occupation 
      1     -11.4265      2.00000
      2     -11.2242      2.00000
      3     -10.3734      2.00000
      4     -10.1429      2.00000
      5      -6.1341      2.00000
      6      -5.7198      2.00000
      7      -4.2720      2.00000
      8      -4.2630      2.00000
      9      -2.1519      2.00000
     10      -1.4242      2.00000
     11      -1.1848      2.00000
     12      -0.9524      2.00000
     13      -0.7603      2.00000
     14      -0.4177      2.00000
     15       0.1212      2.00000
     16       0.1223      2.00000
     17       0.9282      2.00000
     18       1.3333      2.00000
     19       1.5260      2.00000
     20       1.5832      2.00000
     21       3.7120      0.00000
     22       3.9395      0.00000
     23       4.1152      0.00000
     24       4.3253      0.00000
     25       4.4584      0.00000
     26       4.5972      0.00000
     27       4.7730      0.00000
     28       5.2037      0.00000
     29       5.6381      0.00000
     30       6.4500      0.00000
     31       6.5936      0.00000
     32       7.2747      0.00000

 k-point     3 :       0.3333    0.0000    0.0000
  band No.  band energies     occupation 
      1     -11.0582      2.00000
      2     -10.9010      2.00000
      3     -10.3476      2.00000
      4     -10.2481      2.00000
      5      -6.2906      2.00000
      6      -5.9052      2.00000
      7      -5.2710      2.00000
      8      -4.9934      2.00000
      9      -1.7299      2.00000
     10      -1.3719      2.00000
     11      -1.1653      2.00000
     12      -0.7175      2.00000
     13      -0.2941      2.00000
     14      -0.2515      2.00000
     15      -0.0520      2.00000
     16       0.3551      2.00000
     17       0.7120      2.00000
     18       1.0107      2.00000
     19       1.1197      2.00000
     20       1.1658      2.00000
     21       3.2310      0.00000
     22       3.6321      0.00000
     23       3.9174      0.00000
     24       4.3660      0.00000
     25       4.4299      0.00000
     26       4.7179      0.00000
     27       4.8277      0.00000
     28       5.3048      0.00000
     29       5.6668      0.00000
     30       5.9832      0.00000
     31       6.3575      0.00000
     32       6.8826      0.00000

 k-point     4 :       0.5000    0.0000    0.0000
  band No.  band energies     occupation 
      1     -10.5904      2.00000
      2     -10.5904      2.00000
      3     -10.5333      2.00000
      4     -10.5333      2.00000
      5      -6.0522      2.00000
      6      -6.0522      2.00000
      7      -5.6733      2.00000
      8      -5.6733      2.00000
      9      -1.3108      2.00000
     10      -1.3108      2.00000
     11      -0.8079      2.00000
     12      -0.8079      2.00000
     13      -0.1782      2.00000
     14      -0.1782      2.00000
     15       0.2385      2.00000
     16       0.2385      2.00000
     17       0.6081      2.00000
     18       0.6081      2.00000
     19       0.8671      2.00000
     20       0.8671      2.00000
     21       3.2074      0.00000
     22       3.2074      0.00000
     23       3.9475      0.00000
     24       3.9475      0.00000
     25       4.5609      0.00000
     26       4.5609      0.00000
     27       4.8012      0.00000
     28       4.8012      0.00000
     29       5.9779      0.00000
     30       5.9779      0.00000
     31       6.2597      0.00000
     32       6.2597      0.00000

 k-point     5 :       0.0000    0.1667    0.0000
  band No.  band energies     occupation 
      1     -11.4758      2.00000
      2     -11.2675      2.00000
      3     -10.4653      2.00000
      4     -10.2171      2.00000
      5      -6.0790      2.00000
      6      -5.5202      2.00000
      7      -4.3771      2.00000
      8      -3.9893      2.00000
      9      -2.1173      2.00000
     10      -1.1940      2.00000
     11      -0.9011      2.00000
     12      -0.8230      2.00000
     13      -0.6766      2.00000
     14      -0.3417      2.00000
     15      -0.0455      2.00000
     16       0.3460      2.00000
     17       1.0128      2.00000
     18       1.0160      2.00000
     19       1.5484      2.00000
     20       1.6724      2.00000
     21       3.2475      0.00000
     22       3.5542      0.00000
     23       3.8298      0.00000
     24       3.8909      0.00000
     25       4.2682      0.00000
     26       4.5161      0.00000
     27       5.1153      0.00000
     28       5.4430      0.00000
     29       5.8914      0.00000
     30       6.5792      0.00000
     31       6.7565      0.00000
     32       7.1705      0.00000

 k-point     6 :       0.1667    0.1667    0.0000
  band No.  band energies     occupation 
      1     -11.3454      2.00000
      2     -11.1500      2.00000
      3     -10.4189      2.00000
      4     -10.2082      2.00000
      5      -6.1482      2.00000
      6      -5.6419      2.00000
      7      -4.5807      2.00000
      8      -4.3770      2.00000
      9      -2.0009      2.00000
     10      -1.6942      2.00000
     11      -1.3702      2.00000
     12      -0.8588      2.00000
     13      -0.2396      2.00000
     14      -0.1501      2.00000
     15      -0.0468      2.00000
     16       0.0621      2.00000
     17       0.9863      2.00000
     18       1.0444      2.00000
     19       1.4707      2.00000
     20       1.5645      2.00000
     21       3.6965      0.00000
     22       3.7162      0.00000
     23       4.0290      0.00000
     24       4.0959      0.00000
     25       4.4809      0.00000
     26       4.5763      0.00000
     27       5.1301      0.00000
     28       5.3781      0.00000
     29       5.7624      0.00000
     30       6.3458      0.00000
     31       6.3723      0.00000
     32       7.1592      0.00000

 k-point     7 :       0.1667   -0.1667    0.0000
  band No.  band energies     occupation 
      1     -11.3454      2.00000
      2     -11.1500      2.00000
      3     -10.4189      2.00000
      4     -10.2082      2.00000
      5      -6.1482      2.00000
      6      -5.6419      2.00000
      7      -4.5807      2.00000
      8      -4.3770      2.00000
      9      -2.0009      2.00000
     10      -1.6942      2.00000
     11      -1.3702      2.00000
     12      -0.8588      2.00000
     13      -0.2396      2.00000
     14      -0.1501      2.00000
     15      -0.0468      2.00000
     16       0.0621      2.00000
     17       0.9863      2.00000
     18       1.0444      2.00000
     19       1.4707      2.00000
     20       1.5645      2.00000
     21       3.6965      0.00000
     22       3.7162      0.00000
     23       4.0290      0.00000
     24       4.0959      0.00000
     25       4.4809      0.00000
     26       4.5763      0.00000
     27       5.1301      0.00000
     28       5.3781      0.00000
     29       5.7624      0.00000
     30       6.3458      0.00000
     31       6.3723      0.00000
     32       7.1592      0.00000

 k-point     8 :       0.3333    0.1667    0.0000
  band No.  band energies     occupation 
      1     -10.9953      2.00000
      2     -10.8462      2.00000
      3     -10.3723      2.00000
      4     -10.2753      2.00000
      5      -6.2359      2.00000
      6      -5.8331      2.00000
      7      -5.2873      2.00000
      8      -5.0933      2.00000
      9      -1.8173      2.00000
     10      -1.6564      2.00000
     11      -1.4962      2.00000
     12      -0.9361      2.00000
     13      -0.3714      2.00000
     14      -0.1500      2.00000
     15      -0.0833      2.00000
     16       0.1278      2.00000
     17       0.4874      2.00000
     18       1.0409      2.00000
     19       1.1675      2.00000
     20       1.2270      2.00000
     21       3.2769      0.00000
     22       3.8104      0.00000
     23       4.0272      0.00000
     24       4.3785      0.00000
     25       4.9709      0.00000
     26       5.1056      0.00000
     27       5.1665      0.00000
     28       5.6647      0.00000
     29       5.8490      0.00000
     30       6.1672      0.00000
     31       6.5988      0.00000
     32       6.7617      0.00000

 k-point     9 :       0.3333   -0.1667    0.0000
  band No.  band energies     occupation 
      1     -10.9953      2.00000
      2     -10.8462      2.00000
      3     -10.3723      2.00000
      4     -10.2753      2.00000
      5      -6.2359      2.00000
      6      -5.8331      2.00000
      7      -5.2873      2.00000
      8      -5.0933      2.00000
      9      -1.8173      2.00000
     10      -1.6564      2.00000
     11      -1.4962      2.00000
     12      -0.9361      2.00000
     13      -0.3714      2.00000
     14      -0.1500      2.00000
     15      -0.0833      2.00000
     16       0.1278      2.00000
     17       0.4874      2.00000
     18       1.0409      2.00000
     19       1.1675      2.00000
     20       1.2270      2.00000
     21       3.2769      0.00000
     22       3.8104      0.00000
     23       4.0272      0.00000
     24       4.3785      0.00000
     25       4.9709      0.00000
     26       5.1056      0.00000
     27       5.1665      0.00000
     28       5.6647      0.00000
     29       5.8490      0.00000
     30       6.1672      0.00000
     31       6.5988      0.00000
     32       6.7617      0.00000

 k-point    10 :       0.5000    0.1667    0.0000
  band No.  band energies     occupation 
      1     -10.5655      2.00000
      2     -10.5655      2.00000
      3     -10.5158      2.00000
      4     -10.5158      2.00000
      5      -5.9955      2.00000
      6      -5.9955      2.00000
      7      -5.6731      2.00000
      8      -5.6731      2.00000
      9      -1.5063      2.00000
     10      -1.5063      2.00000
     11      -1.0634      2.00000
     12      -1.0634      2.00000
     13      -0.6150      2.00000
     14      -0.6150      2.00000
     15      -0.1276      2.00000
     16      -0.1276      2.00000
     17       0.6908      2.00000
     18       0.6908      2.00000
     19       1.1936      2.00000
     20       1.1936      2.00000
     21       3.2115      0.00000
     22       3.2115      0.00000
     23       4.3422      0.00000
     24       4.3422      0.00000
     25       5.1445      0.00000
     26       5.1445      0.00000
     27       5.5096      0.00000
     28       5.5096      0.00000
     29       6.0860      0.00000
     30       6.0860      0.00000
     31       6.2394      0.00000
     32       6.2394      0.00000

 k-point    11 :       0.0000    0.3333    0.0000
  band No.  band energies     occupation 
      1     -11.2386      2.00000
      2     -11.0477      2.00000
      3     -10.6337      2.00000
      4     -10.4367      2.00000
      5      -6.0593      2.00000
      6      -5.3609      2.00000
      7      -5.1252      2.00000
      8      -4.5123      2.00000
      9      -1.6456      2.00000
     10      -0.8755      2.00000
     11      -0.6263      2.00000
     12      -0.5623      2.00000
     13      -0.1436      2.00000
     14       0.0309      2.00000
     15       0.0678      2.00000
     16       0.0998      2.00000
     17       0.5082      2.00000
     18       1.0986      2.00000
     19       1.2694      2.00000
     20       1.5802      2.00000
     21       2.7113      0.00000
     22       3.3637      0.00000
     23       3.4528      0.00000
     24       4.1908      0.00000
     25       4.2226      0.00000
     26       4.2412      0.00000
     27       4.9708      0.00000
     28       5.0168      0.00000
     29       5.8861      0.00000
     30       5.9293      0.00000
     31       6.2836      0.00000
     32       7.3019      0.00000

 k-point    12 :       0.1667    0.3333    0.0000
  band No.  band energies     occupation 
      1     -11.1240      2.00000
      2     -10.9470      2.00000
      3     -10.5712      2.00000
      4     -10.3981      2.00000
      5      -6.0662      2.00000
      6      -5.4403      2.00000
      7      -5.1854      2.00000
      8      -4.7194      2.00000
      9      -1.7751      2.00000
     10      -1.5946      2.00000
     11      -1.3819      2.00000
     12      -0.9606      2.00000
     13      -0.5992      2.00000
     14      -0.1377      2.00000
     15       0.1522      2.00000
     16       0.4580      2.00000
     17       0.9288      2.00000
     18       0.9393      2.00000
     19       1.3023      2.00000
     20       1.5254      2.00000
     21       3.3365      0.00000
     22       3.7337      0.00000
     23       3.7881      0.00000
     24       3.7951      0.00000
     25       4.6045      0.00000
     26       4.9725      0.00000
     27       5.1232      0.00000
     28       5.5731      0.00000
     29       5.9220      0.00000
     30       6.2155      0.00000
     31       6.2698      0.00000
     32       7.0804      0.00000

 k-point    13 :       0.1667   -0.3333    0.0000
  band No.  band energies     occupation 
      1     -11.1240      2.00000
      2     -10.9470      2.00000
      3     -10.5712      2.00000
      4     -10.3981      2.00000
      5      -6.0662      2.00000
      6      -5.4403      2.00000
      7      -5.1854      2.00000
      8      -4.7194      2.00000
      9      -1.7751      2.00000
     10      -1.5946      2.00000
     11      -1.3819      2.00000
     12      -0.9606      2.00000
     13      -0.5992      2.00000
     14      -0.1377      2.00000
     15       0.1522      2.00000
     16       0.4580      2.00000
     17       0.9288      2.00000
     18       0.9393      2.00000
     19       1.3023      2.00000
     20       1.5254      2.00000
     21       3.3365      0.00000
     22       3.7337      0.00000
     23       3.7881      0.00000
     24       3.7951      0.00000
     25       4.6045      0.00000
     26       4.9725      0.00000
     27       5.1232      0.00000
     28       5.5731      0.00000
     29       5.9220      0.00000
     30       6.2155      0.00000
     31       6.2698      0.00000
     32       7.0804      0.00000

 k-point    14 :       0.3333    0.3333    0.0000
  band No.  band energies     occupation 
      1     -10.8295      2.00000
      2     -10.7019      2.00000
      3     -10.4603      2.00000
      4     -10.3663      2.00000
      5      -6.0672      2.00000
      6      -5.6498      2.00000
      7      -5.4491      2.00000
      8      -5.2760      2.00000
      9      -2.2124      2.00000
     10      -1.7450      2.00000
     11      -1.6588      2.00000
     12      -1.3667      2.00000
     13      -0.8936      2.00000
     14      -0.4829      2.00000
     15      -0.4614      2.00000
     16       0.1611      2.00000
     17       0.2977      2.00000
     18       0.9509      2.00000
     19       1.2770      2.00000
     20       1.2780      2.00000
     21       3.2869      0.00000
     22       4.3916      0.00000
     23       4.7417      0.00000
     24       5.2314      0.00000
     25       5.4340      0.00000
     26       5.4744      0.00000
     27       5.6312      0.00000
     28       5.9366      0.00000
     29       6.1946      0.00000
     30       6.5605      0.00000
     31       6.6775      0.00000
     32       7.1347      0.00000

 k-point    15 :       0.3333   -0.3333    0.0000
  band No.  band energies     occupation 
      1     -10.8295      2.00000
      2     -10.7019      2.00000
      3     -10.4603      2.00000
      4     -10.3663      2.00000
      5      -6.0672      2.00000
      6      -5.6498      2.00000
      7      -5.4491      2.00000
      8      -5.2760      2.00000
      9      -2.2124      2.00000
     10      -1.7450      2.00000
     11      -1.6588      2.00000
     12      -1.3667      2.00000
     13      -0.8936      2.00000
     14      -0.4829      2.00000
     15      -0.4614      2.00000
     16       0.1611      2.00000
     17       0.2977      2.00000
     18       0.9509      2.00000
     19       1.2770      2.00000
     20       1.2780      2.00000
     21       3.2869      0.00000
     22       4.3916      0.00000
     23       4.7417      0.00000
     24       5.2314      0.00000
     25       5.4340      0.00000
     26       5.4744      0.00000
     27       5.6312      0.00000
     28       5.9366      0.00000
     29       6.1946      0.00000
     30       6.5605      0.00000
     31       6.6775      0.00000
     32       7.1347      0.00000

 k-point    16 :       0.5000    0.3333    0.0000
  band No.  band energies     occupation 
      1     -10.5121      2.00000
      2     -10.5121      2.00000
      3     -10.4824      2.00000
      4     -10.4824      2.00000
      5      -5.8665      2.00000
      6      -5.8665      2.00000
      7      -5.6875      2.00000
      8      -5.6875      2.00000
      9      -1.8778      2.00000
     10      -1.8778      2.00000
     11      -1.5433      2.00000
     12      -1.5433      2.00000
     13      -1.0066      2.00000
     14      -1.0066      2.00000
     15      -0.5332      2.00000
     16      -0.5332      2.00000
     17       0.5817      2.00000
     18       0.5817      2.00000
     19       1.1343      2.00000
     20       1.1343      2.00000
     21       4.0146      0.00000
     22       4.0146      0.00000
     23       5.2512      0.00000
     24       5.2512      0.00000
     25       5.6275      0.00000
     26       5.6275      0.00000
     27       6.1362      0.00000
     28       6.1362      0.00000
     29       6.4694      0.00000
     30       6.4694      0.00000
     31       7.1930      0.00000
     32       7.1930      0.00000

 k-point    17 :       0.0000    0.5000    0.0000
  band No.  band energies     occupation 
      1     -10.9202      2.00000
      2     -10.9202      2.00000
      3     -10.7434      2.00000
      4     -10.7434      2.00000
      5      -5.7440      2.00000
      6      -5.7440      2.00000
      7      -5.0222      2.00000
      8      -5.0222      2.00000
      9      -1.0014      2.00000
     10      -1.0014      2.00000
     11      -0.4533      2.00000
     12      -0.4533      2.00000
     13      -0.2631      2.00000
     14      -0.2631      2.00000
     15       0.5069      2.00000
     16       0.5069      2.00000
     17       0.6888      2.00000
     18       0.6888      2.00000
     19       1.1324      2.00000
     20       1.1324      2.00000
     21       2.8579      0.00000
     22       2.8579      0.00000
     23       3.7616      0.00000
     24       3.7616      0.00000
     25       4.3740      0.00000
     26       4.3740      0.00000
     27       4.9473      0.00000
     28       4.9473      0.00000
     29       5.2422      0.00000
     30       5.2422      0.00000
     31       7.0986      0.00000
     32       7.0986      0.00000

 k-point    18 :       0.1667    0.5000    0.0000
  band No.  band energies     occupation 
      1     -10.8310      2.00000
      2     -10.8310      2.00000
      3     -10.6704      2.00000
      4     -10.6704      2.00000
      5      -5.7419      2.00000
      6      -5.7419      2.00000
      7      -5.1196      2.00000
      8      -5.1196      2.00000
      9      -1.5193      2.00000
     10      -1.5193      2.00000
     11      -1.0694      2.00000
     12      -1.0694      2.00000
     13      -0.8171      2.00000
     14      -0.8171      2.00000
     15       0.4609      2.00000
     16       0.4609      2.00000
     17       1.0268      2.00000
     18       1.0268      2.00000
     19       1.3961      2.00000
     20       1.3961      2.00000
     21       3.3165      0.00000
     22       3.3165      0.00000
     23       3.7261      0.00000
     24       3.7261      0.00000
     25       5.0552      0.00000
     26       5.0552      0.00000
     27       5.3543      0.00000
     28       5.3543      0.00000
     29       5.8064      0.00000
     30       5.8064      0.00000
     31       6.8510      0.00000
     32       6.8510      0.00000

[...]
     32       6.6290      0.00000

 k-point    32 :       0.1667    0.3333    0.5000
  band No.  band energies     occupation 
      1     -11.0491      2.00000
      2     -11.0491      2.00000
      3     -10.4714      2.00000
      4     -10.4714      2.00000
      5      -5.8198      2.00000
      6      -5.8198      2.00000
      7      -4.9073      2.00000
      8      -4.9073      2.00000
      9      -1.6505      2.00000
     10      -1.6505      2.00000
     11      -1.0802      2.00000
     12      -1.0802      2.00000
     13      -0.4609      2.00000
     14      -0.4609      2.00000
     15       0.2985      2.00000
     16       0.2985      2.00000
     17       0.9184      2.00000
     18       0.9184      2.00000
     19       1.2966      2.00000
     20       1.2966      2.00000
     21       3.6375      0.00000
     22       3.6375      0.00000
     23       3.8919      0.00000
     24       3.8919      0.00000
     25       4.8906      0.00000
     26       4.8906      0.00000
     27       5.2903      0.00000
     28       5.2903      0.00000
     29       5.9750      0.00000
     30       5.9750      0.00000
     31       6.4824      0.00000
     32       6.4824      0.00000

 k-point    33 :       0.1667   -0.3333    0.5000
  band No.  band energies     occupation 
      1     -11.0491      2.00000
      2     -11.0491      2.00000
      3     -10.4714      2.00000
      4     -10.4714      2.00000
      5      -5.8198      2.00000
      6      -5.8198      2.00000
      7      -4.9073      2.00000
      8      -4.9073      2.00000
      9      -1.6505      2.00000
     10      -1.6505      2.00000
     11      -1.0802      2.00000
     12      -1.0802      2.00000
     13      -0.4609      2.00000
     14      -0.4609      2.00000
     15       0.2985      2.00000
     16       0.2985      2.00000
     17       0.9184      2.00000
     18       0.9184      2.00000
     19       1.2966      2.00000
     20       1.2966      2.00000
     21       3.6375      0.00000
     22       3.6375      0.00000
     23       3.8919      0.00000
     24       3.8919      0.00000
     25       4.8906      0.00000
     26       4.8906      0.00000
     27       5.2903      0.00000
     28       5.2903      0.00000
     29       5.9750      0.00000
     30       5.9750      0.00000
     31       6.4824      0.00000
     32       6.4824      0.00000

 k-point    34 :       0.3333    0.3333    0.5000
  band No.  band energies     occupation 
      1     -10.7745      2.00000
      2     -10.7745      2.00000
      3     -10.4047      2.00000
      4     -10.4047      2.00000
      5      -5.8910      2.00000
      6      -5.8910      2.00000
      7      -5.3384      2.00000
      8      -5.3384      2.00000
      9      -2.0193      2.00000
     10      -2.0193      2.00000
     11      -1.3657      2.00000
     12      -1.3657      2.00000
     13      -0.8578      2.00000
     14      -0.8578      2.00000
     15      -0.2285      2.00000
     16      -0.2285      2.00000
     17       0.7102      2.00000
     18       0.7102      2.00000
     19       1.3010      2.00000
     20       1.3010      2.00000
     21       4.1675      0.00000
     22       4.1675      0.00000
     23       4.8696      0.00000
     24       4.8696      0.00000
     25       5.1225      0.00000
     26       5.1225      0.00000
     27       5.7695      0.00000
     28       5.7695      0.00000
     29       6.1643      0.00000
     30       6.1643      0.00000
     31       6.9920      0.00000
     32       6.9920      0.00000

 k-point    35 :       0.3333   -0.3333    0.5000
  band No.  band energies     occupation 
      1     -10.7745      2.00000
      2     -10.7745      2.00000
      3     -10.4047      2.00000
      4     -10.4047      2.00000
      5      -5.8910      2.00000
      6      -5.8910      2.00000
      7      -5.3384      2.00000
      8      -5.3384      2.00000
      9      -2.0193      2.00000
     10      -2.0193      2.00000
     11      -1.3657      2.00000
     12      -1.3657      2.00000
     13      -0.8578      2.00000
     14      -0.8578      2.00000
     15      -0.2285      2.00000
     16      -0.2285      2.00000
     17       0.7102      2.00000
     18       0.7102      2.00000
     19       1.3010      2.00000
     20       1.3010      2.00000
     21       4.1675      0.00000
     22       4.1675      0.00000
     23       4.8696      0.00000
     24       4.8696      0.00000
     25       5.1225      0.00000
     26       5.1225      0.00000
     27       5.7695      0.00000
     28       5.7695      0.00000
     29       6.1643      0.00000
     30       6.1643      0.00000
     31       6.9920      0.00000
     32       6.9920      0.00000

 k-point    36 :       0.5000    0.3333    0.5000
  band No.  band energies     occupation 
      1     -10.4974      2.00000
      2     -10.4974      2.00000
      3     -10.4974      2.00000
      4     -10.4974      2.00000
      5      -5.7799      2.00000
      6      -5.7799      2.00000
      7      -5.7799      2.00000
      8      -5.7799      2.00000
      9      -1.6399      2.00000
     10      -1.6399      2.00000
     11      -1.6399      2.00000
     12      -1.6399      2.00000
     13      -0.9473      2.00000
     14      -0.9473      2.00000
     15      -0.9473      2.00000
     16      -0.9473      2.00000
     17       0.9951      2.00000
     18       0.9951      2.00000
     19       0.9951      2.00000
     20       0.9951      2.00000
     21       4.6281      0.00000
     22       4.6281      0.00000
     23       4.6281      0.00000
     24       4.6281      0.00000
     25       5.5655      0.00000
     26       5.5655      0.00000
     27       5.5655      0.00000
     28       5.5655      0.00000
     29       6.9169      0.00000
     30       6.9169      0.00000
     31       6.9169      0.00000
     32       6.9169      0.00000

 k-point    37 :       0.0000    0.5000    0.5000
  band No.  band energies     occupation 
      1     -10.9160      2.00000
      2     -10.9160      2.00000
      3     -10.7485      2.00000
      4     -10.7485      2.00000
      5      -5.6604      2.00000
      6      -5.6604      2.00000
      7      -5.1440      2.00000
      8      -5.1440      2.00000
      9      -0.4880      2.00000
     10      -0.4880      2.00000
     11      -0.4453      2.00000
     12      -0.4453      2.00000
     13      -0.2726      2.00000
     14      -0.2726      2.00000
     15      -0.1896      2.00000
     16      -0.1896      2.00000
     17       0.9469      2.00000
     18       0.9469      2.00000
     19       0.9583      2.00000
     20       0.9583      2.00000
     21       3.0089      0.00000
     22       3.0089      0.00000
     23       3.5500      0.00000
     24       3.5500      0.00000
     25       4.4435      0.00000
     26       4.4435      0.00000
     27       5.1428      0.00000
     28       5.1428      0.00000
     29       5.6731      0.00000
     30       5.6731      0.00000
     31       6.4486      0.00000
     32       6.4486      0.00000

 k-point    38 :       0.1667    0.5000    0.5000
  band No.  band energies     occupation 
      1     -10.8272      2.00000
      2     -10.8272      2.00000
      3     -10.6749      2.00000
      4     -10.6749      2.00000
      5      -5.6755      2.00000
      6      -5.6755      2.00000
      7      -5.2101      2.00000
      8      -5.2101      2.00000
      9      -1.3955      2.00000
     10      -1.3955      2.00000
     11      -1.3129      2.00000
     12      -1.3129      2.00000
     13      -0.1827      2.00000
     14      -0.1827      2.00000
     15      -0.0782      2.00000
     16      -0.0782      2.00000
     17       1.0712      2.00000
     18       1.0712      2.00000
     19       1.2203      2.00000
     20       1.2203      2.00000
     21       3.5996      0.00000
     22       3.5996      0.00000
     23       3.7375      0.00000
     24       3.7375      0.00000
     25       5.2305      0.00000
     26       5.2305      0.00000
     27       5.2529      0.00000
     28       5.2529      0.00000
     29       5.8771      0.00000
     30       5.8771      0.00000
     31       6.3132      0.00000
     32       6.3132      0.00000

 k-point    39 :       0.3333    0.5000    0.5000
  band No.  band energies     occupation 
      1     -10.6224      2.00000
      2     -10.6224      2.00000
      3     -10.5242      2.00000
      4     -10.5242      2.00000
      5      -5.7545      2.00000
      6      -5.7545      2.00000
      7      -5.4745      2.00000
      8      -5.4745      2.00000
      9      -1.8824      2.00000
     10      -1.8824      2.00000
     11      -1.8726      2.00000
     12      -1.8726      2.00000
     13      -0.6822      2.00000
     14      -0.6822      2.00000
     15      -0.6346      2.00000
     16      -0.6346      2.00000
     17       0.9336      2.00000
     18       0.9336      2.00000
     19       1.1049      2.00000
     20       1.1049      2.00000
     21       4.6504      0.00000
     22       4.6504      0.00000
     23       4.8742      0.00000
     24       4.8742      0.00000
     25       5.4770      0.00000
     26       5.4770      0.00000
     27       5.4813      0.00000
     28       5.4813      0.00000
     29       6.6997      0.00000
     30       6.6997      0.00000
     31       6.9606      0.00000
     32       6.9606      0.00000

 k-point    40 :       0.5000    0.5000    0.5000
  band No.  band energies     occupation 
      1     -10.4750      2.00000
      2     -10.4750      2.00000
      3     -10.4750      2.00000
      4     -10.4750      2.00000
      5      -5.7500      2.00000
      6      -5.7500      2.00000
      7      -5.7500      2.00000
      8      -5.7500      2.00000
      9      -1.7214      2.00000
     10      -1.7214      2.00000
     11      -1.7214      2.00000
     12      -1.7214      2.00000
     13      -1.2770      2.00000
     14      -1.2770      2.00000
     15      -1.2770      2.00000
     16      -1.2770      2.00000
     17       1.0625      2.00000
     18       1.0625      2.00000
     19       1.0625      2.00000
     20       1.0625      2.00000
     21       4.7185      0.00000
     22       4.7185      0.00000
     23       4.7185      0.00000
     24       4.7185      0.00000
     25       5.9424      0.00000
     26       5.9424      0.00000
     27       5.9424      0.00000
     28       5.9424      0.00000
     29       7.5492      0.00000
     30       7.5492      0.00000
     31       7.5492      0.00000
     32       7.5492      0.00000


--------------------------------------------------------------------------------------------------------


 soft charge-density along one line, spin component            1
         0         1         2         3         4         5         6         7         8         9
 total charge-density along one line
 
 pseudopotential strength for first ion, spin component:            1
 14.904  18.606   0.035   0.052   0.000   0.063   0.093   0.000
 18.606  23.243   0.044   0.065   0.000   0.079   0.118   0.000
  0.035   0.044   3.289  -0.001   0.000   5.603  -0.002   0.000
  0.052   0.065  -0.001   3.282   0.000  -0.002   5.592   0.000
  0.000   0.000   0.000   0.000   3.288   0.000   0.000   5.602
  0.063   0.079   5.603  -0.002   0.000   9.606  -0.004   0.000
  0.093   0.118  -0.002   5.592   0.000  -0.004   9.588   0.000
  0.000   0.000   0.000   0.000   5.602   0.000   0.000   9.604
  0.000   0.000   0.000  -0.000   0.004   0.000  -0.000   0.009
 -0.002  -0.003   0.013   0.011  -0.000   0.024   0.020  -0.000
 -0.008  -0.009  -0.002   0.014  -0.000  -0.004   0.025  -0.000
  0.000   0.000  -0.000   0.000   0.013  -0.000   0.000   0.024
 -0.001  -0.001  -0.011   0.000   0.000  -0.019   0.000   0.000
 total augmentation occupancy for first ion, spin component:            1
  2.521  -0.550   0.212   0.410   0.000  -0.027  -0.071  -0.000   0.000  -0.023   0.009  -0.000   0.014
 -0.550   0.565  -0.321  -0.537  -0.000   0.045   0.081   0.000  -0.000   0.020  -0.008   0.000  -0.014
  0.212  -0.321   1.017  -0.027   0.000  -0.153   0.018   0.000   0.000   0.050  -0.089  -0.000   0.022
  0.410  -0.537  -0.027   1.334  -0.000   0.018  -0.203   0.000   0.000  -0.047   0.108  -0.000  -0.004
  0.000  -0.000   0.000  -0.000   1.104  -0.000   0.000  -0.181   0.117  -0.000  -0.000   0.038   0.000
 -0.027   0.045  -0.153   0.018  -0.000   0.026  -0.005   0.000  -0.000  -0.008   0.015  -0.000  -0.003
 -0.071   0.081   0.018  -0.203   0.000  -0.005   0.036  -0.000   0.000   0.007  -0.019   0.000   0.001
 -0.000   0.000   0.000   0.000  -0.181   0.000  -0.000   0.033  -0.020   0.000   0.000  -0.006  -0.000
  0.000  -0.000   0.000   0.000   0.117  -0.000   0.000  -0.020   0.021  -0.000  -0.000   0.002   0.000
 -0.023   0.020   0.050  -0.047  -0.000  -0.008   0.007   0.000  -0.000   0.012  -0.008  -0.000   0.003
  0.009  -0.008  -0.089   0.108  -0.000   0.015  -0.019   0.000  -0.000  -0.008   0.026   0.000  -0.004
 -0.000   0.000  -0.000  -0.000   0.038  -0.000   0.000  -0.006   0.002  -0.000   0.000   0.009  -0.000
  0.014  -0.014   0.022  -0.004   0.000  -0.003   0.001  -0.000   0.000   0.003  -0.004  -0.000   0.007


------------------------ aborting loop because EDIFF is reached ----------------------------------------


    CHARGE:  cpu time      0.0039: real time      0.0040
    FORLOC:  cpu time      0.0002: real time      0.0002
    FORNL :  cpu time      0.0226: real time      0.0226
    STRESS:  cpu time      0.2163: real time      0.2172
    FORCOR:  cpu time      0.0061: real time      0.0061
    FORHAR:  cpu time      0.0009: real time      0.0009
    MIXING:  cpu time      0.0004: real time      0.0004
    OFIELD:  cpu time      0.0000: real time      0.0000

  FORCE on cell =-STRESS in cart. coord.  units (eV):
  Direction    XX          YY          ZZ          XY          YZ          ZX
  --------------------------------------------------------------------------------------
  Alpha Z    74.54619    74.54619    74.54619
  Ewald    -386.87683  -477.09728  -462.57867     0.00000     0.00000     0.00000
  Hartree    84.79670    51.29217    38.49839     0.00000     0.00000    -0.00000
  E(xc)    -139.35427  -139.73365  -140.15590    -0.00000     0.00000     0.00000
  Local    -246.50122  -130.91244  -136.16537    -0.00000    -0.00000     0.00000
  n-local   236.98688   236.20698   241.29036     0.00000    -0.00000    -0.00000
  augment   -11.24467   -11.91729   -12.35031    -0.00000     0.00000     0.00000
  Kinetic   380.00343   394.59025   396.07303     0.00000    -0.00000    -0.00000
  Fock        0.00000     0.00000     0.00000     0.00000     0.00000     0.00000
  -------------------------------------------------------------------------------------
  Total      -7.64380    -3.02506    -0.84230    -0.00000    -0.00000     0.00000
  in kB     -53.87883   -21.32274    -5.93711    -0.00000    -0.00000     0.00000
  external pressure =      -27.05 kB  Pullay stress =        0.00 kB


 VOLUME and BASIS-vectors are now :
 -----------------------------------------------------------------------------
  energy-cutoff  :      360.00
  volume of cell :      227.30
      direct lattice vectors                 reciprocal lattice vectors
     4.250000000  0.000000000  0.000000000     0.235294118  0.000000000  0.000000000
     0.000000000  4.800000000  0.000000000     0.000000000  0.208333333  0.000000000
     0.000000000  0.000000000 11.142221000     0.000000000  0.000000000  0.089748713

  length of vectors
     4.250000000  4.800000000 11.142221000     0.235294118  0.208333333  0.089748713


 FORCES acting on ions
    electron-ion (+dipol)            ewald-force                    non-local-force                 convergence-correction
 -----------------------------------------------------------------------------------------------
   0.653E-06 0.122E+02 0.295E+02   0.180E-14 -.147E+02 -.329E+02   -.339E-06 0.260E+01 0.333E+01   -.344E-06 -.106E-03 -.244E-03
   0.609E-06 0.122E+02 -.295E+02   0.242E-14 -.147E+02 0.329E+02   -.300E-06 0.260E+01 -.333E+01   -.324E-06 -.107E-03 0.243E-03
   -.660E-06 -.122E+02 -.295E+02   -.180E-15 0.147E+02 0.329E+02   0.333E-06 -.260E+01 -.333E+01   0.353E-06 0.106E-03 0.244E-03
   -.522E-06 -.122E+02 0.295E+02   -.608E-14 0.147E+02 -.329E+02   0.239E-06 -.260E+01 0.333E+01   0.286E-06 0.106E-03 -.243E-03
   -.109E-05 -.108E+02 -.293E+02   -.521E-14 0.123E+02 0.312E+02   0.352E-06 -.151E+01 -.196E+01   0.703E-06 0.448E-04 0.464E-03
   -.118E-05 -.108E+02 0.293E+02   0.112E-14 0.123E+02 -.312E+02   0.448E-06 -.151E+01 0.196E+01   0.681E-06 0.446E-04 -.465E-03
   0.120E-05 0.108E+02 0.293E+02   0.602E-14 -.123E+02 -.312E+02   -.441E-06 0.151E+01 0.196E+01   -.713E-06 -.445E-04 -.464E-03
   0.138E-05 0.108E+02 -.293E+02   -.141E-14 -.123E+02 0.312E+02   -.538E-06 0.151E+01 -.196E+01   -.757E-06 -.445E-04 0.466E-03
 -----------------------------------------------------------------------------------------------
   0.385E-06 -.311E-06 -.337E-06   -.152E-14 0.178E-14 0.711E-14   -.246E-06 0.671E-07 0.842E-07   -.116E-06 0.191E-06 0.219E-06
 
 
 POSITION                                       TOTAL-FORCE (eV/Angst)
 -----------------------------------------------------------------------------------
      1.06250      0.55783      1.44951        -0.000000      0.013701      0.013820
      3.18750      2.95783      4.12160        -0.000000      0.013701     -0.013820
      3.18750      4.24217      9.69271         0.000000     -0.013701     -0.013820
      1.06250      1.84217      7.02062        -0.000000     -0.013701      0.013820
      1.06250      4.59539      3.89343        -0.000000      0.006764     -0.005605
      3.18750      2.19539      1.67768        -0.000000      0.006764      0.005604
      3.18750      0.20461      7.24879         0.000000     -0.006764      0.005605
      1.06250      2.60461      9.46454         0.000000     -0.006764     -0.005604
 -----------------------------------------------------------------------------------
    total drift:                                0.000000     -0.000000     -0.000000


--------------------------------------------------------------------------------------------------------



  FREE ENERGIE OF THE ION-ELECTRON SYSTEM (eV)
  ---------------------------------------------------
  free  energy   TOTEN  =       -33.34567038 eV

  energy  without entropy=      -33.34567038  energy(sigma->0) =      -33.34567038
 


--------------------------------------------------------------------------------------------------------


    POTLOK:  cpu time      0.1132: real time      0.1138


--------------------------------------------------------------------------------------------------------


     LOOP+:  cpu time      5.2152: real time      5.2604
    4ORBIT:  cpu time      0.0000: real time      0.0000

 total amount of memory used by VASP MPI-rank0    39857. kBytes
=======================================================================

   base      :      30000. kBytes
   nonl-proj :       7704. kBytes
   fftplans  :        374. kBytes
   grid      :        555. kBytes
   one-center:         16. kBytes
   wavefun   :       1208. kBytes
 
  
  
 General timing and accounting informations for this job:
 ========================================================
  
                  Total CPU time used (sec):        6.077
                            User time (sec):        5.748
                          System time (sec):        0.329
                         Elapsed time (sec):        7.627
  
                   Maximum memory used (kb):      194336.
                   Average memory used (kb):          N/A
  
                          Minor page faults:        24590
                          Major page faults:           25
                 Voluntary context switches:         9107
