 vasp.6.4.2 20Jul23 (build Oct 12 2023 10:31:02) complex                         
 executed on              LinuxNV date 2025.05.18  21:39:35
 running  160 mpi-ranks, with    1 threads/rank, on   10 nodes
 distrk:  each k-point on   80 cores,    2 groups
 distr:  one band on NCORE=   5 cores,   16 groups


--------------------------------------------------------------------------------------------------------


 INCAR:
   ENCUT = 520.000000
   SIGMA = 0.050000
   EDIFF = 1.00e-06
   ALGO = Normal
   GGA = PE
   PREC = Normal
   SYSTEM = ./
   ICHARG = 2
   ISMEAR = 0
   ISPIN = 1
   ISTART = 0
   ISYM = 0
   KPAR = 2
   LMAXMIX = 4
   NELM = 100
   NPAR = 16
   LASPH = .TRUE.
   LCHARG = .FALSE.
   LWAVE = .FALSE.

 POTCAR:    PAW_PBE Ge 05Jan2001                  
 POTCAR:    PAW_PBE Se 06Sep2000                  
 POTCAR:    PAW_PBE Ge 05Jan2001                  
   VRHFIN =Ge: s2p2                                                                                 
   LEXCH  = PE                                                                                      
   EATOM  =   104.9960 eV,    7.7170 Ry                                                             
                                                                                                    
   TITEL  = PAW_PBE Ge 05Jan2001                                                                    
   LULTRA =        F    use ultrasoft PP ?                                                          
   IUNSCR =        1    unscreen: 0-lin 1-nonlin 2-no                                               
   RPACOR =    2.170    partial core radius                                                         
   POMASS =   72.610; ZVAL   =    4.000    mass and valenz                                          
   RCORE  =    2.300    outmost cutoff radius                                                       
   RWIGS  =    2.300; RWIGS  =    1.217    wigner-seitz radius (au A)                               
   ENMAX  =  173.807; ENMIN  =  130.355 eV                                                          
   ICORE  =        3    local potential                                                             
   LCOR   =        T    correct aug charges                                                         
   LPAW   =        T    paw PP                                                                      
   EAUG   =  385.843                                                                                
   DEXC   =    0.000                                                                                
   RMAX   =    2.342    core radius for proj-oper                                                   
   RAUG   =    1.300    factor for augmentation sphere                                              
   RDEP   =    2.318    radius for radial grids                                                     
   RDEPT  =    2.103    core radius for aug-charge                                                  
                                                                                                    
   Atomic configuration                                                                             
   10 entries                                                                                       
     n  l   j            E        occ.                                                              
     1  0  0.50    -10959.8463   2.0000                                                             
     2  0  0.50     -1371.6056   2.0000                                                             
     2  1  1.50     -1198.4791   6.0000                                                             
     3  0  0.50      -168.4733   2.0000                                                             
     3  1  1.50      -115.6019   6.0000                                                             
     3  2  2.50       -29.3106  10.0000                                                             
     4  0  0.50       -11.7309   2.0000                                                             
     4  1  0.50        -3.8952   2.0000                                                             
     4  2  1.50        -4.0817   0.0000                                                             
     4  3  2.50        -4.0817   0.0000                                                             
   Description                                                                                      
     l       E           TYP  RCUT    TYP  RCUT                                                     
     0    -11.7309493     23  2.300                                                                 
     0     -7.4578696     23  2.300                                                                 
     1     -3.8952261     23  2.300                                                                 
     1      6.1178114     23  2.300                                                                 
     2     -4.0817478     23  2.300                                                                 
     3     -1.3605826      7  2.300                                                                 
  local pseudopotential read in
  partial core-charges read in
  partial kinetic energy density read in
  atomic valenz-charges read in
  non local Contribution for L=            0  read in
    real space projection operators read in
  non local Contribution for L=            0  read in
    real space projection operators read in
  non local Contribution for L=            1  read in
    real space projection operators read in
  non local Contribution for L=            1  read in
    real space projection operators read in
  non local Contribution for L=            2  read in
    real space projection operators read in
    PAW grid and wavefunctions read in
 
   number of l-projection  operators is LMAX  =            5
   number of lm-projection operators is LMMAX =           13
 
 POTCAR:    PAW_PBE Se 06Sep2000                  
   VRHFIN =Se: s2p4                                                                                 
   LEXCH  = PE                                                                                      
   EATOM  =   257.1286 eV,   18.8984 Ry                                                             
                                                                                                    
   TITEL  = PAW_PBE Se 06Sep2000                                                                    
   LULTRA =        F    use ultrasoft PP ?                                                          
   IUNSCR =        1    unscreen: 0-lin 1-nonlin 2-no                                               
   RPACOR =    1.900    partial core radius                                                         
   POMASS =   78.960; ZVAL   =    6.000    mass and valenz                                          
   RCORE  =    2.100    outmost cutoff radius                                                       
   RWIGS  =    2.200; RWIGS  =    1.164    wigner-seitz radius (au A)                               
   ENMAX  =  211.555; ENMIN  =  158.666 eV                                                          
   ICORE  =        3    local potential                                                             
   LCOR   =        T    correct aug charges                                                         
   LPAW   =        T    paw PP                                                                      
   EAUG   =  446.842                                                                                
   DEXC   =    0.000                                                                                
   RMAX   =    2.147    core radius for proj-oper                                                   
   RAUG   =    1.300    factor for augmentation sphere                                              
   RDEP   =    2.177    radius for radial grids                                                     
   RDEPT  =    1.928    core radius for aug-charge                                                  
                                                                                                    
   Atomic configuration                                                                             
   10 entries                                                                                       
     n  l   j            E        occ.                                                              
     1  0  0.50    -12503.4787   2.0000                                                             
     2  0  0.50     -1606.9547   2.0000                                                             
     2  1  1.50     -1413.3140   6.0000                                                             
     3  0  0.50      -213.4885   2.0000                                                             
     3  1  1.50      -152.9538   6.0000                                                             
     3  2  2.50       -53.1221  10.0000                                                             
     4  0  0.50       -17.2865   2.0000                                                             
     4  1  0.50        -6.5110   4.0000                                                             
     4  2  2.50        -6.8029   0.0000                                                             
     4  3  2.50        -6.8029   0.0000                                                             
   Description                                                                                      
     l       E           TYP  RCUT    TYP  RCUT                                                     
     0    -17.2865377     23  2.100                                                                 
     0    -15.3094411     23  2.100                                                                 
     1     -6.5110275     23  2.100                                                                 
     1     -0.0695192     23  2.100                                                                 
     2     -6.8029130     23  2.100                                                                 
     3     -1.3605826      7  2.100                                                                 
  local pseudopotential read in
  partial core-charges read in
  partial kinetic energy density read in
  atomic valenz-charges read in
  non local Contribution for L=            0  read in
    real space projection operators read in
  non local Contribution for L=            0  read in
    real space projection operators read in
  non local Contribution for L=            1  read in
    real space projection operators read in
  non local Contribution for L=            1  read in
    real space projection operators read in
  non local Contribution for L=            2  read in
    real space projection operators read in
    PAW grid and wavefunctions read in
 
   number of l-projection  operators is LMAX  =            5
   number of lm-projection operators is LMMAX =           13
 
  PAW_PBE Ge 05Jan2001                  :
 energy of atom  1       EATOM= -104.9960
 kinetic energy error for atom=    0.0002 (will be added to EATOM!!)
  PAW_PBE Se 06Sep2000                  :
 energy of atom  2       EATOM= -257.1286
 kinetic energy error for atom=    0.0007 (will be added to EATOM!!)
 
 
 POSCAR: Ge Se
  positions in cartesian coordinates
  No initial velocities read in
 exchange correlation table for  LEXCH =        8
   RHO(1)=    0.500       N(1)  =     2000
   RHO(2)=  100.500       N(2)  =     4000
 


--------------------------------------------------------------------------------------------------------


 ion  position               nearest neighbor table
   1  0.192  0.810  0.123-   6 2.60   6 2.60   5 2.60
   2  0.692  0.310  0.377-   5 2.60   5 2.60   6 2.60
   3  0.750  0.886  0.877-   8 2.60   8 2.60   7 2.60
   4  0.250  0.386  0.623-   7 2.60   7 2.60   8 2.60
   5  0.192  0.689  0.352-   2 2.60   2 2.60   1 2.60
   6  0.692  0.189  0.148-   1 2.60   1 2.60   2 2.60
   7  0.750  0.007  0.648-   4 2.60   4 2.60   3 2.60
   8  0.250  0.507  0.852-   3 2.60   3 2.60   4 2.60
 

IMPORTANT INFORMATION: All symmetrisations will be switched off!
NOSYMM: (Re-)initialisation of all symmetry stuff for point group C_1.


----------------------------------------------------------------------------------------

                                     Primitive cell                                     

  volume of cell :     193.5913

  direct lattice vectors                    reciprocal lattice vectors
     3.858100176  0.000000000  0.000000000     0.259194929  0.000000000  0.000000000
     0.000000000  4.526575088  0.000000000     0.000000000  0.220917577  0.000000000
     0.000000000  0.000000000 11.085176468     0.000000000  0.000000000  0.090210562

  length of vectors
     3.858100176  4.526575088 11.085176468     0.259194929  0.220917577  0.090210562

  position of ions in fractional coordinates (direct lattice)
     0.192028986  0.809772608  0.122982664
     0.692028986  0.309772608  0.377017336
     0.750000000  0.885879566  0.877017336
     0.250000000  0.385879566  0.622982664
     0.192028986  0.688962063  0.352381810
     0.692028986  0.188962063  0.147618190
     0.750000000  0.006690111  0.647618190
     0.250000000  0.506690111  0.852381810

  ion indices of the primitive-cell ions
   primitive index   ion index
                 1           1
                 2           2
                 3           3
                 4           4
                 5           5
                 6           6
                 7           7
                 8           8

----------------------------------------------------------------------------------------

 
 
 KPOINTS: KPOINTS created by Atomic Simulation Env

Automatic generation of k-mesh.
 Grid dimensions read from file:
 generate k-points for:    6    6    2

 Generating k-lattice:

  Cartesian coordinates                     Fractional coordinates (reciprocal lattice)
     0.043199155  0.000000000  0.000000000     0.166666667  0.000000000  0.000000000
     0.000000000  0.036819596  0.000000000     0.000000000  0.166666667  0.000000000
     0.000000000  0.000000000  0.045105281     0.000000000  0.000000000  0.500000000

  Length of vectors
     0.043199155  0.036819596  0.045105281

  Shift w.r.t. Gamma in fractional coordinates (k-lattice)
     0.000000000  0.000000000  0.000000000

 
 Subroutine IBZKPT returns following result:
 ===========================================
 
 Found     40 irreducible k-points:
 
 Following reciprocal coordinates:
            Coordinates               Weight
  0.000000  0.000000  0.000000      1.000000
  0.166667  0.000000  0.000000      2.000000
  0.333333  0.000000  0.000000      2.000000
  0.500000  0.000000  0.000000      1.000000
  0.000000  0.166667  0.000000      2.000000
  0.166667  0.166667  0.000000      2.000000
  0.166667 -0.166667  0.000000      2.000000
  0.333333  0.166667  0.000000      2.000000
  0.333333 -0.166667  0.000000      2.000000
  0.500000  0.166667  0.000000      2.000000
  0.000000  0.333333  0.000000      2.000000
  0.166667  0.333333  0.000000      2.000000
  0.166667 -0.333333  0.000000      2.000000
  0.333333  0.333333  0.000000      2.000000
  0.333333 -0.333333  0.000000      2.000000
  0.500000  0.333333  0.000000      2.000000
  0.000000  0.500000  0.000000      1.000000
  0.166667  0.500000  0.000000      2.000000
  0.333333  0.500000  0.000000      2.000000
  0.500000  0.500000  0.000000      1.000000
  0.000000  0.000000  0.500000      1.000000
  0.166667  0.000000  0.500000      2.000000
  0.333333  0.000000  0.500000      2.000000
  0.500000  0.000000  0.500000      1.000000
  0.000000  0.166667  0.500000      2.000000
  0.166667  0.166667  0.500000      2.000000
  0.166667 -0.166667  0.500000      2.000000
  0.333333  0.166667  0.500000      2.000000
  0.333333 -0.166667  0.500000      2.000000
  0.500000  0.166667  0.500000      2.000000
  0.000000  0.333333  0.500000      2.000000
  0.166667  0.333333  0.500000      2.000000
  0.166667 -0.333333  0.500000      2.000000
  0.333333  0.333333  0.500000      2.000000
  0.333333 -0.333333  0.500000      2.000000
  0.500000  0.333333  0.500000      2.000000
  0.000000  0.500000  0.500000      1.000000
  0.166667  0.500000  0.500000      2.000000
  0.333333  0.500000  0.500000      2.000000
  0.500000  0.500000  0.500000      1.000000
 
 Following cartesian coordinates:
            Coordinates               Weight
  0.000000  0.000000  0.000000      1.000000
  0.043199  0.000000  0.000000      2.000000
  0.086398  0.000000  0.000000      2.000000
  0.129597  0.000000  0.000000      1.000000
  0.000000  0.036820  0.000000      2.000000
  0.043199  0.036820  0.000000      2.000000
  0.043199 -0.036820  0.000000      2.000000
  0.086398  0.036820  0.000000      2.000000
  0.086398 -0.036820  0.000000      2.000000
  0.129597  0.036820  0.000000      2.000000
  0.000000  0.073639  0.000000      2.000000
  0.043199  0.073639  0.000000      2.000000
  0.043199 -0.073639  0.000000      2.000000
  0.086398  0.073639  0.000000      2.000000
  0.086398 -0.073639  0.000000      2.000000
  0.129597  0.073639  0.000000      2.000000
  0.000000  0.110459  0.000000      1.000000
  0.043199  0.110459  0.000000      2.000000
  0.086398  0.110459  0.000000      2.000000
  0.129597  0.110459  0.000000      1.000000
  0.000000  0.000000  0.045105      1.000000
  0.043199  0.000000  0.045105      2.000000
  0.086398  0.000000  0.045105      2.000000
  0.129597  0.000000  0.045105      1.000000
  0.000000  0.036820  0.045105      2.000000
  0.043199  0.036820  0.045105      2.000000
  0.043199 -0.036820  0.045105      2.000000
  0.086398  0.036820  0.045105      2.000000
  0.086398 -0.036820  0.045105      2.000000
  0.129597  0.036820  0.045105      2.000000
  0.000000  0.073639  0.045105      2.000000
  0.043199  0.073639  0.045105      2.000000
  0.043199 -0.073639  0.045105      2.000000
  0.086398  0.073639  0.045105      2.000000
  0.086398 -0.073639  0.045105      2.000000
  0.129597  0.073639  0.045105      2.000000
  0.000000  0.110459  0.045105      1.000000
  0.043199  0.110459  0.045105      2.000000
  0.086398  0.110459  0.045105      2.000000
  0.129597  0.110459  0.045105      1.000000
 


--------------------------------------------------------------------------------------------------------




 Dimension of arrays:
   k-points           NKPTS =     40   k-points in BZ     NKDIM =     40   number of bands    NBANDS=     32
   number of dos      NEDOS =    301   number of ions     NIONS =      8
   non local maximal  LDIM  =      5   non local SUM 2l+1 LMDIM =     13
   total plane-waves  NPLWV =  43008
   max r-space proj   IRMAX =      1   max aug-charges    IRDMAX=  12272
   dimension x,y,z NGX =    24 NGY =   28 NGZ =   64
   dimension x,y,z NGXF=    48 NGYF=   56 NGZF=  128
   support grid    NGXF=    48 NGYF=   56 NGZF=  128
   ions per type =               4   4
   NGX,Y,Z   is equivalent  to a cutoff of  10.34, 10.28,  9.60 a.u.
   NGXF,Y,Z  is equivalent  to a cutoff of  20.68, 20.57, 19.20 a.u.

 SYSTEM =  ./                                      
 POSCAR =  Ge Se                                   

 Startparameter for this run:
   NWRITE =      2    write-flag & timer
   PREC   = normal    normal or accurate (medium, high low for compatibility)
   ISTART =      0    job   : 0-new  1-cont  2-samecut
   ICHARG =      2    charge: 1-file 2-atom 10-const
   ISPIN  =      1    spin polarized calculation?
   LNONCOLLINEAR =      F non collinear calculations
   LSORBIT =      F    spin-orbit coupling
   INIWAV =      1    electr: 0-lowe 1-rand  2-diag
   LASPH  =      T    aspherical Exc in radial PAW
 Electronic Relaxation 1
   ENCUT  =  520.0 eV  38.22 Ry    6.18 a.u.   7.17  8.42 20.61*2*pi/ulx,y,z
   ENINI  =  520.0     initial cutoff
   ENAUG  =  446.8 eV  augmentation charge cutoff
   NELM   =    100;   NELMIN=  2; NELMDL= -5     # of ELM steps 
   EDIFF  = 0.1E-05   stopping-criterion for ELM
   LREAL  =      F    real-space projection
   NLSPLINE    = F    spline interpolate recip. space projectors
   LCOMPAT=      F    compatible to vasp.4.4
   GGA_COMPAT  = T    GGA compatible to vasp.4.4-vasp.4.6
   LMAXPAW     = -100 max onsite density
   LMAXMIX     =    4 max onsite mixed and CHGCAR
   VOSKOWN=      0    Vosko Wilk Nusair interpolation
   ROPT   =    0.00000   0.00000
 Ionic relaxation
   EDIFFG = 0.1E-04   stopping-criterion for IOM
   NSW    =      0    number of steps for IOM
   NBLOCK =      1;   KBLOCK =      1    inner block; outer block 
   IBRION =     -1    ionic relax: 0-MD 1-quasi-New 2-CG
   NFREE  =      0    steps in history (QN), initial steepest desc. (CG)
   ISIF   =      2    stress and relaxation
   IWAVPR =     10    prediction:  0-non 1-charg 2-wave 3-comb
   ISYM   =      0    0-nonsym 1-usesym 2-fastsym
   LCORR  =      T    Harris-Foulkes like correction to forces

   POTIM  = 0.5000    time-step for ionic-motion
   TEIN   =    0.0    initial temperature
   TEBEG  =    0.0;   TEEND  =   0.0 temperature during run
   SMASS  =  -3.00    Nose mass-parameter (am)
   estimated Nose-frequenzy (Omega)   =  0.10E-29 period in steps = 0.13E+47 mass=  -0.340E-27a.u.
   SCALEE = 1.0000    scale energy and forces
   NPACO  =    256;   APACO  = 10.0  distance and # of slots for P.C.
   PSTRESS=    0.0 pullay stress

  Mass of Ions in am
   POMASS =  72.61 78.96
  Ionic Valenz
   ZVAL   =   4.00  6.00
  Atomic Wigner-Seitz radii
   RWIGS  =  -1.00 -1.00
  virtual crystal weights 
   VCA    =   1.00  1.00
   NELECT =      40.0000    total number of electrons
   NUPDOWN=      -1.0000    fix difference up-down

 DOS related values:
   EMIN   =  10.00;   EMAX   =-10.00  energy-range for DOS
   EFERMI =   0.00;   METHOD = LEGACY      
   ISMEAR =     0;   SIGMA  =   0.05  broadening in eV -4-tet -1-fermi 0-gaus

 Electronic relaxation 2 (details)
   IALGO  =     38    algorithm
   LDIAG  =      T    sub-space diagonalisation (order eigenvalues)
   LSUBROT=      F    optimize rotation matrix (better conditioning)
   TURBO    =      0    0=normal 1=particle mesh
   IRESTART =      0    0=no restart 2=restart with 2 vectors
   NREBOOT  =      0    no. of reboots
   NMIN     =      0    reboot dimension
   EREF     =   0.00    reference energy to select bands
   IMIX   =      4    mixing-type and parameters
     AMIX     =   0.40;   BMIX     =  1.00
     AMIX_MAG =   1.60;   BMIX_MAG =  1.00
     AMIN     =   0.10
     WC   =   100.;   INIMIX=   1;  MIXPRE=   1;  MAXMIX= -45

 Intra band minimization:
   WEIMIN = 0.0000     energy-eigenvalue tresh-hold
   EBREAK =  0.78E-08  absolut break condition
   DEPER  =   0.30     relativ break condition  

   TIME   =   0.40     timestep for ELM

  volume/ion in A,a.u.               =      24.20       163.30
  Fermi-wavevector in a.u.,A,eV,Ry     =   0.967831  1.828935 12.744535  0.936697
  Thomas-Fermi vector in A             =   2.097750
 
 Write flags
   LWAVE        =      F    write WAVECAR
   LDOWNSAMPLE  =      F    k-point downsampling of WAVECAR
   LCHARG       =      F    write CHGCAR
   LVTOT        =      F    write LOCPOT, total local potential
   LVHAR        =      F    write LOCPOT, Hartree potential only
   LELF         =      F    write electronic localiz. function (ELF)
   LORBIT       =      0    0 simple, 1 ext, 2 COOP (PROOUT), +10 PAW based schemes


 Dipole corrections
   LMONO  =      F    monopole corrections only (constant potential shift)
   LDIPOL =      F    correct potential (dipole corrections)
   IDIPOL =      0    1-x, 2-y, 3-z, 4-all directions 
   EPSILON=  1.0000000 bulk dielectric constant

 Exchange correlation treatment:
   GGA     =    PE    GGA type
   LEXCH   =     8    internal setting for exchange type
   LIBXC   =     F    Libxc                    
   VOSKOWN =     0    Vosko Wilk Nusair interpolation
   LHFCALC =     F    Hartree Fock is set to
   LHFONE  =     F    Hartree Fock one center treatment
   AEXX    =    0.0000 exact exchange contribution

 Linear response parameters
   LEPSILON=     F    determine dielectric tensor
   LRPA    =     F    only Hartree local field effects (RPA)
   LNABLA  =     F    use nabla operator in PAW spheres
   LVEL    =     F    velocity operator in full k-point grid
   CSHIFT  =0.1000    complex shift for real part using Kramers Kronig
   OMEGAMAX=  -1.0    maximum frequency
   DEG_THRESHOLD= 0.2000000E-02 threshold for treating states as degnerate
   RTIME   =   -0.100 relaxation time in fs
  (WPLASMAI=    0.000 imaginary part of plasma frequency in eV, 0.658/RTIME)
   DFIELD  = 0.0000000 0.0000000 0.0000000 field for delta impulse in time
 
  Optional k-point grid parameters
   LKPOINTS_OPT  =     F    use optional k-point grid
   KPOINTS_OPT_MODE=     1    mode for optional k-point grid
 
 Orbital magnetization related:
   ORBITALMAG=     F  switch on orbital magnetization
   LCHIMAG   =     F  perturbation theory with respect to B field
   DQ        =  0.001000  dq finite difference perturbation B field
   LLRAUG    =     F  two centre corrections for induced B field
   LBONE     =     F  B-component reconstruction in AE one-centre
   LVGVCALC  =     T  calculate vGv susceptibility
   LVGVAPPL  =     F  apply vGv susceptibility instead of pGv for G=0

 Random number generation:
   RANDOM_GENERATOR = DEFAULT
   PCG_SEED         = not used


--------------------------------------------------------------------------------------------------------


 Static calculation
 charge density and potential will be updated during run
 non-spin polarized calculation
 Variant of blocked Davidson
 Davidson routine will perform the subspace rotation
 perform sub-space diagonalisation
    after iterative eigenvector-optimisation
 modified Broyden-mixing scheme, WC =      100.0
 initial mixing is a Kerker type mixing with AMIX =  0.4000 and BMIX =      1.0000
 Hartree-type preconditioning will be used
 using additional bands            12
 reciprocal scheme for non local part
 use partial core corrections
 calculate Harris-corrections to forces 
   (improved forces if not selfconsistent)
 use gradient corrections 
 use of overlap-Matrix (Vanderbilt PP)
 Gauss-broadening in eV      SIGMA  =   0.05


--------------------------------------------------------------------------------------------------------


  energy-cutoff  :      520.00
  volume of cell :      193.59
      direct lattice vectors                 reciprocal lattice vectors
     3.858100176  0.000000000  0.000000000     0.259194929  0.000000000  0.000000000
     0.000000000  4.526575088  0.000000000     0.000000000  0.220917577  0.000000000
     0.000000000  0.000000000 11.085176468     0.000000000  0.000000000  0.090210562

  length of vectors
     3.858100176  4.526575088 11.085176468     0.259194929  0.220917577  0.090210562


 
 k-points in units of 2pi/SCALE and weight: KPOINTS created by Atomic Simulation Env
   0.00000000  0.00000000  0.00000000       0.014
   0.04319915  0.00000000  0.00000000       0.028
   0.08639831  0.00000000  0.00000000       0.028
   0.12959746  0.00000000  0.00000000       0.014
   0.00000000  0.03681960  0.00000000       0.028
   0.04319915  0.03681960  0.00000000       0.028
   0.04319915 -0.03681960  0.00000000       0.028
   0.08639831  0.03681960  0.00000000       0.028
   0.08639831 -0.03681960  0.00000000       0.028
   0.12959746  0.03681960  0.00000000       0.028
   0.00000000  0.07363919  0.00000000       0.028
   0.04319915  0.07363919  0.00000000       0.028
   0.04319915 -0.07363919  0.00000000       0.028
   0.08639831  0.07363919  0.00000000       0.028
   0.08639831 -0.07363919  0.00000000       0.028
   0.12959746  0.07363919  0.00000000       0.028
   0.00000000  0.11045879  0.00000000       0.014
   0.04319915  0.11045879  0.00000000       0.028
   0.08639831  0.11045879  0.00000000       0.028
   0.12959746  0.11045879  0.00000000       0.014
   0.00000000  0.00000000  0.04510528       0.014
   0.04319915  0.00000000  0.04510528       0.028
   0.08639831  0.00000000  0.04510528       0.028
   0.12959746  0.00000000  0.04510528       0.014
   0.00000000  0.03681960  0.04510528       0.028
   0.04319915  0.03681960  0.04510528       0.028
   0.04319915 -0.03681960  0.04510528       0.028
   0.08639831  0.03681960  0.04510528       0.028
   0.08639831 -0.03681960  0.04510528       0.028
   0.12959746  0.03681960  0.04510528       0.028
   0.00000000  0.07363919  0.04510528       0.028
   0.04319915  0.07363919  0.04510528       0.028
   0.04319915 -0.07363919  0.04510528       0.028
   0.08639831  0.07363919  0.04510528       0.028
   0.08639831 -0.07363919  0.04510528       0.028
   0.12959746  0.07363919  0.04510528       0.028
   0.00000000  0.11045879  0.04510528       0.014
   0.04319915  0.11045879  0.04510528       0.028
   0.08639831  0.11045879  0.04510528       0.028
   0.12959746  0.11045879  0.04510528       0.014
 
 k-points in reciprocal lattice and weights: KPOINTS created by Atomic Simulation Env
   0.00000000  0.00000000  0.00000000       0.014
   0.16666667  0.00000000  0.00000000       0.028
   0.33333333  0.00000000  0.00000000       0.028
   0.50000000  0.00000000  0.00000000       0.014
   0.00000000  0.16666667  0.00000000       0.028
   0.16666667  0.16666667  0.00000000       0.028
   0.16666667 -0.16666667  0.00000000       0.028
   0.33333333  0.16666667  0.00000000       0.028
   0.33333333 -0.16666667  0.00000000       0.028
   0.50000000  0.16666667  0.00000000       0.028
   0.00000000  0.33333333  0.00000000       0.028
   0.16666667  0.33333333  0.00000000       0.028
   0.16666667 -0.33333333  0.00000000       0.028
   0.33333333  0.33333333  0.00000000       0.028
   0.33333333 -0.33333333  0.00000000       0.028
   0.50000000  0.33333333  0.00000000       0.028
   0.00000000  0.50000000  0.00000000       0.014
   0.16666667  0.50000000  0.00000000       0.028
   0.33333333  0.50000000  0.00000000       0.028
   0.50000000  0.50000000  0.00000000       0.014
   0.00000000  0.00000000  0.50000000       0.014
   0.16666667  0.00000000  0.50000000       0.028
   0.33333333  0.00000000  0.50000000       0.028
   0.50000000  0.00000000  0.50000000       0.014
   0.00000000  0.16666667  0.50000000       0.028
   0.16666667  0.16666667  0.50000000       0.028
   0.16666667 -0.16666667  0.50000000       0.028
   0.33333333  0.16666667  0.50000000       0.028
   0.33333333 -0.16666667  0.50000000       0.028
   0.50000000  0.16666667  0.50000000       0.028
   0.00000000  0.33333333  0.50000000       0.028
   0.16666667  0.33333333  0.50000000       0.028
   0.16666667 -0.33333333  0.50000000       0.028
   0.33333333  0.33333333  0.50000000       0.028
   0.33333333 -0.33333333  0.50000000       0.028
   0.50000000  0.33333333  0.50000000       0.028
   0.00000000  0.50000000  0.50000000       0.014
   0.16666667  0.50000000  0.50000000       0.028
   0.33333333  0.50000000  0.50000000       0.028
   0.50000000  0.50000000  0.50000000       0.014
 
 position of ions in fractional coordinates (direct lattice) 
   0.19202899  0.80977261  0.12298266
   0.69202899  0.30977261  0.37701734
   0.75000000  0.88587957  0.87701734
   0.25000000  0.38587957  0.62298266
   0.19202899  0.68896206  0.35238181
   0.69202899  0.18896206  0.14761819
   0.75000000  0.00669011  0.64761819
   0.25000000  0.50669011  0.85238181
 
 position of ions in cartesian coordinates  (Angst):
   0.74086706  3.66549652  1.36328454
   2.66991715  1.40220897  4.17930370
   2.89357513  4.01000037  9.72189193
   0.96452504  1.74671283  6.90587277
   0.74086706  3.11863851  3.90621455
   2.66991715  0.85535097  1.63637368
   2.89357513  0.03028329  7.17896192
   0.96452504  2.29357083  9.44880278
 


--------------------------------------------------------------------------------------------------------


 k-point   1 :   0.0000 0.0000 0.0000  plane waves:    5211
 k-point   2 :   0.1667 0.0000 0.0000  plane waves:    5225
 k-point   3 :   0.3333 0.0000 0.0000  plane waves:    5224
 k-point   4 :   0.5000 0.0000 0.0000  plane waves:    5258
 k-point   5 :   0.0000 0.1667 0.0000  plane waves:    5209
 k-point   6 :   0.1667 0.1667 0.0000  plane waves:    5201
 k-point   7 :   0.1667-0.1667 0.0000  plane waves:    5201
 k-point   8 :   0.3333 0.1667 0.0000  plane waves:    5230
 k-point   9 :   0.3333-0.1667 0.0000  plane waves:    5230
 k-point  10 :   0.5000 0.1667 0.0000  plane waves:    5236
 k-point  11 :   0.0000 0.3333 0.0000  plane waves:    5213
 k-point  12 :   0.1667 0.3333 0.0000  plane waves:    5199
 k-point  13 :   0.1667-0.3333 0.0000  plane waves:    5199
 k-point  14 :   0.3333 0.3333 0.0000  plane waves:    5211
 k-point  15 :   0.3333-0.3333 0.0000  plane waves:    5211
 k-point  16 :   0.5000 0.3333 0.0000  plane waves:    5230
 k-point  17 :   0.0000 0.5000 0.0000  plane waves:    5220
 k-point  18 :   0.1667 0.5000 0.0000  plane waves:    5208
 k-point  19 :   0.3333 0.5000 0.0000  plane waves:    5230
 k-point  20 :   0.5000 0.5000 0.0000  plane waves:    5180
 k-point  21 :   0.0000 0.0000 0.5000  plane waves:    5210
 k-point  22 :   0.1667 0.0000 0.5000  plane waves:    5178
 k-point  23 :   0.3333 0.0000 0.5000  plane waves:    5214
 k-point  24 :   0.5000 0.0000 0.5000  plane waves:    5232
 k-point  25 :   0.0000 0.1667 0.5000  plane waves:    5224
 k-point  26 :   0.1667 0.1667 0.5000  plane waves:    5210
 k-point  27 :   0.1667-0.1667 0.5000  plane waves:    5210
 k-point  28 :   0.3333 0.1667 0.5000  plane waves:    5196
 k-point  29 :   0.3333-0.1667 0.5000  plane waves:    5196
 k-point  30 :   0.5000 0.1667 0.5000  plane waves:    5224
 k-point  31 :   0.0000 0.3333 0.5000  plane waves:    5202
 k-point  32 :   0.1667 0.3333 0.5000  plane waves:    5214
 k-point  33 :   0.1667-0.3333 0.5000  plane waves:    5214
 k-point  34 :   0.3333 0.3333 0.5000  plane waves:    5216
 k-point  35 :   0.3333-0.3333 0.5000  plane waves:    5216
 k-point  36 :   0.5000 0.3333 0.5000  plane waves:    5216
 k-point  37 :   0.0000 0.5000 0.5000  plane waves:    5212
 k-point  38 :   0.1667 0.5000 0.5000  plane waves:    5192
 k-point  39 :   0.3333 0.5000 0.5000  plane waves:    5208
 k-point  40 :   0.5000 0.5000 0.5000  plane waves:    5208

 maximum and minimum number of plane-waves per node :      1076     1017

 maximum number of plane-waves:      5258
 maximum index in each direction: 
   IXMAX=    7   IYMAX=    8   IZMAX=   20
   IXMIN=   -7   IYMIN=   -8   IZMIN=  -21


 parallel 3D FFT for wavefunctions:
    minimum data exchange during FFTs selected (reduces bandwidth)
 parallel 3D FFT for charge:
    minimum data exchange during FFTs selected (reduces bandwidth)


 total amount of memory used by VASP MPI-rank0    41770. kBytes
=======================================================================

   base      :      30000. kBytes
   nonl-proj :       9056. kBytes
   fftplans  :        519. kBytes
   grid      :        766. kBytes
   one-center:         16. kBytes
   wavefun   :       1413. kBytes
 
     INWAV:  cpu time      0.0000: real time      0.0001
 Broyden mixing: mesh for mixing (old mesh)
   NGX = 15   NGY = 17   NGZ = 41
  (NGX  = 48   NGY  = 56   NGZ  =128)
  gives a total of  10455 points

 initial charge density was supplied:
 charge density of overlapping atoms calculated
 number of electron      40.0000000 magnetization 
 keeping initial charge density in first step


--------------------------------------------------------------------------------------------------------


 Maximum index for augmentation-charges           363 (set IRDMAX)


--------------------------------------------------------------------------------------------------------


 First call to EWALD:  gamma=   0.306
 Maximum number of real-space cells 4x 3x 2
 Maximum number of reciprocal cells 2x 2x 5

    FEWALD:  cpu time      0.0018: real time      0.0019


--------------------------------------- Ionic step        1  -------------------------------------------




--------------------------------------- Iteration      1(   1)  ---------------------------------------


    POTLOK:  cpu time      0.0109: real time      0.0110
    SETDIJ:  cpu time      0.2188: real time      0.2193
     EDDAV:  cpu time      0.3479: real time      0.3495
       DOS:  cpu time      0.0015: real time      0.0015
    --------------------------------------------
      LOOP:  cpu time      0.5791: real time      0.5813

 eigenvalue-minimisations  :  2560
 total energy-change (2. order) : 0.1634574E+03  (-0.1587856E+04)
 number of electron      40.0000000 magnetization 
 augmentation part       40.0000000 magnetization 

 Free energy of the ion-electron system (eV)
  ---------------------------------------------------
  alpha Z        PSCENC =        87.52689448
  Ewald energy   TEWEN  =     -1418.71289224
  -Hartree energ DENC   =      -127.73745185
  -exchange      EXHF   =         0.00000000
  -V(xc)+E(xc)   XCENC  =       -33.31965649
  PAW double counting   =      1193.78262552    -1080.73714043
  entropy T*S    EENTRO =        -0.00276177
  eigenvalues    EBANDS =        94.16315505
  atomic energy  EATOM  =      1448.49460871
  Solvation  Ediel_sol  =         0.00000000
  ---------------------------------------------------
  free energy    TOTEN  =       163.45738099 eV

  energy without entropy =      163.46014275  energy(sigma->0) =      163.45876187


--------------------------------------------------------------------------------------------------------




--------------------------------------- Iteration      1(   2)  ---------------------------------------


     EDDAV:  cpu time      0.4772: real time      0.4801
       DOS:  cpu time      0.0006: real time      0.0006
    --------------------------------------------
      LOOP:  cpu time      0.4778: real time      0.4807

 eigenvalue-minimisations  :  3664
 total energy-change (2. order) :-0.1857469E+03  (-0.1801004E+03)
 number of electron      40.0000000 magnetization 
 augmentation part       40.0000000 magnetization 

 Free energy of the ion-electron system (eV)
  ---------------------------------------------------
  alpha Z        PSCENC =        87.52689448
  Ewald energy   TEWEN  =     -1418.71289224
  -Hartree energ DENC   =      -127.73745185
  -exchange      EXHF   =         0.00000000
  -V(xc)+E(xc)   XCENC  =       -33.31965649
  PAW double counting   =      1193.78262552    -1080.73714043
  entropy T*S    EENTRO =        -0.00000000
  eigenvalues    EBANDS =       -91.58648528
  atomic energy  EATOM  =      1448.49460871
  Solvation  Ediel_sol  =         0.00000000
  ---------------------------------------------------
  free energy    TOTEN  =       -22.28949758 eV

  energy without entropy =      -22.28949758  energy(sigma->0) =      -22.28949758


--------------------------------------------------------------------------------------------------------




--------------------------------------- Iteration      1(   3)  ---------------------------------------


     EDDAV:  cpu time      0.5059: real time      0.5086
       DOS:  cpu time      0.0005: real time      0.0005
    --------------------------------------------
      LOOP:  cpu time      0.5064: real time      0.5090

 eigenvalue-minimisations  :  3392
 total energy-change (2. order) :-0.1141127E+02  (-0.1137814E+02)
 number of electron      40.0000000 magnetization 
 augmentation part       40.0000000 magnetization 

 Free energy of the ion-electron system (eV)
  ---------------------------------------------------
  alpha Z        PSCENC =        87.52689448
  Ewald energy   TEWEN  =     -1418.71289224
  -Hartree energ DENC   =      -127.73745185
  -exchange      EXHF   =         0.00000000
  -V(xc)+E(xc)   XCENC  =       -33.31965649
  PAW double counting   =      1193.78262552    -1080.73714043
  entropy T*S    EENTRO =        -0.00000000
  eigenvalues    EBANDS =      -102.99775757
  atomic energy  EATOM  =      1448.49460871
  Solvation  Ediel_sol  =         0.00000000
  ---------------------------------------------------
  free energy    TOTEN  =       -33.70076987 eV

  energy without entropy =      -33.70076987  energy(sigma->0) =      -33.70076987


--------------------------------------------------------------------------------------------------------




--------------------------------------- Iteration      1(   4)  ---------------------------------------


     EDDAV:  cpu time      0.4122: real time      0.4144
       DOS:  cpu time      0.0005: real time      0.0006
    --------------------------------------------
      LOOP:  cpu time      0.4128: real time      0.4149

 eigenvalue-minimisations  :  3120
 total energy-change (2. order) :-0.8990575E-01  (-0.8989149E-01)
 number of electron      40.0000000 magnetization 
 augmentation part       40.0000000 magnetization 

 Free energy of the ion-electron system (eV)
  ---------------------------------------------------
  alpha Z        PSCENC =        87.52689448
  Ewald energy   TEWEN  =     -1418.71289224
  -Hartree energ DENC   =      -127.73745185
  -exchange      EXHF   =         0.00000000
  -V(xc)+E(xc)   XCENC  =       -33.31965649
  PAW double counting   =      1193.78262552    -1080.73714043
  entropy T*S    EENTRO =        -0.00000000
  eigenvalues    EBANDS =      -103.08766332
  atomic energy  EATOM  =      1448.49460871
  Solvation  Ediel_sol  =         0.00000000
  ---------------------------------------------------
  free energy    TOTEN  =       -33.79067562 eV

  energy without entropy =      -33.79067562  energy(sigma->0) =      -33.79067562


--------------------------------------------------------------------------------------------------------




--------------------------------------- Iteration      1(   5)  ---------------------------------------


     EDDAV:  cpu time      0.4379: real time      0.4401
       DOS:  cpu time      0.0005: real time      0.0005
    CHARGE:  cpu time      0.0088: real time      0.0088
    MIXING:  cpu time      0.0007: real time      0.0007
    --------------------------------------------
      LOOP:  cpu time      0.4479: real time      0.4501

 eigenvalue-minimisations  :  3360
 total energy-change (2. order) :-0.5743403E-03  (-0.5743199E-03)
 number of electron      40.0000003 magnetization 
 augmentation part       -7.4180876 magnetization 

 Broyden mixing:
  rms(total) = 0.65731E+00    rms(broyden)= 0.65731E+00
  rms(prec ) = 0.73923E+00
  weight for this iteration     100.00

 Free energy of the ion-electron system (eV)
  ---------------------------------------------------
  alpha Z        PSCENC =        87.52689448
  Ewald energy   TEWEN  =     -1418.71289224
  -Hartree energ DENC   =      -127.73745185
  -exchange      EXHF   =         0.00000000
  -V(xc)+E(xc)   XCENC  =       -33.31965649
  PAW double counting   =      1193.78262552    -1080.73714043
  entropy T*S    EENTRO =        -0.00000000
  eigenvalues    EBANDS =      -103.08823766
  atomic energy  EATOM  =      1448.49460871
  Solvation  Ediel_sol  =         0.00000000
  ---------------------------------------------------
  free energy    TOTEN  =       -33.79124996 eV

  energy without entropy =      -33.79124996  energy(sigma->0) =      -33.79124996


--------------------------------------------------------------------------------------------------------




--------------------------------------- Iteration      1(   6)  ---------------------------------------


    POTLOK:  cpu time      0.0102: real time      0.0103
    SETDIJ:  cpu time      0.2185: real time      0.2190
     EDDAV:  cpu time      0.4178: real time      0.4203
       DOS:  cpu time      0.0006: real time      0.0006
    CHARGE:  cpu time      0.0090: real time      0.0090
    MIXING:  cpu time      0.0007: real time      0.0007
    --------------------------------------------
      LOOP:  cpu time      0.6568: real time      0.6599

 eigenvalue-minimisations  :  3168
 total energy-change (2. order) : 0.3717635E+00  (-0.7910384E-01)
 number of electron      40.0000003 magnetization 
 augmentation part       -7.3614799 magnetization 

 Broyden mixing:
  rms(total) = 0.41294E+00    rms(broyden)= 0.41294E+00
  rms(prec ) = 0.43388E+00
  weight for this iteration     100.00

 eigenvalues of (default mixing * dielectric matrix)
  average eigenvalue GAMMA=   2.1920
  2.1920

 Free energy of the ion-electron system (eV)
  ---------------------------------------------------
  alpha Z        PSCENC =        87.52689448
  Ewald energy   TEWEN  =     -1418.71289224
  -Hartree energ DENC   =      -133.56569813
  -exchange      EXHF   =         0.00000000
  -V(xc)+E(xc)   XCENC  =       -32.72088296
  PAW double counting   =      1459.04424366    -1346.31810474
  entropy T*S    EENTRO =        -0.00000000
  eigenvalues    EBANDS =       -97.16765521
  atomic energy  EATOM  =      1448.49460871
  Solvation  Ediel_sol  =         0.00000000
  ---------------------------------------------------
  free energy    TOTEN  =       -33.41948644 eV

  energy without entropy =      -33.41948644  energy(sigma->0) =      -33.41948644


--------------------------------------------------------------------------------------------------------




--------------------------------------- Iteration      1(   7)  ---------------------------------------


    POTLOK:  cpu time      0.0101: real time      0.0102
    SETDIJ:  cpu time      0.2220: real time      0.2224
     EDDAV:  cpu time      0.4689: real time      0.4713
       DOS:  cpu time      0.0006: real time      0.0006
    CHARGE:  cpu time      0.0090: real time      0.0091
    MIXING:  cpu time      0.0007: real time      0.0007
    --------------------------------------------
      LOOP:  cpu time      0.7112: real time      0.7143

 eigenvalue-minimisations  :  2976
 total energy-change (2. order) : 0.1147699E-01  (-0.2070863E-01)
 number of electron      40.0000003 magnetization 
 augmentation part       -7.3469495 magnetization 

 Broyden mixing:
  rms(total) = 0.12941E+00    rms(broyden)= 0.12941E+00
  rms(prec ) = 0.13809E+00
  weight for this iteration     100.00

 eigenvalues of (default mixing * dielectric matrix)
  average eigenvalue GAMMA=   1.7787
  1.1770  2.3803

 Free energy of the ion-electron system (eV)
  ---------------------------------------------------
  alpha Z        PSCENC =        87.52689448
  Ewald energy   TEWEN  =     -1418.71289224
  -Hartree energ DENC   =      -136.21333698
  -exchange      EXHF   =         0.00000000
  -V(xc)+E(xc)   XCENC  =       -32.26359747
  PAW double counting   =      1784.89462676    -1672.40478645
  entropy T*S    EENTRO =        -0.00000000
  eigenvalues    EBANDS =       -94.72952627
  atomic energy  EATOM  =      1448.49460871
  Solvation  Ediel_sol  =         0.00000000
  ---------------------------------------------------
  free energy    TOTEN  =       -33.40800945 eV

  energy without entropy =      -33.40800945  energy(sigma->0) =      -33.40800945


--------------------------------------------------------------------------------------------------------




--------------------------------------- Iteration      1(   8)  ---------------------------------------


    POTLOK:  cpu time      0.0102: real time      0.0103
    SETDIJ:  cpu time      0.2198: real time      0.2203
     EDDAV:  cpu time      0.4143: real time      0.4162
       DOS:  cpu time      0.0006: real time      0.0006
    CHARGE:  cpu time      0.0089: real time      0.0089
    MIXING:  cpu time      0.0006: real time      0.0006
    --------------------------------------------
      LOOP:  cpu time      0.6543: real time      0.6569

 eigenvalue-minimisations  :  2928
 total energy-change (2. order) : 0.1403054E-02  (-0.2004458E-02)
 number of electron      40.0000003 magnetization 
 augmentation part       -7.3543246 magnetization 

 Broyden mixing:
  rms(total) = 0.17484E-01    rms(broyden)= 0.17484E-01
  rms(prec ) = 0.21242E-01
  weight for this iteration     100.00

 eigenvalues of (default mixing * dielectric matrix)
  average eigenvalue GAMMA=   1.6823
  2.5033  1.2718  1.2718

 Free energy of the ion-electron system (eV)
  ---------------------------------------------------
  alpha Z        PSCENC =        87.52689448
  Ewald energy   TEWEN  =     -1418.71289224
  -Hartree energ DENC   =      -136.39444233
  -exchange      EXHF   =         0.00000000
  -V(xc)+E(xc)   XCENC  =       -32.12401074
  PAW double counting   =      1923.33513026    -1810.90833462
  entropy T*S    EENTRO =        -0.00000000
  eigenvalues    EBANDS =       -94.62355991
  atomic energy  EATOM  =      1448.49460871
  Solvation  Ediel_sol  =         0.00000000
  ---------------------------------------------------
  free energy    TOTEN  =       -33.40660640 eV

  energy without entropy =      -33.40660640  energy(sigma->0) =      -33.40660640


--------------------------------------------------------------------------------------------------------




--------------------------------------- Iteration      1(   9)  ---------------------------------------


    POTLOK:  cpu time      0.0102: real time      0.0103
    SETDIJ:  cpu time      0.2187: real time      0.2192
     EDDAV:  cpu time      0.4341: real time      0.4366
       DOS:  cpu time      0.0006: real time      0.0006
    CHARGE:  cpu time      0.0087: real time      0.0088
    MIXING:  cpu time      0.0006: real time      0.0006
    --------------------------------------------
      LOOP:  cpu time      0.6728: real time      0.6761

 eigenvalue-minimisations  :  3264
 total energy-change (2. order) :-0.3475680E-03  (-0.2857257E-03)
 number of electron      40.0000003 magnetization 
 augmentation part       -7.3531500 magnetization 

 Broyden mixing:
  rms(total) = 0.67486E-02    rms(broyden)= 0.67486E-02
  rms(prec ) = 0.75364E-02
  weight for this iteration     100.00

 eigenvalues of (default mixing * dielectric matrix)
  average eigenvalue GAMMA=   1.7276
  2.2877  2.2877  1.1675  1.1675

 Free energy of the ion-electron system (eV)
  ---------------------------------------------------
  alpha Z        PSCENC =        87.52689448
  Ewald energy   TEWEN  =     -1418.71289224
  -Hartree energ DENC   =      -136.70292820
  -exchange      EXHF   =         0.00000000
  -V(xc)+E(xc)   XCENC  =       -32.08516616
  PAW double counting   =      1937.24275003    -1824.82509346
  entropy T*S    EENTRO =        -0.00000000
  eigenvalues    EBANDS =       -94.34512712
  atomic energy  EATOM  =      1448.49460871
  Solvation  Ediel_sol  =         0.00000000
  ---------------------------------------------------
  free energy    TOTEN  =       -33.40695397 eV

  energy without entropy =      -33.40695397  energy(sigma->0) =      -33.40695397


--------------------------------------------------------------------------------------------------------




--------------------------------------- Iteration      1(  10)  ---------------------------------------


    POTLOK:  cpu time      0.0101: real time      0.0102
    SETDIJ:  cpu time      0.2181: real time      0.2187
     EDDAV:  cpu time      0.4716: real time      0.4742
       DOS:  cpu time      0.0006: real time      0.0006
    CHARGE:  cpu time      0.0084: real time      0.0085
    MIXING:  cpu time      0.0006: real time      0.0006
    --------------------------------------------
      LOOP:  cpu time      0.7094: real time      0.7128

 eigenvalue-minimisations  :  3280
 total energy-change (2. order) :-0.1170193E-03  (-0.2558217E-04)
 number of electron      40.0000003 magnetization 
 augmentation part       -7.3530812 magnetization 

 Broyden mixing:
  rms(total) = 0.23018E-02    rms(broyden)= 0.23018E-02
  rms(prec ) = 0.28407E-02
  weight for this iteration     100.00

 eigenvalues of (default mixing * dielectric matrix)
  average eigenvalue GAMMA=   1.7352
  2.6681  2.3662  1.2243  1.2087  1.2087

 Free energy of the ion-electron system (eV)
  ---------------------------------------------------
  alpha Z        PSCENC =        87.52689448
  Ewald energy   TEWEN  =     -1418.71289224
  -Hartree energ DENC   =      -136.74648055
  -exchange      EXHF   =         0.00000000
  -V(xc)+E(xc)   XCENC  =       -32.08059057
  PAW double counting   =      1930.94391747    -1818.52144251
  entropy T*S    EENTRO =        -0.00000000
  eigenvalues    EBANDS =       -94.31108578
  atomic energy  EATOM  =      1448.49460871
  Solvation  Ediel_sol  =         0.00000000
  ---------------------------------------------------
  free energy    TOTEN  =       -33.40707099 eV

  energy without entropy =      -33.40707099  energy(sigma->0) =      -33.40707099


--------------------------------------------------------------------------------------------------------




--------------------------------------- Iteration      1(  11)  ---------------------------------------


    POTLOK:  cpu time      0.0101: real time      0.0102
    SETDIJ:  cpu time      0.2241: real time      0.2246
     EDDAV:  cpu time      0.4704: real time      0.4774
       DOS:  cpu time      0.0006: real time      0.0006
    CHARGE:  cpu time      0.0097: real time      0.0097
    MIXING:  cpu time      0.0011: real time      0.0011
    --------------------------------------------
      LOOP:  cpu time      0.7159: real time      0.7236

 eigenvalue-minimisations  :  2976
 total energy-change (2. order) :-0.2717558E-04  (-0.3528596E-05)
 number of electron      40.0000003 magnetization 
 augmentation part       -7.3532205 magnetization 

 Broyden mixing:
  rms(total) = 0.11301E-02    rms(broyden)= 0.11301E-02
  rms(prec ) = 0.12490E-02
  weight for this iteration     100.00

 eigenvalues of (default mixing * dielectric matrix)
  average eigenvalue GAMMA=   1.7194
  2.5084  2.2568  2.2568  1.1909  1.1909  0.9126

 Free energy of the ion-electron system (eV)
  ---------------------------------------------------
  alpha Z        PSCENC =        87.52689448
  Ewald energy   TEWEN  =     -1418.71289224
  -Hartree energ DENC   =      -136.77581751
  -exchange      EXHF   =         0.00000000
  -V(xc)+E(xc)   XCENC  =       -32.07460306
  PAW double counting   =      1932.44786620    -1820.02571940
  entropy T*S    EENTRO =        -0.00000000
  eigenvalues    EBANDS =       -94.28743534
  atomic energy  EATOM  =      1448.49460871
  Solvation  Ediel_sol  =         0.00000000
  ---------------------------------------------------
  free energy    TOTEN  =       -33.40709816 eV

  energy without entropy =      -33.40709816  energy(sigma->0) =      -33.40709816


--------------------------------------------------------------------------------------------------------




--------------------------------------- Iteration      1(  12)  ---------------------------------------


    POTLOK:  cpu time      0.0113: real time      0.0115
    SETDIJ:  cpu time      0.2192: real time      0.2200
     EDDAV:  cpu time      0.4668: real time      0.4697
       DOS:  cpu time      0.0006: real time      0.0006
    CHARGE:  cpu time      0.0085: real time      0.0087
    MIXING:  cpu time      0.0006: real time      0.0006
    --------------------------------------------
      LOOP:  cpu time      0.7072: real time      0.7111

 eigenvalue-minimisations  :  3424
 total energy-change (2. order) :-0.1711000E-05  (-0.5551106E-06)
 number of electron      40.0000003 magnetization 
 augmentation part       -7.3531170 magnetization 

 Broyden mixing:
  rms(total) = 0.38220E-03    rms(broyden)= 0.38220E-03
  rms(prec ) = 0.43951E-03
  weight for this iteration     100.00

 eigenvalues of (default mixing * dielectric matrix)
  average eigenvalue GAMMA=   1.7176
  2.9736  2.4658  1.9220  0.9946  1.3524  1.1573  1.1573

 Free energy of the ion-electron system (eV)
  ---------------------------------------------------
  alpha Z        PSCENC =        87.52689448
  Ewald energy   TEWEN  =     -1418.71289224
  -Hartree energ DENC   =      -136.79013017
  -exchange      EXHF   =         0.00000000
  -V(xc)+E(xc)   XCENC  =       -32.07354352
  PAW double counting   =      1931.98088592    -1819.55864314
  entropy T*S    EENTRO =        -0.00000000
  eigenvalues    EBANDS =       -94.27427990
  atomic energy  EATOM  =      1448.49460871
  Solvation  Ediel_sol  =         0.00000000
  ---------------------------------------------------
  free energy    TOTEN  =       -33.40709987 eV

  energy without entropy =      -33.40709987  energy(sigma->0) =      -33.40709987


--------------------------------------------------------------------------------------------------------




--------------------------------------- Iteration      1(  13)  ---------------------------------------


    POTLOK:  cpu time      0.0101: real time      0.0102
    SETDIJ:  cpu time      0.2184: real time      0.2189
     EDDAV:  cpu time      0.3255: real time      0.3273
       DOS:  cpu time      0.0006: real time      0.0006
    --------------------------------------------
      LOOP:  cpu time      0.5546: real time      0.5570

 eigenvalue-minimisations  :  1984
 total energy-change (2. order) :-0.2670249E-06  (-0.1354754E-06)
 number of electron      40.0000003 magnetization 
 augmentation part       -7.3531170 magnetization 

 Free energy of the ion-electron system (eV)
  ---------------------------------------------------
  alpha Z        PSCENC =        87.52689448
  Ewald energy   TEWEN  =     -1418.71289224
  -Hartree energ DENC   =      -136.79406674
  -exchange      EXHF   =         0.00000000
  -V(xc)+E(xc)   XCENC  =       -32.07305484
  PAW double counting   =      1931.68668697    -1819.26415172
  entropy T*S    EENTRO =        -0.00000000
  eigenvalues    EBANDS =       -94.27112475
  atomic energy  EATOM  =      1448.49460871
  Solvation  Ediel_sol  =         0.00000000
  ---------------------------------------------------
  free energy    TOTEN  =       -33.40710014 eV

  energy without entropy =      -33.40710014  energy(sigma->0) =      -33.40710014


--------------------------------------------------------------------------------------------------------




 average (electrostatic) potential at core
  the test charge radii are     1.1631  1.0808
  (the norm of the test charge is              1.0000)
       1 -33.4530       2 -33.4530       3 -33.4530       4 -33.4530       5 -54.9844
       6 -54.9844       7 -54.9844       8 -54.9844
 
 
 
 E-fermi :   3.5022     XC(G=0):  -9.2798     alpha+bet : -8.7197

 Fermi energy:         3.5021861514

 k-point     1 :       0.0000    0.0000    0.0000
  band No.  band energies     occupation 
      1     -10.9698      2.00000
      2     -10.6570      2.00000
      3      -9.6966      2.00000
      4      -9.2677      2.00000
      5      -4.8999      2.00000
      6      -4.0012      2.00000
      7      -2.9390      2.00000
      8      -2.3446      2.00000
      9      -1.6651      2.00000
     10      -0.3825      2.00000
     11      -0.0237      2.00000
     12       0.0367      2.00000
     13       0.1394      2.00000
     14       0.5124      2.00000
     15       1.3476      2.00000
     16       1.4863      2.00000
     17       1.8803      2.00000
     18       2.2487      2.00000
     19       2.4893      2.00000
     20       3.0595      2.00000
     21       3.7118      0.00000
     22       5.3077      0.00000
     23       5.8657      0.00000
     24       6.0113      0.00000
     25       6.4369      0.00000
     26       6.6815      0.00000
     27       7.4132      0.00000
     28       7.9792      0.00000
     29       8.0117      0.00000
     30       8.0142      0.00000
     31       8.2636      0.00000
     32       9.0070      0.00000

 k-point     2 :       0.1667    0.0000    0.0000
  band No.  band energies     occupation 
      1     -10.7797      2.00000
      2     -10.4816      2.00000
      3      -9.5801      2.00000
      4      -9.2106      2.00000
      5      -5.0741      2.00000
      6      -4.2766      2.00000
      7      -3.1372      2.00000
      8      -2.8997      2.00000
      9      -1.6579      2.00000
     10      -0.2664      2.00000
     11      -0.2169      2.00000
     12       0.1257      2.00000
     13       0.2021      2.00000
     14       0.3210      2.00000
     15       1.1765      2.00000
     16       1.3215      2.00000
     17       1.9997      2.00000
     18       2.2532      2.00000
     19       2.4224      2.00000
     20       3.0583      2.00000
     21       3.9073      0.00000
     22       5.2621      0.00000
     23       5.9100      0.00000
     24       6.1378      0.00000
     25       6.3584      0.00000
     26       6.7103      0.00000
     27       6.9094      0.00000
     28       7.4814      0.00000
     29       7.8353      0.00000
     30       7.9681      0.00000
     31       8.0659      0.00000
     32       8.2377      0.00000

 k-point     3 :       0.3333    0.0000    0.0000
  band No.  band energies     occupation 
      1     -10.2598      2.00000
      2     -10.0174      2.00000
      3      -9.3828      2.00000
      4      -9.2102      2.00000
      5      -5.4263      2.00000
      6      -4.7573      2.00000
      7      -4.2629      2.00000
      8      -3.7917      2.00000
      9      -1.2638      2.00000
     10      -0.3031      2.00000
     11      -0.1130      2.00000
     12       0.4604      2.00000
     13       0.5598      2.00000
     14       0.8310      2.00000
     15       1.0513      2.00000
     16       1.3574      2.00000
     17       1.5969      2.00000
     18       2.0866      2.00000
     19       2.5990      2.00000
     20       2.7911      2.00000
     21       4.0591      0.00000
     22       4.3854      0.00000
     23       5.0229      0.00000
     24       5.1734      0.00000
     25       5.4895      0.00000
     26       5.5462      0.00000
     27       6.1763      0.00000
     28       6.7239      0.00000
     29       6.9287      0.00000
     30       7.5753      0.00000
     31       7.6729      0.00000
     32       8.3627      0.00000

 k-point     4 :       0.5000    0.0000    0.0000
  band No.  band energies     occupation 
      1      -9.6106      2.00000
      2      -9.6106      2.00000
      3      -9.5080      2.00000
      4      -9.5080      2.00000
      5      -5.2596      2.00000
      6      -5.2596      2.00000
      7      -4.6219      2.00000
      8      -4.6219      2.00000
      9      -0.5357      2.00000
     10      -0.5357      2.00000
     11       0.3707      2.00000
     12       0.3707      2.00000
     13       1.0491      2.00000
     14       1.0491      2.00000
     15       1.1984      2.00000
     16       1.1984      2.00000
     17       1.6252      2.00000
     18       1.6252      2.00000
     19       2.4605      2.00000
     20       2.4605      2.00000
     21       4.1623      0.00000
     22       4.1623      0.00000
     23       4.6970      0.00000
     24       4.6970      0.00000
     25       5.4212      0.00000
     26       5.4212      0.00000
     27       5.5561      0.00000
     28       5.5561      0.00000
     29       6.4627      0.00000
     30       6.4627      0.00000
     31       7.9201      0.00000
     32       7.9201      0.00000

 k-point     5 :       0.0000    0.1667    0.0000
  band No.  band energies     occupation 
      1     -10.8499      2.00000
      2     -10.5555      2.00000
      3      -9.6922      2.00000
      4      -9.3451      2.00000
      5      -5.1157      2.00000
      6      -4.2163      2.00000
      7      -3.5612      2.00000
      8      -2.6102      2.00000
      9      -1.6895      2.00000
     10       0.0057      2.00000
     11       0.2789      2.00000
     12       0.4659      2.00000
     13       0.5189      2.00000
     14       0.6402      2.00000
     15       1.3989      2.00000
     16       1.7502      2.00000
     17       1.8340      2.00000
     18       2.0396      2.00000
     19       2.5525      2.00000
     20       3.2926      2.00000
     21       3.8974      0.00000
     22       5.3818      0.00000
     23       5.5412      0.00000
     24       5.9022      0.00000
     25       6.0625      0.00000
     26       6.3144      0.00000
     27       6.9183      0.00000
     28       7.4159      0.00000
     29       7.4590      0.00000
     30       8.1075      0.00000
     31       8.4695      0.00000
     32       8.8319      0.00000

 k-point     6 :       0.1667    0.1667    0.0000
  band No.  band energies     occupation 
      1     -10.6664      2.00000
      2     -10.3847      2.00000
      3      -9.5799      2.00000
      4      -9.2769      2.00000
      5      -5.2024      2.00000
      6      -4.3250      2.00000
      7      -3.5891      2.00000
      8      -3.0734      2.00000
      9      -1.5558      2.00000
     10      -0.7947      2.00000
     11      -0.4702      2.00000
     12       0.3028      2.00000
     13       0.6785      2.00000
     14       0.9041      2.00000
     15       1.2165      2.00000
     16       1.3504      2.00000
     17       1.8593      2.00000
     18       2.3390      2.00000
     19       2.6682      2.00000
     20       3.0154      2.00000
     21       4.1272      0.00000
     22       5.1299      0.00000
     23       5.4445      0.00000
     24       5.5011      0.00000
     25       6.5019      0.00000
     26       6.7972      0.00000
     27       6.9346      0.00000
     28       7.5314      0.00000
     29       7.6497      0.00000
     30       7.8234      0.00000
     31       8.2234      0.00000
     32       8.3588      0.00000

 k-point     7 :       0.1667   -0.1667    0.0000
  band No.  band energies     occupation 
      1     -10.6644      2.00000
      2     -10.3867      2.00000
      3      -9.5758      2.00000
      4      -9.2821      2.00000
      5      -5.1794      2.00000
      6      -4.3505      2.00000
      7      -3.6967      2.00000
      8      -2.9302      2.00000
      9      -1.5507      2.00000
     10      -0.8238      2.00000
     11      -0.4097      2.00000
     12       0.2318      2.00000
     13       0.7088      2.00000
     14       0.8654      2.00000
     15       1.1833      2.00000
     16       1.3367      2.00000
     17       1.7690      2.00000
     18       2.4077      2.00000
     19       2.6106      2.00000
     20       3.2482      2.00000
     21       4.1143      0.00000
     22       5.0385      0.00000
     23       5.5006      0.00000
     24       5.5563      0.00000
     25       6.3867      0.00000
     26       6.8198      0.00000
     27       6.8573      0.00000
     28       7.4288      0.00000
     29       7.7204      0.00000
     30       7.7298      0.00000
     31       8.1924      0.00000
     32       8.6951      0.00000

 k-point     8 :       0.3333    0.1667    0.0000
  band No.  band energies     occupation 
      1     -10.1693      2.00000
      2      -9.9395      2.00000
      3      -9.3837      2.00000
      4      -9.2339      2.00000
      5      -5.4012      2.00000
      6      -4.6338      2.00000
      7      -4.2049      2.00000
      8      -3.9682      2.00000
      9      -1.1815      2.00000
     10      -1.0332      2.00000
     11      -0.7933      2.00000
     12       0.0487      2.00000
     13       0.5775      2.00000
     14       0.8718      2.00000
     15       0.9989      2.00000
     16       1.3442      2.00000
     17       1.5183      2.00000
     18       2.0308      2.00000
     19       2.4764      2.00000
     20       2.6471      2.00000
     21       4.1078      0.00000
     22       4.7860      0.00000
     23       4.8523      0.00000
     24       5.7887      0.00000
     25       5.8173      0.00000
     26       6.1288      0.00000
     27       6.4784      0.00000
     28       7.4408      0.00000
     29       7.6222      0.00000
     30       7.9646      0.00000
     31       8.1294      0.00000
     32       8.3958      0.00000

 k-point     9 :       0.3333   -0.1667    0.0000
  band No.  band energies     occupation 
      1     -10.1645      2.00000
      2      -9.9442      2.00000
      3      -9.3738      2.00000
      4      -9.2458      2.00000
      5      -5.3513      2.00000
      6      -4.6882      2.00000
      7      -4.3589      2.00000
      8      -3.7968      2.00000
      9      -1.1661      2.00000
     10      -1.0274      2.00000
     11      -0.7664      2.00000
     12       0.0288      2.00000
     13       0.6292      2.00000
     14       0.7275      2.00000
     15       0.9784      2.00000
     16       1.3087      2.00000
     17       1.5504      2.00000
     18       1.9909      2.00000
     19       2.3402      2.00000
     20       2.9896      2.00000
     21       4.1025      0.00000
     22       4.7407      0.00000
     23       4.8372      0.00000
     24       5.7554      0.00000
     25       5.9416      0.00000
     26       6.2051      0.00000
     27       6.4579      0.00000
     28       7.0518      0.00000
     29       7.4291      0.00000
     30       7.9603      0.00000
     31       8.3809      0.00000
     32       8.5477      0.00000

 k-point    10 :       0.5000    0.1667    0.0000
  band No.  band energies     occupation 
      1      -9.5710      2.00000
      2      -9.5650      2.00000
      3      -9.4755      2.00000
      4      -9.4703      2.00000
      5      -5.2022      2.00000
      6      -5.1355      2.00000
      7      -4.6081      2.00000
      8      -4.5363      2.00000
      9      -0.7469      2.00000
     10      -0.7190      2.00000
     11      -0.1832      2.00000
     12      -0.1712      2.00000
     13       0.2451      2.00000
     14       0.3619      2.00000
     15       0.7517      2.00000
     16       0.7812      2.00000
     17       1.6951      2.00000
     18       1.7407      2.00000
     19       2.5009      2.00000
     20       2.7123      2.00000
     21       4.2466      0.00000
     22       4.2573      0.00000
     23       5.1291      0.00000
     24       5.1788      0.00000
     25       6.2585      0.00000
     26       6.3377      0.00000
     27       6.4466      0.00000
     28       6.4919      0.00000
     29       7.1880      0.00000
     30       7.2094      0.00000
     31       7.6586      0.00000
     32       7.9969      0.00000

 k-point    11 :       0.0000    0.3333    0.0000
  band No.  band energies     occupation 
      1     -10.5156      2.00000
      2     -10.2856      2.00000
      3      -9.7474      2.00000
      4      -9.6097      2.00000
      5      -5.3809      2.00000
      6      -4.5285      2.00000
      7      -4.4230      2.00000
      8      -3.4670      2.00000
      9      -1.2353      2.00000
     10       0.4274      2.00000
     11       0.6689      2.00000
     12       0.9483      2.00000
     13       1.1497      2.00000
     14       1.2487      2.00000
     15       1.4369      2.00000
     16       1.5061      2.00000
     17       1.6795      2.00000
     18       2.8616      2.00000
     19       3.0131      2.00000
     20       3.1733      2.00000
     21       4.5399      0.00000
     22       4.5498      0.00000
     23       4.8669      0.00000
     24       5.5318      0.00000
     25       5.7791      0.00000
     26       5.9215      0.00000
     27       6.3530      0.00000
     28       6.4972      0.00000
     29       6.6753      0.00000
     30       7.3714      0.00000
     31       8.5461      0.00000
     32       9.1413      0.00000

 k-point    12 :       0.1667    0.3333    0.0000
  band No.  band energies     occupation 
      1     -10.3512      2.00000
      2     -10.1304      2.00000
      3      -9.6357      2.00000
      4      -9.5120      2.00000
      5      -5.3334      2.00000
      6      -4.4393      2.00000
      7      -4.3598      2.00000
      8      -3.5857      2.00000
      9      -1.1044      2.00000
     10      -0.8070      2.00000
     11      -0.4103      2.00000
     12       0.1257      2.00000
     13       0.5349      2.00000
     14       0.6899      2.00000
     15       1.2714      2.00000
     16       1.7175      2.00000
     17       2.3055      2.00000
     18       2.4224      2.00000
     19       2.7475      2.00000
     20       2.9731      2.00000
     21       4.4395      0.00000
     22       5.0574      0.00000
     23       5.5801      0.00000
     24       5.8677      0.00000
     25       5.9225      0.00000
     26       6.1355      0.00000
     27       6.5283      0.00000
     28       7.5460      0.00000
     29       7.6106      0.00000
     30       7.9457      0.00000
     31       8.6262      0.00000
     32       8.6770      0.00000

 k-point    13 :       0.1667   -0.3333    0.0000
  band No.  band energies     occupation 
      1     -10.3469      2.00000
      2     -10.1345      2.00000
      3      -9.6290      2.00000
      4      -9.5198      2.00000
      5      -5.3054      2.00000
      6      -4.4968      2.00000
      7      -4.3884      2.00000
      8      -3.5156      2.00000
      9      -1.0666      2.00000
     10      -0.8457      2.00000
     11      -0.3359      2.00000
     12       0.0701      2.00000
     13       0.5494      2.00000
     14       0.5783      2.00000
     15       1.2949      2.00000
     16       1.7193      2.00000
     17       2.3419      2.00000
     18       2.3467      2.00000
     19       2.7123      2.00000
     20       3.1594      2.00000
     21       4.4321      0.00000
     22       5.0184      0.00000
     23       5.4238      0.00000
     24       5.8596      0.00000
     25       5.9189      0.00000
     26       6.4022      0.00000
     27       6.6469      0.00000
     28       7.3106      0.00000
     29       7.5635      0.00000
     30       7.7571      0.00000
     31       8.5079      0.00000
     32       9.0414      0.00000

 k-point    14 :       0.3333    0.3333    0.0000
  band No.  band energies     occupation 
      1      -9.9242      2.00000
      2      -9.7446      2.00000
      3      -9.4163      2.00000
      4      -9.3517      2.00000
      5      -5.2608      2.00000
      6      -4.4327      2.00000
      7      -4.3812      2.00000
      8      -4.1139      2.00000
      9      -1.6293      2.00000
     10      -1.2143      2.00000
     11      -1.1191      2.00000
     12      -0.5776      2.00000
     13      -0.0849      2.00000
     14       0.3651      2.00000
     15       0.4159      2.00000
     16       1.0251      2.00000
     17       1.2487      2.00000
     18       1.9088      2.00000
     19       2.5272      2.00000
     20       2.5450      2.00000
     21       4.2184      0.00000
     22       5.6226      0.00000
     23       5.8017      0.00000
     24       6.5119      0.00000
     25       6.6446      0.00000
     26       7.3189      0.00000
     27       7.5977      0.00000
     28       8.0276      0.00000
     29       8.1284      0.00000
     30       8.4178      0.00000
     31       8.7574      0.00000
     32       9.3731      0.00000

 k-point    15 :       0.3333   -0.3333    0.0000
  band No.  band energies     occupation 
      1      -9.9140      2.00000
      2      -9.7544      2.00000
      3      -9.3996      2.00000
      4      -9.3706      2.00000
      5      -5.1814      2.00000
      6      -4.6070      2.00000
      7      -4.4697      2.00000
      8      -3.9195      2.00000
      9      -1.6414      2.00000
     10      -1.1681      2.00000
     11      -1.0866      2.00000
     12      -0.5866      2.00000
     13      -0.1118      2.00000
     14       0.2834      2.00000
     15       0.4975      2.00000
     16       0.9763      2.00000
     17       1.0864      2.00000
     18       1.9778      2.00000
     19       2.3161      2.00000
     20       2.9978      2.00000
     21       4.1888      0.00000
     22       5.5199      0.00000
     23       5.6785      0.00000
     24       6.6210      0.00000
     25       6.8087      0.00000
     26       7.2282      0.00000
     27       7.4304      0.00000
     28       7.6954      0.00000
     29       8.1676      0.00000
     30       8.7390      0.00000
     31       8.7784      0.00000
     32       9.3875      0.00000

 k-point    16 :       0.5000    0.3333    0.0000
  band No.  band energies     occupation 
      1      -9.4849      2.00000
      2      -9.4705      2.00000
      3      -9.4075      2.00000
      4      -9.3946      2.00000
      5      -5.0507      2.00000
      6      -4.8948      2.00000
      7      -4.5468      2.00000
      8      -4.3789      2.00000
      9      -1.2731      2.00000
     10      -1.2497      2.00000
     11      -0.9702      2.00000
     12      -0.9569      2.00000
     13      -0.3642      2.00000
     14      -0.3124      2.00000
     15       0.3191      2.00000
     16       0.3952      2.00000
     17       1.0173      2.00000
     18       1.0987      2.00000
     19       2.3194      2.00000
     20       2.7432      2.00000
     21       4.9275      0.00000
     22       4.9526      0.00000
     23       6.2730      0.00000
     24       6.4296      0.00000
     25       7.2193      0.00000
     26       7.3184      0.00000
     27       7.8306      0.00000
     28       7.9724      0.00000
     29       8.3471      0.00000
     30       8.5100      0.00000
     31       8.8731      0.00000
     32       8.9484      0.00000

 k-point    17 :       0.0000    0.5000    0.0000
  band No.  band energies     occupation 
      1     -10.0540      2.00000
      2     -10.0540      2.00000
      3      -9.9587      2.00000
      4      -9.9587      2.00000
      5      -5.2126      2.00000
      6      -5.2126      2.00000
      7      -4.1713      2.00000
      8      -4.1713      2.00000
      9      -0.4627      2.00000
     10      -0.4627      2.00000
     11       1.1768      2.00000
     12       1.1768      2.00000
     13       1.3424      2.00000
     14       1.3424      2.00000
     15       1.6877      2.00000
     16       1.6877      2.00000
     17       2.4645      2.00000
     18       2.4645      2.00000
     19       2.9788      2.00000
     20       2.9788      2.00000
     21       4.7369      0.00000
     22       4.7369      0.00000
     23       5.0697      0.00000
     24       5.0697      0.00000
     25       5.5814      0.00000
     26       5.5814      0.00000
     27       5.8819      0.00000
     28       5.8819      0.00000
     29       6.5772      0.00000
     30       6.5772      0.00000
     31       9.0817      0.00000
     32       9.0817      0.00000

 k-point    18 :       0.1667    0.5000    0.0000
  band No.  band energies     occupation 
      1      -9.9219      2.00000
      2      -9.9158      2.00000
      3      -9.8324      2.00000
      4      -9.8267      2.00000
      5      -5.1206      2.00000
      6      -5.0865      2.00000
      7      -4.1333      2.00000
      8      -4.0974      2.00000
      9      -0.4112      2.00000
     10      -0.4083      2.00000
     11      -0.3532      2.00000
     12      -0.2737      2.00000
     13       0.1026      2.00000
     14       0.1334      2.00000
     15       1.5174      2.00000
     16       1.6016      2.00000
     17       2.4197      2.00000
     18       2.6280      2.00000
     19       2.8858      2.00000
     20       2.9073      2.00000
     21       4.7572      0.00000
     22       4.7945      0.00000
     23       5.5846      0.00000
     24       5.7213      0.00000
     25       6.2513      0.00000
     26       6.2744      0.00000
     27       6.8997      0.00000
     28       7.0469      0.00000
     29       7.4967      0.00000
     30       7.5748      0.00000
     31       8.6939      0.00000
     32       8.9971      0.00000

[...]
     32       8.2199      0.00000

 k-point    32 :       0.1667    0.3333    0.5000
  band No.  band energies     occupation 
      1     -10.2554      2.00000
      2     -10.2554      2.00000
      3      -9.5588      2.00000
      4      -9.5588      2.00000
      5      -5.0196      2.00000
      6      -5.0196      2.00000
      7      -3.8987      2.00000
      8      -3.8987      2.00000
      9      -0.6843      2.00000
     10      -0.6843      2.00000
     11      -0.1834      2.00000
     12      -0.1834      2.00000
     13       0.5041      2.00000
     14       0.5041      2.00000
     15       1.3411      2.00000
     16       1.3411      2.00000
     17       2.4018      2.00000
     18       2.4018      2.00000
     19       2.6113      2.00000
     20       2.6113      2.00000
     21       5.2827      0.00000
     22       5.2828      0.00000
     23       5.6770      0.00000
     24       5.6770      0.00000
     25       6.2559      0.00000
     26       6.2559      0.00000
     27       6.8096      0.00000
     28       6.8096      0.00000
     29       7.7105      0.00000
     30       7.7105      0.00000
     31       8.1671      0.00000
     32       8.1671      0.00000

 k-point    33 :       0.1667   -0.3333    0.5000
  band No.  band energies     occupation 
      1     -10.2540      2.00000
      2     -10.2540      2.00000
      3      -9.5607      2.00000
      4      -9.5607      2.00000
      5      -5.0167      2.00000
      6      -5.0167      2.00000
      7      -3.9040      2.00000
      8      -3.9040      2.00000
      9      -0.7143      2.00000
     10      -0.7143      2.00000
     11      -0.1201      2.00000
     12      -0.1201      2.00000
     13       0.5292      2.00000
     14       0.5292      2.00000
     15       1.2725      2.00000
     16       1.2725      2.00000
     17       2.4180      2.00000
     18       2.4180      2.00000
     19       2.5968      2.00000
     20       2.5968      2.00000
     21       5.2521      0.00000
     22       5.2521      0.00000
     23       5.6845      0.00000
     24       5.6845      0.00000
     25       6.2238      0.00000
     26       6.2238      0.00000
     27       6.9571      0.00000
     28       6.9571      0.00000
     29       7.6065      0.00000
     30       7.6065      0.00000
     31       8.2576      0.00000
     32       8.2576      0.00000

 k-point    34 :       0.3333    0.3333    0.5000
  band No.  band energies     occupation 
      1      -9.8452      2.00000
      2      -9.8452      2.00000
      3      -9.3739      2.00000
      4      -9.3739      2.00000
      5      -4.9399      2.00000
      6      -4.9399      2.00000
      7      -4.1907      2.00000
      8      -4.1907      2.00000
      9      -1.4334      2.00000
     10      -1.4334      2.00000
     11      -0.6899      2.00000
     12      -0.6899      2.00000
     13       0.0540      2.00000
     14       0.0540      2.00000
     15       0.6313      2.00000
     16       0.6313      2.00000
     17       1.6506      2.00000
     18       1.6506      2.00000
     19       2.3235      2.00000
     20       2.3235      2.00000
     21       5.4918      0.00000
     22       5.4918      0.00000
     23       5.9176      0.00000
     24       5.9176      0.00000
     25       6.7131      0.00000
     26       6.7131      0.00000
     27       7.7746      0.00000
     28       7.7746      0.00000
     29       7.9354      0.00000
     30       7.9354      0.00000
     31       9.3567      0.00000
     32       9.3567      0.00000

 k-point    35 :       0.3333   -0.3333    0.5000
  band No.  band energies     occupation 
      1      -9.8420      2.00000
      2      -9.8420      2.00000
      3      -9.3780      2.00000
      4      -9.3780      2.00000
      5      -4.9278      2.00000
      6      -4.9278      2.00000
      7      -4.2072      2.00000
      8      -4.2072      2.00000
      9      -1.4565      2.00000
     10      -1.4565      2.00000
     11      -0.6123      2.00000
     12      -0.6123      2.00000
     13       0.0280      2.00000
     14       0.0280      2.00000
     15       0.6201      2.00000
     16       0.6201      2.00000
     17       1.6731      2.00000
     18       1.6731      2.00000
     19       2.2530      2.00000
     20       2.2530      2.00000
     21       5.5813      0.00000
     22       5.5813      0.00000
     23       5.9071      0.00000
     24       5.9071      0.00000
     25       6.7291      0.00000
     26       6.7291      0.00000
     27       7.7433      0.00000
     28       7.7433      0.00000
     29       7.8719      0.00000
     30       7.8719      0.00000
     31       9.3965      0.00000
     32       9.3965      0.00000

 k-point    36 :       0.5000    0.3333    0.5000
  band No.  band energies     occupation 
      1      -9.4529      2.00000
      2      -9.4529      2.00000
      3      -9.4274      2.00000
      4      -9.4274      2.00000
      5      -4.8432      2.00000
      6      -4.8432      2.00000
      7      -4.6264      2.00000
      8      -4.6264      2.00000
      9      -1.0697      2.00000
     10      -1.0697      2.00000
     11      -1.0064      2.00000
     12      -1.0064      2.00000
     13      -0.2103      2.00000
     14      -0.2103      2.00000
     15      -0.1154      2.00000
     16      -0.1154      2.00000
     17       1.7872      2.00000
     18       1.7872      2.00000
     19       1.8610      2.00000
     20       1.8610      2.00000
     21       5.6830      0.00000
     22       5.6830      0.00000
     23       5.9924      0.00000
     24       5.9924      0.00000
     25       7.0421      0.00000
     26       7.0421      0.00000
     27       7.2472      0.00000
     28       7.2472      0.00000
     29       8.7920      0.00000
     30       8.7920      0.00000
     31       8.8953      0.00000
     32       8.8953      0.00000

 k-point    37 :       0.0000    0.5000    0.5000
  band No.  band energies     occupation 
      1     -10.0256      2.00000
      2     -10.0256      2.00000
      3      -9.9892      2.00000
      4      -9.9892      2.00000
      5      -5.0919      2.00000
      6      -5.0919      2.00000
      7      -4.3741      2.00000
      8      -4.3741      2.00000
      9       0.3601      2.00000
     10       0.3601      2.00000
     11       0.6240      2.00000
     12       0.6240      2.00000
     13       1.1919      2.00000
     14       1.1919      2.00000
     15       1.3303      2.00000
     16       1.3303      2.00000
     17       2.7009      2.00000
     18       2.7009      2.00000
     19       2.7575      2.00000
     20       2.7575      2.00000
     21       4.8877      0.00000
     22       4.8877      0.00000
     23       4.9068      0.00000
     24       4.9068      0.00000
     25       5.8750      0.00000
     26       5.8750      0.00000
     27       6.4567      0.00000
     28       6.4567      0.00000
     29       6.7714      0.00000
     30       6.7714      0.00000
     31       8.0055      0.00000
     32       8.0055      0.00000

 k-point    38 :       0.1667    0.5000    0.5000
  band No.  band energies     occupation 
      1      -9.8903      2.00000
      2      -9.8903      2.00000
      3      -9.8599      2.00000
      4      -9.8599      2.00000
      5      -4.9940      2.00000
      6      -4.9940      2.00000
      7      -4.2940      2.00000
      8      -4.2940      2.00000
      9      -0.3696      2.00000
     10      -0.3696      2.00000
     11      -0.1032      2.00000
     12      -0.1032      2.00000
     13       0.6348      2.00000
     14       0.6348      2.00000
     15       0.7700      2.00000
     16       0.7700      2.00000
     17       2.4570      2.00000
     18       2.4570      2.00000
     19       2.6222      2.00000
     20       2.6222      2.00000
     21       5.5728      0.00000
     22       5.5728      0.00000
     23       5.8257      0.00000
     24       5.8257      0.00000
     25       6.2001      0.00000
     26       6.2001      0.00000
     27       6.7855      0.00000
     28       6.7855      0.00000
     29       7.7261      0.00000
     30       7.7261      0.00000
     31       7.9743      0.00000
     32       7.9743      0.00000

 k-point    39 :       0.3333    0.5000    0.5000
  band No.  band energies     occupation 
      1      -9.5830      2.00000
      2      -9.5830      2.00000
      3      -9.5642      2.00000
      4      -9.5642      2.00000
      5      -4.8324      2.00000
      6      -4.8324      2.00000
      7      -4.3140      2.00000
      8      -4.3140      2.00000
      9      -1.3887      2.00000
     10      -1.3887      2.00000
     11      -1.1551      2.00000
     12      -1.1551      2.00000
     13       0.1270      2.00000
     14       0.1270      2.00000
     15       0.2856      2.00000
     16       0.2856      2.00000
     17       1.6794      2.00000
     18       1.6794      2.00000
     19       1.9838      2.00000
     20       1.9838      2.00000
     21       5.8234      0.00000
     22       5.8234      0.00000
     23       6.4287      0.00000
     24       6.4287      0.00000
     25       7.2874      0.00000
     26       7.2874      0.00000
     27       7.5723      0.00000
     28       7.5723      0.00000
     29       9.0292      0.00000
     30       9.0292      0.00000
     31       9.1757      0.00000
     32       9.1757      0.00000

 k-point    40 :       0.5000    0.5000    0.5000
  band No.  band energies     occupation 
      1      -9.4065      2.00000
      2      -9.4065      2.00000
      3      -9.3888      2.00000
      4      -9.3888      2.00000
      5      -4.7618      2.00000
      6      -4.7618      2.00000
      7      -4.5436      2.00000
      8      -4.5436      2.00000
      9      -1.2411      2.00000
     10      -1.2411      2.00000
     11      -1.1952      2.00000
     12      -1.1952      2.00000
     13      -0.6524      2.00000
     14      -0.6524      2.00000
     15      -0.5510      2.00000
     16      -0.5510      2.00000
     17       1.8070      2.00000
     18       1.8070      2.00000
     19       1.9069      2.00000
     20       1.9069      2.00000
     21       5.6067      0.00000
     22       5.6067      0.00000
     23       6.0282      0.00000
     24       6.0282      0.00000
     25       7.9529      0.00000
     26       7.9529      0.00000
     27       8.0605      0.00000
     28       8.0605      0.00000
     29       9.6695      0.00000
     30       9.6695      0.00000
     31       9.8792      0.00000
     32       9.8792      0.00000


--------------------------------------------------------------------------------------------------------


 soft charge-density along one line, spin component            1
         0         1         2         3         4         5         6         7         8         9
 total charge-density along one line
 
 pseudopotential strength for first ion, spin component:            1
 14.512  18.106   0.039   0.042   0.000   0.070   0.076   0.000
 18.106  22.604   0.049   0.053   0.000   0.088   0.096   0.000
  0.039   0.049   3.225  -0.002   0.000   5.489  -0.004   0.000
  0.042   0.053  -0.002   3.221  -0.000  -0.004   5.483  -0.000
  0.000   0.000   0.000  -0.000   3.226   0.000  -0.000   5.491
  0.070   0.088   5.489  -0.004   0.000   9.402  -0.006   0.000
  0.076   0.096  -0.004   5.483  -0.000  -0.006   9.391  -0.000
  0.000   0.000   0.000  -0.000   5.491   0.000  -0.000   9.405
  0.000   0.000   0.000   0.000   0.006   0.000   0.000   0.012
 -0.005  -0.006   0.011   0.013   0.000   0.019   0.022   0.000
 -0.005  -0.006  -0.003   0.011   0.000  -0.006   0.020   0.000
 -0.000  -0.000   0.000   0.000   0.011   0.000   0.000   0.019
  0.001   0.002  -0.012   0.000   0.000  -0.021   0.000   0.000
 total augmentation occupancy for first ion, spin component:            1
  2.771  -0.729   0.340   0.329  -0.007  -0.066  -0.056   0.002   0.000  -0.005  -0.002   0.003   0.012
 -0.729   0.679  -0.421  -0.449   0.005   0.067   0.066  -0.001   0.000  -0.003   0.004  -0.002  -0.006
  0.340  -0.421   1.225   0.057   0.000  -0.201  -0.000   0.000  -0.000   0.046  -0.101   0.000   0.002
  0.329  -0.449   0.057   1.374   0.008  -0.001  -0.220  -0.003  -0.001  -0.017   0.092  -0.005  -0.006
 -0.007   0.005   0.000   0.008   1.261   0.000  -0.002  -0.219   0.145   0.001  -0.002   0.035  -0.001
 -0.066   0.067  -0.201  -0.001   0.000   0.037  -0.001  -0.000   0.000  -0.007   0.017  -0.000  -0.000
 -0.056   0.066  -0.000  -0.220  -0.002  -0.001   0.041   0.001  -0.000   0.003  -0.015   0.001   0.001
  0.002  -0.001   0.000  -0.003  -0.219  -0.000   0.001   0.042  -0.026  -0.000   0.000  -0.006   0.000
  0.000   0.000  -0.000  -0.001   0.145   0.000  -0.000  -0.026   0.031  -0.000   0.000   0.003   0.000
 -0.005  -0.003   0.046  -0.017   0.001  -0.007   0.003  -0.000  -0.000   0.012  -0.006  -0.001   0.001
 -0.002   0.004  -0.101   0.092  -0.002   0.017  -0.015   0.000   0.000  -0.006   0.030   0.001  -0.002
  0.003  -0.002   0.000  -0.005   0.035  -0.000   0.001  -0.006   0.003  -0.001   0.001   0.011   0.000
  0.012  -0.006   0.002  -0.006  -0.001  -0.000   0.001   0.000   0.000   0.001  -0.002   0.000   0.009


------------------------ aborting loop because EDIFF is reached ----------------------------------------


    CHARGE:  cpu time      0.0083: real time      0.0084
    FORLOC:  cpu time      0.0004: real time      0.0004
    FORNL :  cpu time      0.0601: real time      0.0607
    STRESS:  cpu time      0.4643: real time      0.4662
    FORCOR:  cpu time      0.0093: real time      0.0093
    FORHAR:  cpu time      0.0032: real time      0.0032
    MIXING:  cpu time      0.0007: real time      0.0007
    OFIELD:  cpu time      0.0000: real time      0.0000

  FORCE on cell =-STRESS in cart. coord.  units (eV):
  Direction    XX          YY          ZZ          XY          YZ          ZX
  --------------------------------------------------------------------------------------
  Alpha Z    87.52689    87.52689    87.52689
  Ewald    -437.30464  -487.04214  -494.36781    -3.22748     0.00000     0.00000
  Hartree    62.09047    45.03630    29.67087    -1.44961    -0.00000     0.00000
  E(xc)    -141.30698  -141.32911  -141.51716    -0.01277     0.00000     0.00000
  Local    -189.25995  -129.02361  -109.43697     5.00349     0.00000     0.00000
  n-local   240.81229   239.87392   241.83518    -0.06752    -0.00000    -0.00000
  augment   -11.41792   -11.81863   -12.10844     0.03124    -0.00000    -0.00000
  Kinetic   390.13979   397.88120   401.07393    -0.49582     0.00000    -0.00000
  Fock        0.00000     0.00000     0.00000     0.00000     0.00000     0.00000
  -------------------------------------------------------------------------------------
  Total       1.27996     1.10482     2.67649    -0.21846     0.00000    -0.00000
  in kB      10.59307     9.14361    22.15086    -1.80800     0.00000    -0.00000
  external pressure =       13.96 kB  Pullay stress =        0.00 kB


 VOLUME and BASIS-vectors are now :
 -----------------------------------------------------------------------------
  energy-cutoff  :      520.00
  volume of cell :      193.59
      direct lattice vectors                 reciprocal lattice vectors
     3.858100176  0.000000000  0.000000000     0.259194929  0.000000000  0.000000000
     0.000000000  4.526575088  0.000000000     0.000000000  0.220917577  0.000000000
     0.000000000  0.000000000 11.085176468     0.000000000  0.000000000  0.090210562

  length of vectors
     3.858100176  4.526575088 11.085176468     0.259194929  0.220917577  0.090210562


 FORCES acting on ions
    electron-ion (+dipol)            ewald-force                    non-local-force                 convergence-correction
 -----------------------------------------------------------------------------------------------
   -.366E+00 0.138E+02 0.221E+02   0.319E+00 -.162E+02 -.248E+02   0.178E-01 0.229E+01 0.301E+01   -.441E-04 0.573E-04 -.660E-03
   -.366E+00 0.138E+02 -.221E+02   0.319E+00 -.162E+02 0.248E+02   0.178E-01 0.229E+01 -.301E+01   -.446E-04 0.572E-04 0.660E-03
   0.366E+00 -.138E+02 -.221E+02   -.319E+00 0.162E+02 0.248E+02   -.178E-01 -.229E+01 -.301E+01   0.442E-04 -.573E-04 0.659E-03
   0.366E+00 -.138E+02 0.221E+02   -.319E+00 0.162E+02 -.248E+02   -.178E-01 -.229E+01 0.301E+01   0.445E-04 -.572E-04 -.660E-03
   0.110E+00 -.179E+02 -.270E+02   -.468E-01 0.195E+02 0.285E+02   -.580E-01 -.134E+01 -.184E+01   0.939E-04 -.454E-03 0.950E-03
   0.110E+00 -.179E+02 0.270E+02   -.468E-01 0.195E+02 -.285E+02   -.580E-01 -.134E+01 0.184E+01   0.927E-04 -.453E-03 -.947E-03
   -.110E+00 0.179E+02 0.270E+02   0.468E-01 -.195E+02 -.285E+02   0.582E-01 0.134E+01 0.184E+01   -.940E-04 0.454E-03 -.948E-03
   -.110E+00 0.179E+02 -.270E+02   0.468E-01 -.195E+02 0.285E+02   0.582E-01 0.134E+01 -.184E+01   -.930E-04 0.455E-03 0.947E-03
 -----------------------------------------------------------------------------------------------
   0.942E-05 0.527E-05 -.585E-05   -.369E-14 -.355E-14 -.107E-13   0.328E-03 0.607E-04 0.186E-05   -.371E-06 0.790E-06 0.161E-05
 
 
 POSITION                                       TOTAL-FORCE (eV/Angst)
 -----------------------------------------------------------------------------------
      0.74087      3.66550      1.36328        -0.028767     -0.036541      0.394142
      2.66992      1.40221      4.17930        -0.028767     -0.036541     -0.394143
      2.89358      4.01000      9.72189         0.028683      0.036526     -0.394165
      0.96453      1.74671      6.90587         0.028683      0.036526      0.394166
      0.74087      3.11864      3.90621         0.005641      0.244672     -0.255525
      2.66992      0.85535      1.63637         0.005641      0.244671      0.255525
      2.89358      0.03028      7.17896        -0.005558     -0.244657      0.255477
      0.96453      2.29357      9.44880        -0.005557     -0.244658     -0.255478
 -----------------------------------------------------------------------------------
    total drift:                                0.000337      0.000067     -0.000002


--------------------------------------------------------------------------------------------------------



  FREE ENERGIE OF THE ION-ELECTRON SYSTEM (eV)
  ---------------------------------------------------
  free  energy   TOTEN  =       -33.40710014 eV

  energy  without entropy=      -33.40710014  energy(sigma->0) =      -33.40710014
 


--------------------------------------------------------------------------------------------------------


    POTLOK:  cpu time      0.2300: real time      0.2310


--------------------------------------------------------------------------------------------------------


     LOOP+:  cpu time      8.7911: real time      8.8447
    4ORBIT:  cpu time      0.0000: real time      0.0000

 total amount of memory used by VASP MPI-rank0    41770. kBytes
=======================================================================

   base      :      30000. kBytes
   nonl-proj :       9056. kBytes
   fftplans  :        519. kBytes
   grid      :        766. kBytes
   one-center:         16. kBytes
   wavefun   :       1413. kBytes
 
  
  
 General timing and accounting informations for this job:
 ========================================================
  
                  Total CPU time used (sec):       10.571
                            User time (sec):       10.219
                          System time (sec):        0.352
                         Elapsed time (sec):       10.911
  
                   Maximum memory used (kb):      180556.
                   Average memory used (kb):          N/A
  
                          Minor page faults:        21987
                          Major page faults:           42
                 Voluntary context switches:         2086
