 vasp.6.4.2 20Jul23 (build Oct 12 2023 10:31:02) complex                         
 executed on              LinuxNV date 2025.05.28  06:12:14
 running  128 mpi-ranks, with    1 threads/rank, on    2 nodes
 distrk:  each k-point on   64 cores,    2 groups
 distr:  one band on NCORE=   4 cores,   16 groups


--------------------------------------------------------------------------------------------------------


 INCAR:
   ENCUT = 360.000000
   SIGMA = 0.050000
   EDIFF = 1.00e-06
   ALGO = Normal
   GGA = PE
   PREC = Normal
   SYSTEM = ./
   ICHARG = 2
   ISMEAR = 0
   ISPIN = 1
   ISTART = 0
   ISYM = 0
   KPAR = 2
   LMAXMIX = 4
   NELM = 100
   NPAR = 16
   LASPH = .TRUE.
   LCHARG = .FALSE.
   LWAVE = .FALSE.

 POTCAR:    PAW_PBE Ge 05Jan2001                  
 POTCAR:    PAW_PBE Se 06Sep2000                  
 POTCAR:    PAW_PBE Ge 05Jan2001                  
   VRHFIN =Ge: s2p2                                                                                 
   LEXCH  = PE                                                                                      
   EATOM  =   104.9960 eV,    7.7170 Ry                                                             
                                                                                                    
   TITEL  = PAW_PBE Ge 05Jan2001                                                                    
   LULTRA =        F    use ultrasoft PP ?                                                          
   IUNSCR =        1    unscreen: 0-lin 1-nonlin 2-no                                               
   RPACOR =    2.170    partial core radius                                                         
   POMASS =   72.610; ZVAL   =    4.000    mass and valenz                                          
   RCORE  =    2.300    outmost cutoff radius                                                       
   RWIGS  =    2.300; RWIGS  =    1.217    wigner-seitz radius (au A)                               
   ENMAX  =  173.807; ENMIN  =  130.355 eV                                                          
   ICORE  =        3    local potential                                                             
   LCOR   =        T    correct aug charges                                                         
   LPAW   =        T    paw PP                                                                      
   EAUG   =  385.843                                                                                
   DEXC   =    0.000                                                                                
   RMAX   =    2.342    core radius for proj-oper                                                   
   RAUG   =    1.300    factor for augmentation sphere                                              
   RDEP   =    2.318    radius for radial grids                                                     
   RDEPT  =    2.103    core radius for aug-charge                                                  
                                                                                                    
   Atomic configuration                                                                             
   10 entries                                                                                       
     n  l   j            E        occ.                                                              
     1  0  0.50    -10959.8463   2.0000                                                             
     2  0  0.50     -1371.6056   2.0000                                                             
     2  1  1.50     -1198.4791   6.0000                                                             
     3  0  0.50      -168.4733   2.0000                                                             
     3  1  1.50      -115.6019   6.0000                                                             
     3  2  2.50       -29.3106  10.0000                                                             
     4  0  0.50       -11.7309   2.0000                                                             
     4  1  0.50        -3.8952   2.0000                                                             
     4  2  1.50        -4.0817   0.0000                                                             
     4  3  2.50        -4.0817   0.0000                                                             
   Description                                                                                      
     l       E           TYP  RCUT    TYP  RCUT                                                     
     0    -11.7309493     23  2.300                                                                 
     0     -7.4578696     23  2.300                                                                 
     1     -3.8952261     23  2.300                                                                 
     1      6.1178114     23  2.300                                                                 
     2     -4.0817478     23  2.300                                                                 
     3     -1.3605826      7  2.300                                                                 
  local pseudopotential read in
  partial core-charges read in
  partial kinetic energy density read in
  atomic valenz-charges read in
  non local Contribution for L=            0  read in
    real space projection operators read in
  non local Contribution for L=            0  read in
    real space projection operators read in
  non local Contribution for L=            1  read in
    real space projection operators read in
  non local Contribution for L=            1  read in
    real space projection operators read in
  non local Contribution for L=            2  read in
    real space projection operators read in
    PAW grid and wavefunctions read in
 
   number of l-projection  operators is LMAX  =            5
   number of lm-projection operators is LMMAX =           13
 
 POTCAR:    PAW_PBE Se 06Sep2000                  
   VRHFIN =Se: s2p4                                                                                 
   LEXCH  = PE                                                                                      
   EATOM  =   257.1286 eV,   18.8984 Ry                                                             
                                                                                                    
   TITEL  = PAW_PBE Se 06Sep2000                                                                    
   LULTRA =        F    use ultrasoft PP ?                                                          
   IUNSCR =        1    unscreen: 0-lin 1-nonlin 2-no                                               
   RPACOR =    1.900    partial core radius                                                         
   POMASS =   78.960; ZVAL   =    6.000    mass and valenz                                          
   RCORE  =    2.100    outmost cutoff radius                                                       
   RWIGS  =    2.200; RWIGS  =    1.164    wigner-seitz radius (au A)                               
   ENMAX  =  211.555; ENMIN  =  158.666 eV                                                          
   ICORE  =        3    local potential                                                             
   LCOR   =        T    correct aug charges                                                         
   LPAW   =        T    paw PP                                                                      
   EAUG   =  446.842                                                                                
   DEXC   =    0.000                                                                                
   RMAX   =    2.147    core radius for proj-oper                                                   
   RAUG   =    1.300    factor for augmentation sphere                                              
   RDEP   =    2.177    radius for radial grids                                                     
   RDEPT  =    1.928    core radius for aug-charge                                                  
                                                                                                    
   Atomic configuration                                                                             
   10 entries                                                                                       
     n  l   j            E        occ.                                                              
     1  0  0.50    -12503.4787   2.0000                                                             
     2  0  0.50     -1606.9547   2.0000                                                             
     2  1  1.50     -1413.3140   6.0000                                                             
     3  0  0.50      -213.4885   2.0000                                                             
     3  1  1.50      -152.9538   6.0000                                                             
     3  2  2.50       -53.1221  10.0000                                                             
     4  0  0.50       -17.2865   2.0000                                                             
     4  1  0.50        -6.5110   4.0000                                                             
     4  2  2.50        -6.8029   0.0000                                                             
     4  3  2.50        -6.8029   0.0000                                                             
   Description                                                                                      
     l       E           TYP  RCUT    TYP  RCUT                                                     
     0    -17.2865377     23  2.100                                                                 
     0    -15.3094411     23  2.100                                                                 
     1     -6.5110275     23  2.100                                                                 
     1     -0.0695192     23  2.100                                                                 
     2     -6.8029130     23  2.100                                                                 
     3     -1.3605826      7  2.100                                                                 
  local pseudopotential read in
  partial core-charges read in
  partial kinetic energy density read in
  atomic valenz-charges read in
  non local Contribution for L=            0  read in
    real space projection operators read in
  non local Contribution for L=            0  read in
    real space projection operators read in
  non local Contribution for L=            1  read in
    real space projection operators read in
  non local Contribution for L=            1  read in
    real space projection operators read in
  non local Contribution for L=            2  read in
    real space projection operators read in
    PAW grid and wavefunctions read in
 
   number of l-projection  operators is LMAX  =            5
   number of lm-projection operators is LMMAX =           13
 
  PAW_PBE Ge 05Jan2001                  :
 energy of atom  1       EATOM= -104.9960
 kinetic energy error for atom=    0.0005 (will be added to EATOM!!)
  PAW_PBE Se 06Sep2000                  :
 energy of atom  2       EATOM= -257.1286
 kinetic energy error for atom=    0.0030 (will be added to EATOM!!)
 
 
 POSCAR: Ge Se
  positions in cartesian coordinates
  No initial velocities read in
 exchange correlation table for  LEXCH =        8
   RHO(1)=    0.500       N(1)  =     2000
   RHO(2)=  100.500       N(2)  =     4000
 


--------------------------------------------------------------------------------------------------------


 ion  position               nearest neighbor table
   1  0.099  0.250  0.128-   5 2.59   6 2.61   6 2.61
   2  0.599  0.750  0.372-   6 2.59   5 2.61   5 2.61
   3  0.901  0.750  0.872-   7 2.59   8 2.61   8 2.61
   4  0.401  0.250  0.628-   8 2.59   7 2.61   7 2.61
   5  0.015  0.250  0.358-   1 2.59   2 2.61   2 2.61
   6  0.515  0.750  0.142-   2 2.59   1 2.61   1 2.61
   7  0.985  0.750  0.642-   3 2.59   4 2.61   4 2.61
   8  0.485  0.250  0.858-   4 2.59   3 2.61   3 2.61
 

IMPORTANT INFORMATION: All symmetrisations will be switched off!
NOSYMM: (Re-)initialisation of all symmetry stuff for point group C_1.


----------------------------------------------------------------------------------------

                                     Primitive cell                                     

  volume of cell :     180.4483

  direct lattice vectors                    reciprocal lattice vectors
     4.100000000  0.000000000  0.000000000     0.243902439  0.000000000  0.000000000
     0.000000000  3.950000000  0.000000000     0.000000000  0.253164557  0.000000000
     0.000000000  0.000000000 11.142221000     0.000000000  0.000000000  0.089748713

  length of vectors
     4.100000000  3.950000000 11.142221000     0.243902439  0.253164557  0.089748713

  position of ions in fractional coordinates (direct lattice)
     0.099124278  0.250000000  0.128259278
     0.599124278  0.750000000  0.371740722
     0.900875722  0.750000000  0.871740722
     0.400875722  0.250000000  0.628259278
     0.015250397  0.250000000  0.358319114
     0.515250397  0.750000000  0.141680886
     0.984749603  0.750000000  0.641680886
     0.484749603  0.250000000  0.858319114

  ion indices of the primitive-cell ions
   primitive index   ion index
                 1           1
                 2           2
                 3           3
                 4           4
                 5           5
                 6           6
                 7           7
                 8           8

----------------------------------------------------------------------------------------

 
 
 KPOINTS: KPOINTS created by Atomic Simulation Env

Automatic generation of k-mesh.
 Grid dimensions read from file:
 generate k-points for:    6    6    2

 Generating k-lattice:

  Cartesian coordinates                     Fractional coordinates (reciprocal lattice)
     0.040650407  0.000000000  0.000000000     0.166666667  0.000000000  0.000000000
     0.000000000  0.042194093  0.000000000     0.000000000  0.166666667  0.000000000
     0.000000000  0.000000000  0.044874357     0.000000000  0.000000000  0.500000000

  Length of vectors
     0.040650407  0.042194093  0.044874357

  Shift w.r.t. Gamma in fractional coordinates (k-lattice)
     0.000000000  0.000000000  0.000000000

 
 Subroutine IBZKPT returns following result:
 ===========================================
 
 Found     40 irreducible k-points:
 
 Following reciprocal coordinates:
            Coordinates               Weight
  0.000000  0.000000  0.000000      1.000000
  0.166667  0.000000  0.000000      2.000000
  0.333333  0.000000  0.000000      2.000000
  0.500000  0.000000  0.000000      1.000000
  0.000000  0.166667  0.000000      2.000000
  0.166667  0.166667  0.000000      2.000000
 -0.166667  0.166667  0.000000      2.000000
  0.333333  0.166667  0.000000      2.000000
 -0.333333  0.166667  0.000000      2.000000
  0.500000  0.166667  0.000000      2.000000
  0.000000  0.333333  0.000000      2.000000
  0.166667  0.333333  0.000000      2.000000
 -0.166667  0.333333  0.000000      2.000000
  0.333333  0.333333  0.000000      2.000000
 -0.333333  0.333333  0.000000      2.000000
  0.500000  0.333333  0.000000      2.000000
  0.000000  0.500000  0.000000      1.000000
  0.166667  0.500000  0.000000      2.000000
  0.333333  0.500000  0.000000      2.000000
  0.500000  0.500000  0.000000      1.000000
  0.000000  0.000000  0.500000      1.000000
  0.166667  0.000000  0.500000      2.000000
  0.333333  0.000000  0.500000      2.000000
  0.500000  0.000000  0.500000      1.000000
  0.000000  0.166667  0.500000      2.000000
  0.166667  0.166667  0.500000      2.000000
 -0.166667  0.166667  0.500000      2.000000
  0.333333  0.166667  0.500000      2.000000
 -0.333333  0.166667  0.500000      2.000000
  0.500000  0.166667  0.500000      2.000000
  0.000000  0.333333  0.500000      2.000000
  0.166667  0.333333  0.500000      2.000000
 -0.166667  0.333333  0.500000      2.000000
  0.333333  0.333333  0.500000      2.000000
 -0.333333  0.333333  0.500000      2.000000
  0.500000  0.333333  0.500000      2.000000
  0.000000  0.500000  0.500000      1.000000
  0.166667  0.500000  0.500000      2.000000
  0.333333  0.500000  0.500000      2.000000
  0.500000  0.500000  0.500000      1.000000
 
 Following cartesian coordinates:
            Coordinates               Weight
  0.000000  0.000000  0.000000      1.000000
  0.040650  0.000000  0.000000      2.000000
  0.081301  0.000000  0.000000      2.000000
  0.121951  0.000000  0.000000      1.000000
  0.000000  0.042194  0.000000      2.000000
  0.040650  0.042194  0.000000      2.000000
 -0.040650  0.042194  0.000000      2.000000
  0.081301  0.042194  0.000000      2.000000
 -0.081301  0.042194  0.000000      2.000000
  0.121951  0.042194  0.000000      2.000000
  0.000000  0.084388  0.000000      2.000000
  0.040650  0.084388  0.000000      2.000000
 -0.040650  0.084388  0.000000      2.000000
  0.081301  0.084388  0.000000      2.000000
 -0.081301  0.084388  0.000000      2.000000
  0.121951  0.084388  0.000000      2.000000
  0.000000  0.126582  0.000000      1.000000
  0.040650  0.126582  0.000000      2.000000
  0.081301  0.126582  0.000000      2.000000
  0.121951  0.126582  0.000000      1.000000
  0.000000  0.000000  0.044874      1.000000
  0.040650  0.000000  0.044874      2.000000
  0.081301  0.000000  0.044874      2.000000
  0.121951  0.000000  0.044874      1.000000
  0.000000  0.042194  0.044874      2.000000
  0.040650  0.042194  0.044874      2.000000
 -0.040650  0.042194  0.044874      2.000000
  0.081301  0.042194  0.044874      2.000000
 -0.081301  0.042194  0.044874      2.000000
  0.121951  0.042194  0.044874      2.000000
  0.000000  0.084388  0.044874      2.000000
  0.040650  0.084388  0.044874      2.000000
 -0.040650  0.084388  0.044874      2.000000
  0.081301  0.084388  0.044874      2.000000
 -0.081301  0.084388  0.044874      2.000000
  0.121951  0.084388  0.044874      2.000000
  0.000000  0.126582  0.044874      1.000000
  0.040650  0.126582  0.044874      2.000000
  0.081301  0.126582  0.044874      2.000000
  0.121951  0.126582  0.044874      1.000000
 


--------------------------------------------------------------------------------------------------------




 Dimension of arrays:
   k-points           NKPTS =     40   k-points in BZ     NKDIM =     40   number of bands    NBANDS=     32
   number of dos      NEDOS =    301   number of ions     NIONS =      8
   non local maximal  LDIM  =      5   non local SUM 2l+1 LMDIM =     13
   total plane-waves  NPLWV =  19440
   max r-space proj   IRMAX =      1   max aug-charges    IRDMAX=   6054
   dimension x,y,z NGX =    20 NGY =   18 NGZ =   54
   dimension x,y,z NGXF=    40 NGYF=   36 NGZF=  108
   support grid    NGXF=    40 NGYF=   36 NGZF=  108
   ions per type =               4   4
   NGX,Y,Z   is equivalent  to a cutoff of   8.11,  7.58,  8.06 a.u.
   NGXF,Y,Z  is equivalent  to a cutoff of  16.22, 15.15, 16.11 a.u.

 SYSTEM =  ./                                      
 POSCAR =  Ge Se                                   

 Startparameter for this run:
   NWRITE =      2    write-flag & timer
   PREC   = normal    normal or accurate (medium, high low for compatibility)
   ISTART =      0    job   : 0-new  1-cont  2-samecut
   ICHARG =      2    charge: 1-file 2-atom 10-const
   ISPIN  =      1    spin polarized calculation?
   LNONCOLLINEAR =      F non collinear calculations
   LSORBIT =      F    spin-orbit coupling
   INIWAV =      1    electr: 0-lowe 1-rand  2-diag
   LASPH  =      T    aspherical Exc in radial PAW
 Electronic Relaxation 1
   ENCUT  =  360.0 eV  26.46 Ry    5.14 a.u.   6.34  6.11 17.24*2*pi/ulx,y,z
   ENINI  =  360.0     initial cutoff
   ENAUG  =  446.8 eV  augmentation charge cutoff
   NELM   =    100;   NELMIN=  2; NELMDL= -5     # of ELM steps 
   EDIFF  = 0.1E-05   stopping-criterion for ELM
   LREAL  =      F    real-space projection
   NLSPLINE    = F    spline interpolate recip. space projectors
   LCOMPAT=      F    compatible to vasp.4.4
   GGA_COMPAT  = T    GGA compatible to vasp.4.4-vasp.4.6
   LMAXPAW     = -100 max onsite density
   LMAXMIX     =    4 max onsite mixed and CHGCAR
   VOSKOWN=      0    Vosko Wilk Nusair interpolation
   ROPT   =    0.00000   0.00000
 Ionic relaxation
   EDIFFG = 0.1E-04   stopping-criterion for IOM
   NSW    =      0    number of steps for IOM
   NBLOCK =      1;   KBLOCK =      1    inner block; outer block 
   IBRION =     -1    ionic relax: 0-MD 1-quasi-New 2-CG
   NFREE  =      0    steps in history (QN), initial steepest desc. (CG)
   ISIF   =      2    stress and relaxation
   IWAVPR =     10    prediction:  0-non 1-charg 2-wave 3-comb
   ISYM   =      0    0-nonsym 1-usesym 2-fastsym
   LCORR  =      T    Harris-Foulkes like correction to forces

   POTIM  = 0.5000    time-step for ionic-motion
   TEIN   =    0.0    initial temperature
   TEBEG  =    0.0;   TEEND  =   0.0 temperature during run
   SMASS  =  -3.00    Nose mass-parameter (am)
   estimated Nose-frequenzy (Omega)   =  0.10E-29 period in steps = 0.13E+47 mass=  -0.384E-27a.u.
   SCALEE = 1.0000    scale energy and forces
   NPACO  =    256;   APACO  = 10.0  distance and # of slots for P.C.
   PSTRESS=    0.0 pullay stress

  Mass of Ions in am
   POMASS =  72.61 78.96
  Ionic Valenz
   ZVAL   =   4.00  6.00
  Atomic Wigner-Seitz radii
   RWIGS  =  -1.00 -1.00
  virtual crystal weights 
   VCA    =   1.00  1.00
   NELECT =      40.0000    total number of electrons
   NUPDOWN=      -1.0000    fix difference up-down

 DOS related values:
   EMIN   =  10.00;   EMAX   =-10.00  energy-range for DOS
   EFERMI =   0.00;   METHOD = LEGACY      
   ISMEAR =     0;   SIGMA  =   0.05  broadening in eV -4-tet -1-fermi 0-gaus

 Electronic relaxation 2 (details)
   IALGO  =     38    algorithm
   LDIAG  =      T    sub-space diagonalisation (order eigenvalues)
   LSUBROT=      F    optimize rotation matrix (better conditioning)
   TURBO    =      0    0=normal 1=particle mesh
   IRESTART =      0    0=no restart 2=restart with 2 vectors
   NREBOOT  =      0    no. of reboots
   NMIN     =      0    reboot dimension
   EREF     =   0.00    reference energy to select bands
   IMIX   =      4    mixing-type and parameters
     AMIX     =   0.40;   BMIX     =  1.00
     AMIX_MAG =   1.60;   BMIX_MAG =  1.00
     AMIN     =   0.10
     WC   =   100.;   INIMIX=   1;  MIXPRE=   1;  MAXMIX= -45

 Intra band minimization:
   WEIMIN = 0.0000     energy-eigenvalue tresh-hold
   EBREAK =  0.78E-08  absolut break condition
   DEPER  =   0.30     relativ break condition  

   TIME   =   0.40     timestep for ELM

  volume/ion in A,a.u.               =      22.56       152.22
  Fermi-wavevector in a.u.,A,eV,Ry     =   0.990780  1.872303 13.356093  0.981645
  Thomas-Fermi vector in A             =   2.122475
 
 Write flags
   LWAVE        =      F    write WAVECAR
   LDOWNSAMPLE  =      F    k-point downsampling of WAVECAR
   LCHARG       =      F    write CHGCAR
   LVTOT        =      F    write LOCPOT, total local potential
   LVHAR        =      F    write LOCPOT, Hartree potential only
   LELF         =      F    write electronic localiz. function (ELF)
   LORBIT       =      0    0 simple, 1 ext, 2 COOP (PROOUT), +10 PAW based schemes


 Dipole corrections
   LMONO  =      F    monopole corrections only (constant potential shift)
   LDIPOL =      F    correct potential (dipole corrections)
   IDIPOL =      0    1-x, 2-y, 3-z, 4-all directions 
   EPSILON=  1.0000000 bulk dielectric constant

 Exchange correlation treatment:
   GGA     =    PE    GGA type
   LEXCH   =     8    internal setting for exchange type
   LIBXC   =     F    Libxc                    
   VOSKOWN =     0    Vosko Wilk Nusair interpolation
   LHFCALC =     F    Hartree Fock is set to
   LHFONE  =     F    Hartree Fock one center treatment
   AEXX    =    0.0000 exact exchange contribution

 Linear response parameters
   LEPSILON=     F    determine dielectric tensor
   LRPA    =     F    only Hartree local field effects (RPA)
   LNABLA  =     F    use nabla operator in PAW spheres
   LVEL    =     F    velocity operator in full k-point grid
   CSHIFT  =0.1000    complex shift for real part using Kramers Kronig
   OMEGAMAX=  -1.0    maximum frequency
   DEG_THRESHOLD= 0.2000000E-02 threshold for treating states as degnerate
   RTIME   =   -0.100 relaxation time in fs
  (WPLASMAI=    0.000 imaginary part of plasma frequency in eV, 0.658/RTIME)
   DFIELD  = 0.0000000 0.0000000 0.0000000 field for delta impulse in time
 
  Optional k-point grid parameters
   LKPOINTS_OPT  =     F    use optional k-point grid
   KPOINTS_OPT_MODE=     1    mode for optional k-point grid
 
 Orbital magnetization related:
   ORBITALMAG=     F  switch on orbital magnetization
   LCHIMAG   =     F  perturbation theory with respect to B field
   DQ        =  0.001000  dq finite difference perturbation B field
   LLRAUG    =     F  two centre corrections for induced B field
   LBONE     =     F  B-component reconstruction in AE one-centre
   LVGVCALC  =     T  calculate vGv susceptibility
   LVGVAPPL  =     F  apply vGv susceptibility instead of pGv for G=0

 Random number generation:
   RANDOM_GENERATOR = DEFAULT
   PCG_SEED         = not used


--------------------------------------------------------------------------------------------------------


 Static calculation
 charge density and potential will be updated during run
 non-spin polarized calculation
 Variant of blocked Davidson
 Davidson routine will perform the subspace rotation
 perform sub-space diagonalisation
    after iterative eigenvector-optimisation
 modified Broyden-mixing scheme, WC =      100.0
 initial mixing is a Kerker type mixing with AMIX =  0.4000 and BMIX =      1.0000
 Hartree-type preconditioning will be used
 using additional bands            12
 reciprocal scheme for non local part
 use partial core corrections
 calculate Harris-corrections to forces 
   (improved forces if not selfconsistent)
 use gradient corrections 
 use of overlap-Matrix (Vanderbilt PP)
 Gauss-broadening in eV      SIGMA  =   0.05


--------------------------------------------------------------------------------------------------------


  energy-cutoff  :      360.00
  volume of cell :      180.45
      direct lattice vectors                 reciprocal lattice vectors
     4.100000000  0.000000000  0.000000000     0.243902439  0.000000000  0.000000000
     0.000000000  3.950000000  0.000000000     0.000000000  0.253164557  0.000000000
     0.000000000  0.000000000 11.142221000     0.000000000  0.000000000  0.089748713

  length of vectors
     4.100000000  3.950000000 11.142221000     0.243902439  0.253164557  0.089748713


 
 k-points in units of 2pi/SCALE and weight: KPOINTS created by Atomic Simulation Env
   0.00000000  0.00000000  0.00000000       0.014
   0.04065041  0.00000000  0.00000000       0.028
   0.08130081  0.00000000  0.00000000       0.028
   0.12195122  0.00000000  0.00000000       0.014
   0.00000000  0.04219409  0.00000000       0.028
   0.04065041  0.04219409  0.00000000       0.028
  -0.04065041  0.04219409  0.00000000       0.028
   0.08130081  0.04219409  0.00000000       0.028
  -0.08130081  0.04219409  0.00000000       0.028
   0.12195122  0.04219409  0.00000000       0.028
   0.00000000  0.08438819  0.00000000       0.028
   0.04065041  0.08438819  0.00000000       0.028
  -0.04065041  0.08438819  0.00000000       0.028
   0.08130081  0.08438819  0.00000000       0.028
  -0.08130081  0.08438819  0.00000000       0.028
   0.12195122  0.08438819  0.00000000       0.028
   0.00000000  0.12658228  0.00000000       0.014
   0.04065041  0.12658228  0.00000000       0.028
   0.08130081  0.12658228  0.00000000       0.028
   0.12195122  0.12658228  0.00000000       0.014
   0.00000000  0.00000000  0.04487436       0.014
   0.04065041  0.00000000  0.04487436       0.028
   0.08130081  0.00000000  0.04487436       0.028
   0.12195122  0.00000000  0.04487436       0.014
   0.00000000  0.04219409  0.04487436       0.028
   0.04065041  0.04219409  0.04487436       0.028
  -0.04065041  0.04219409  0.04487436       0.028
   0.08130081  0.04219409  0.04487436       0.028
  -0.08130081  0.04219409  0.04487436       0.028
   0.12195122  0.04219409  0.04487436       0.028
   0.00000000  0.08438819  0.04487436       0.028
   0.04065041  0.08438819  0.04487436       0.028
  -0.04065041  0.08438819  0.04487436       0.028
   0.08130081  0.08438819  0.04487436       0.028
  -0.08130081  0.08438819  0.04487436       0.028
   0.12195122  0.08438819  0.04487436       0.028
   0.00000000  0.12658228  0.04487436       0.014
   0.04065041  0.12658228  0.04487436       0.028
   0.08130081  0.12658228  0.04487436       0.028
   0.12195122  0.12658228  0.04487436       0.014
 
 k-points in reciprocal lattice and weights: KPOINTS created by Atomic Simulation Env
   0.00000000  0.00000000  0.00000000       0.014
   0.16666667  0.00000000  0.00000000       0.028
   0.33333333  0.00000000  0.00000000       0.028
   0.50000000  0.00000000  0.00000000       0.014
   0.00000000  0.16666667  0.00000000       0.028
   0.16666667  0.16666667  0.00000000       0.028
  -0.16666667  0.16666667  0.00000000       0.028
   0.33333333  0.16666667  0.00000000       0.028
  -0.33333333  0.16666667  0.00000000       0.028
   0.50000000  0.16666667  0.00000000       0.028
   0.00000000  0.33333333  0.00000000       0.028
   0.16666667  0.33333333  0.00000000       0.028
  -0.16666667  0.33333333  0.00000000       0.028
   0.33333333  0.33333333  0.00000000       0.028
  -0.33333333  0.33333333  0.00000000       0.028
   0.50000000  0.33333333  0.00000000       0.028
   0.00000000  0.50000000  0.00000000       0.014
   0.16666667  0.50000000  0.00000000       0.028
   0.33333333  0.50000000  0.00000000       0.028
   0.50000000  0.50000000  0.00000000       0.014
   0.00000000  0.00000000  0.50000000       0.014
   0.16666667  0.00000000  0.50000000       0.028
   0.33333333  0.00000000  0.50000000       0.028
   0.50000000  0.00000000  0.50000000       0.014
   0.00000000  0.16666667  0.50000000       0.028
   0.16666667  0.16666667  0.50000000       0.028
  -0.16666667  0.16666667  0.50000000       0.028
   0.33333333  0.16666667  0.50000000       0.028
  -0.33333333  0.16666667  0.50000000       0.028
   0.50000000  0.16666667  0.50000000       0.028
   0.00000000  0.33333333  0.50000000       0.028
   0.16666667  0.33333333  0.50000000       0.028
  -0.16666667  0.33333333  0.50000000       0.028
   0.33333333  0.33333333  0.50000000       0.028
  -0.33333333  0.33333333  0.50000000       0.028
   0.50000000  0.33333333  0.50000000       0.028
   0.00000000  0.50000000  0.50000000       0.014
   0.16666667  0.50000000  0.50000000       0.028
   0.33333333  0.50000000  0.50000000       0.028
   0.50000000  0.50000000  0.50000000       0.014
 
 position of ions in fractional coordinates (direct lattice) 
   0.09912428  0.25000000  0.12825928
   0.59912428  0.75000000  0.37174072
   0.90087572  0.75000000  0.87174072
   0.40087572  0.25000000  0.62825928
   0.01525040  0.25000000  0.35831911
   0.51525040  0.75000000  0.14168089
   0.98474960  0.75000000  0.64168089
   0.48474960  0.25000000  0.85831911
 
 position of ions in cartesian coordinates  (Angst):
   0.40640954  0.98750000  1.42909322
   2.45640954  2.96250000  4.14201728
   3.69359046  2.96250000  9.71312778
   1.64359046  0.98750000  7.00020372
   0.06252663  0.98750000  3.99247076
   2.11252663  2.96250000  1.57863974
   4.03747337  2.96250000  7.14975024
   1.98747337  0.98750000  9.56358126
 


--------------------------------------------------------------------------------------------------------


 k-point   1 :   0.0000 0.0000 0.0000  plane waves:    2799
 k-point   2 :   0.1667 0.0000 0.0000  plane waves:    2779
 k-point   3 :   0.3333 0.0000 0.0000  plane waves:    2781
 k-point   4 :   0.5000 0.0000 0.0000  plane waves:    2780
 k-point   5 :   0.0000 0.1667 0.0000  plane waves:    2804
 k-point   6 :   0.1667 0.1667 0.0000  plane waves:    2809
 k-point   7 :  -0.1667 0.1667 0.0000  plane waves:    2809
 k-point   8 :   0.3333 0.1667 0.0000  plane waves:    2789
 k-point   9 :  -0.3333 0.1667 0.0000  plane waves:    2789
 k-point  10 :   0.5000 0.1667 0.0000  plane waves:    2796
 k-point  11 :   0.0000 0.3333 0.0000  plane waves:    2818
 k-point  12 :   0.1667 0.3333 0.0000  plane waves:    2809
 k-point  13 :  -0.1667 0.3333 0.0000  plane waves:    2809
 k-point  14 :   0.3333 0.3333 0.0000  plane waves:    2805
 k-point  15 :  -0.3333 0.3333 0.0000  plane waves:    2805
 k-point  16 :   0.5000 0.3333 0.0000  plane waves:    2802
 k-point  17 :   0.0000 0.5000 0.0000  plane waves:    2828
 k-point  18 :   0.1667 0.5000 0.0000  plane waves:    2798
 k-point  19 :   0.3333 0.5000 0.0000  plane waves:    2808
 k-point  20 :   0.5000 0.5000 0.0000  plane waves:    2816
 k-point  21 :   0.0000 0.0000 0.5000  plane waves:    2786
 k-point  22 :   0.1667 0.0000 0.5000  plane waves:    2806
 k-point  23 :   0.3333 0.0000 0.5000  plane waves:    2788
 k-point  24 :   0.5000 0.0000 0.5000  plane waves:    2796
 k-point  25 :   0.0000 0.1667 0.5000  plane waves:    2784
 k-point  26 :   0.1667 0.1667 0.5000  plane waves:    2796
 k-point  27 :  -0.1667 0.1667 0.5000  plane waves:    2796
 k-point  28 :   0.3333 0.1667 0.5000  plane waves:    2794
 k-point  29 :  -0.3333 0.1667 0.5000  plane waves:    2794
 k-point  30 :   0.5000 0.1667 0.5000  plane waves:    2792
 k-point  31 :   0.0000 0.3333 0.5000  plane waves:    2818
 k-point  32 :   0.1667 0.3333 0.5000  plane waves:    2808
 k-point  33 :  -0.1667 0.3333 0.5000  plane waves:    2808
 k-point  34 :   0.3333 0.3333 0.5000  plane waves:    2800
 k-point  35 :  -0.3333 0.3333 0.5000  plane waves:    2800
 k-point  36 :   0.5000 0.3333 0.5000  plane waves:    2792
 k-point  37 :   0.0000 0.5000 0.5000  plane waves:    2816
 k-point  38 :   0.1667 0.5000 0.5000  plane waves:    2812
 k-point  39 :   0.3333 0.5000 0.5000  plane waves:    2800
 k-point  40 :   0.5000 0.5000 0.5000  plane waves:    2792

 maximum and minimum number of plane-waves per node :       721      668

 maximum number of plane-waves:      2828
 maximum index in each direction: 
   IXMAX=    6   IYMAX=    6   IZMAX=   17
   IXMIN=   -6   IYMIN=   -6   IZMIN=  -17


 parallel 3D FFT for wavefunctions:
    minimum data exchange during FFTs selected (reduces bandwidth)
 parallel 3D FFT for charge:
    minimum data exchange during FFTs selected (reduces bandwidth)


 total amount of memory used by VASP MPI-rank0    37765. kBytes
=======================================================================

   base      :      30000. kBytes
   nonl-proj :       6082. kBytes
   fftplans  :        289. kBytes
   grid      :        416. kBytes
   one-center:         16. kBytes
   wavefun   :        962. kBytes
 
     INWAV:  cpu time      0.0000: real time      0.0001
 Broyden mixing: mesh for mixing (old mesh)
   NGX = 13   NGY = 13   NGZ = 35
  (NGX  = 40   NGY  = 36   NGZ  =108)
  gives a total of   5915 points

 initial charge density was supplied:
 charge density of overlapping atoms calculated
 number of electron      40.0000000 magnetization 
 keeping initial charge density in first step


--------------------------------------------------------------------------------------------------------


 Maximum index for augmentation-charges           327 (set IRDMAX)


--------------------------------------------------------------------------------------------------------


 First call to EWALD:  gamma=   0.314
 Maximum number of real-space cells 4x 4x 2
 Maximum number of reciprocal cells 2x 2x 5

    FEWALD:  cpu time      0.0016: real time      0.0016


--------------------------------------- Ionic step        1  -------------------------------------------




--------------------------------------- Iteration      1(   1)  ---------------------------------------


    POTLOK:  cpu time      0.0100: real time      0.0110
    SETDIJ:  cpu time      0.1390: real time      0.1395
     EDDAV:  cpu time      0.2512: real time      0.2537
       DOS:  cpu time      0.0019: real time      0.0020
    --------------------------------------------
      LOOP:  cpu time      0.4020: real time      0.4061

 eigenvalue-minimisations  :  2560
 total energy-change (2. order) : 0.1276141E+03  (-0.1298633E+04)
 number of electron      40.0000000 magnetization 
 augmentation part       40.0000000 magnetization 

 Free energy of the ion-electron system (eV)
  ---------------------------------------------------
  alpha Z        PSCENC =        93.90195608
  Ewald energy   TEWEN  =     -1465.45202875
  -Hartree energ DENC   =      -110.22169962
  -exchange      EXHF   =         0.00000000
  -V(xc)+E(xc)   XCENC  =       -32.59365750
  PAW double counting   =      1193.78262552    -1080.73714043
  entropy T*S    EENTRO =        -0.00468635
  eigenvalues    EBANDS =        80.45414900
  atomic energy  EATOM  =      1448.48460880
  Solvation  Ediel_sol  =         0.00000000
  ---------------------------------------------------
  free energy    TOTEN  =       127.61412674 eV

  energy without entropy =      127.61881309  energy(sigma->0) =      127.61646991


--------------------------------------------------------------------------------------------------------




--------------------------------------- Iteration      1(   2)  ---------------------------------------


     EDDAV:  cpu time      0.3134: real time      0.3166
       DOS:  cpu time      0.0006: real time      0.0006
    --------------------------------------------
      LOOP:  cpu time      0.3140: real time      0.3173

 eigenvalue-minimisations  :  3712
 total energy-change (2. order) :-0.1537627E+03  (-0.1495772E+03)
 number of electron      40.0000000 magnetization 
 augmentation part       40.0000000 magnetization 

 Free energy of the ion-electron system (eV)
  ---------------------------------------------------
  alpha Z        PSCENC =        93.90195608
  Ewald energy   TEWEN  =     -1465.45202875
  -Hartree energ DENC   =      -110.22169962
  -exchange      EXHF   =         0.00000000
  -V(xc)+E(xc)   XCENC  =       -32.59365750
  PAW double counting   =      1193.78262552    -1080.73714043
  entropy T*S    EENTRO =        -0.00000000
  eigenvalues    EBANDS =       -73.31327650
  atomic energy  EATOM  =      1448.48460880
  Solvation  Ediel_sol  =         0.00000000
  ---------------------------------------------------
  free energy    TOTEN  =       -26.14861241 eV

  energy without entropy =      -26.14861241  energy(sigma->0) =      -26.14861241


--------------------------------------------------------------------------------------------------------




--------------------------------------- Iteration      1(   3)  ---------------------------------------


     EDDAV:  cpu time      0.2833: real time      0.2863
       DOS:  cpu time      0.0008: real time      0.0008
    --------------------------------------------
      LOOP:  cpu time      0.2841: real time      0.2871

 eigenvalue-minimisations  :  3104
 total energy-change (2. order) :-0.7840703E+01  (-0.7823342E+01)
 number of electron      40.0000000 magnetization 
 augmentation part       40.0000000 magnetization 

 Free energy of the ion-electron system (eV)
  ---------------------------------------------------
  alpha Z        PSCENC =        93.90195608
  Ewald energy   TEWEN  =     -1465.45202875
  -Hartree energ DENC   =      -110.22169962
  -exchange      EXHF   =         0.00000000
  -V(xc)+E(xc)   XCENC  =       -32.59365750
  PAW double counting   =      1193.78262552    -1080.73714043
  entropy T*S    EENTRO =        -0.00000000
  eigenvalues    EBANDS =       -81.15397942
  atomic energy  EATOM  =      1448.48460880
  Solvation  Ediel_sol  =         0.00000000
  ---------------------------------------------------
  free energy    TOTEN  =       -33.98931533 eV

  energy without entropy =      -33.98931533  energy(sigma->0) =      -33.98931533


--------------------------------------------------------------------------------------------------------




--------------------------------------- Iteration      1(   4)  ---------------------------------------


     EDDAV:  cpu time      0.2978: real time      0.3011
       DOS:  cpu time      0.0007: real time      0.0007
    --------------------------------------------
      LOOP:  cpu time      0.2985: real time      0.3018

 eigenvalue-minimisations  :  3312
 total energy-change (2. order) :-0.4812578E-01  (-0.4811112E-01)
 number of electron      40.0000000 magnetization 
 augmentation part       40.0000000 magnetization 

 Free energy of the ion-electron system (eV)
  ---------------------------------------------------
  alpha Z        PSCENC =        93.90195608
  Ewald energy   TEWEN  =     -1465.45202875
  -Hartree energ DENC   =      -110.22169962
  -exchange      EXHF   =         0.00000000
  -V(xc)+E(xc)   XCENC  =       -32.59365750
  PAW double counting   =      1193.78262552    -1080.73714043
  entropy T*S    EENTRO =        -0.00000000
  eigenvalues    EBANDS =       -81.20210520
  atomic energy  EATOM  =      1448.48460880
  Solvation  Ediel_sol  =         0.00000000
  ---------------------------------------------------
  free energy    TOTEN  =       -34.03744111 eV

  energy without entropy =      -34.03744111  energy(sigma->0) =      -34.03744111


--------------------------------------------------------------------------------------------------------




--------------------------------------- Iteration      1(   5)  ---------------------------------------


     EDDAV:  cpu time      0.2780: real time      0.2809
       DOS:  cpu time      0.0005: real time      0.0005
    CHARGE:  cpu time      0.0038: real time      0.0041
    MIXING:  cpu time      0.0007: real time      0.0007
    --------------------------------------------
      LOOP:  cpu time      0.2830: real time      0.2863

 eigenvalue-minimisations  :  3072
 total energy-change (2. order) :-0.2874730E-03  (-0.2874571E-03)
 number of electron      40.0000030 magnetization 
 augmentation part       -7.4164630 magnetization 

 Broyden mixing:
  rms(total) = 0.66579E+00    rms(broyden)= 0.66578E+00
  rms(prec ) = 0.73778E+00
  weight for this iteration     100.00

 Free energy of the ion-electron system (eV)
  ---------------------------------------------------
  alpha Z        PSCENC =        93.90195608
  Ewald energy   TEWEN  =     -1465.45202875
  -Hartree energ DENC   =      -110.22169962
  -exchange      EXHF   =         0.00000000
  -V(xc)+E(xc)   XCENC  =       -32.59365750
  PAW double counting   =      1193.78262552    -1080.73714043
  entropy T*S    EENTRO =        -0.00000000
  eigenvalues    EBANDS =       -81.20239268
  atomic energy  EATOM  =      1448.48460880
  Solvation  Ediel_sol  =         0.00000000
  ---------------------------------------------------
  free energy    TOTEN  =       -34.03772859 eV

  energy without entropy =      -34.03772859  energy(sigma->0) =      -34.03772859


--------------------------------------------------------------------------------------------------------




--------------------------------------- Iteration      1(   6)  ---------------------------------------


    POTLOK:  cpu time      0.0053: real time      0.0055
    SETDIJ:  cpu time      0.1383: real time      0.1389
     EDDAV:  cpu time      0.3090: real time      0.3116
       DOS:  cpu time      0.0008: real time      0.0008
    CHARGE:  cpu time      0.0047: real time      0.0047
    MIXING:  cpu time      0.0015: real time      0.0015
    --------------------------------------------
      LOOP:  cpu time      0.4596: real time      0.4631

 eigenvalue-minimisations  :  3280
 total energy-change (2. order) : 0.3505337E+00  (-0.6837618E-01)
 number of electron      40.0000029 magnetization 
 augmentation part       -7.3660163 magnetization 

 Broyden mixing:
  rms(total) = 0.41710E+00    rms(broyden)= 0.41710E+00
  rms(prec ) = 0.43497E+00
  weight for this iteration     100.00

 eigenvalues of (default mixing * dielectric matrix)
  average eigenvalue GAMMA=   2.2741
  2.2741

 Free energy of the ion-electron system (eV)
  ---------------------------------------------------
  alpha Z        PSCENC =        93.90195608
  Ewald energy   TEWEN  =     -1465.45202875
  -Hartree energ DENC   =      -115.44706783
  -exchange      EXHF   =         0.00000000
  -V(xc)+E(xc)   XCENC  =       -32.03665907
  PAW double counting   =      1468.74484978    -1356.02525091
  entropy T*S    EENTRO =        -0.00000000
  eigenvalues    EBANDS =       -75.85760296
  atomic energy  EATOM  =      1448.48460880
  Solvation  Ediel_sol  =         0.00000000
  ---------------------------------------------------
  free energy    TOTEN  =       -33.68719486 eV

  energy without entropy =      -33.68719486  energy(sigma->0) =      -33.68719486


--------------------------------------------------------------------------------------------------------




--------------------------------------- Iteration      1(   7)  ---------------------------------------


    POTLOK:  cpu time      0.0050: real time      0.0052
    SETDIJ:  cpu time      0.1393: real time      0.1399
     EDDAV:  cpu time      0.2974: real time      0.3001
       DOS:  cpu time      0.0008: real time      0.0008
    CHARGE:  cpu time      0.0036: real time      0.0036
    MIXING:  cpu time      0.0005: real time      0.0005
    --------------------------------------------
      LOOP:  cpu time      0.4466: real time      0.4501

 eigenvalue-minimisations  :  3280
 total energy-change (2. order) : 0.6335061E-02  (-0.2382866E-01)
 number of electron      40.0000028 magnetization 
 augmentation part       -7.3515553 magnetization 

 Broyden mixing:
  rms(total) = 0.11835E+00    rms(broyden)= 0.11835E+00
  rms(prec ) = 0.12660E+00
  weight for this iteration     100.00

 eigenvalues of (default mixing * dielectric matrix)
  average eigenvalue GAMMA=   1.8229
  1.2559  2.3899

 Free energy of the ion-electron system (eV)
  ---------------------------------------------------
  alpha Z        PSCENC =        93.90195608
  Ewald energy   TEWEN  =     -1465.45202875
  -Hartree energ DENC   =      -117.98747287
  -exchange      EXHF   =         0.00000000
  -V(xc)+E(xc)   XCENC  =       -31.57490670
  PAW double counting   =      1831.88805922    -1719.44073191
  entropy T*S    EENTRO =        -0.00000012
  eigenvalues    EBANDS =       -73.50034355
  atomic energy  EATOM  =      1448.48460880
  Solvation  Ediel_sol  =         0.00000000
  ---------------------------------------------------
  free energy    TOTEN  =       -33.68085980 eV

  energy without entropy =      -33.68085968  energy(sigma->0) =      -33.68085974


--------------------------------------------------------------------------------------------------------




--------------------------------------- Iteration      1(   8)  ---------------------------------------


    POTLOK:  cpu time      0.0050: real time      0.0052
    SETDIJ:  cpu time      0.1379: real time      0.1388
     EDDAV:  cpu time      0.2742: real time      0.2766
       DOS:  cpu time      0.0007: real time      0.0007
    CHARGE:  cpu time      0.0034: real time      0.0034
    MIXING:  cpu time      0.0005: real time      0.0005
    --------------------------------------------
      LOOP:  cpu time      0.4217: real time      0.4251

 eigenvalue-minimisations  :  3008
 total energy-change (2. order) : 0.3063087E-02  (-0.2913300E-02)
 number of electron      40.0000028 magnetization 
 augmentation part       -7.3621980 magnetization 

 Broyden mixing:
  rms(total) = 0.16835E-01    rms(broyden)= 0.16834E-01
  rms(prec ) = 0.20102E-01
  weight for this iteration     100.00

 eigenvalues of (default mixing * dielectric matrix)
  average eigenvalue GAMMA=   1.7401
  2.5385  1.3409  1.3409

 Free energy of the ion-electron system (eV)
  ---------------------------------------------------
  alpha Z        PSCENC =        93.90195608
  Ewald energy   TEWEN  =     -1465.45202875
  -Hartree energ DENC   =      -117.65328810
  -exchange      EXHF   =         0.00000000
  -V(xc)+E(xc)   XCENC  =       -31.48978872
  PAW double counting   =      1955.99103773    -1843.59436164
  entropy T*S    EENTRO =        -0.00000001
  eigenvalues    EBANDS =       -73.86593210
  atomic energy  EATOM  =      1448.48460880
  Solvation  Ediel_sol  =         0.00000000
  ---------------------------------------------------
  free energy    TOTEN  =       -33.67779671 eV

  energy without entropy =      -33.67779670  energy(sigma->0) =      -33.67779671


--------------------------------------------------------------------------------------------------------




--------------------------------------- Iteration      1(   9)  ---------------------------------------


    POTLOK:  cpu time      0.0049: real time      0.0051
    SETDIJ:  cpu time      0.1381: real time      0.1388
     EDDAV:  cpu time      0.2874: real time      0.2901
       DOS:  cpu time      0.0008: real time      0.0008
    CHARGE:  cpu time      0.0038: real time      0.0038
    MIXING:  cpu time      0.0005: real time      0.0005
    --------------------------------------------
      LOOP:  cpu time      0.4354: real time      0.4389

 eigenvalue-minimisations  :  3216
 total energy-change (2. order) :-0.2196918E-03  (-0.3272350E-03)
 number of electron      40.0000028 magnetization 
 augmentation part       -7.3604758 magnetization 

 Broyden mixing:
  rms(total) = 0.61533E-02    rms(broyden)= 0.61533E-02
  rms(prec ) = 0.67384E-02
  weight for this iteration     100.00

 eigenvalues of (default mixing * dielectric matrix)
  average eigenvalue GAMMA=   1.7118
  2.2333  2.2333  1.1904  1.1904

 Free energy of the ion-electron system (eV)
  ---------------------------------------------------
  alpha Z        PSCENC =        93.90195608
  Ewald energy   TEWEN  =     -1465.45202875
  -Hartree energ DENC   =      -117.99340238
  -exchange      EXHF   =         0.00000000
  -V(xc)+E(xc)   XCENC  =       -31.45117120
  PAW double counting   =      1970.83474912    -1858.45058723
  entropy T*S    EENTRO =        -0.00000002
  eigenvalues    EBANDS =       -73.55214083
  atomic energy  EATOM  =      1448.48460880
  Solvation  Ediel_sol  =         0.00000000
  ---------------------------------------------------
  free energy    TOTEN  =       -33.67801640 eV

  energy without entropy =      -33.67801639  energy(sigma->0) =      -33.67801640


--------------------------------------------------------------------------------------------------------




--------------------------------------- Iteration      1(  10)  ---------------------------------------


    POTLOK:  cpu time      0.0050: real time      0.0052
    SETDIJ:  cpu time      0.1381: real time      0.1387
     EDDAV:  cpu time      0.2670: real time      0.2692
       DOS:  cpu time      0.0005: real time      0.0005
    CHARGE:  cpu time      0.0029: real time      0.0029
    MIXING:  cpu time      0.0003: real time      0.0003
    --------------------------------------------
      LOOP:  cpu time      0.4138: real time      0.4168

 eigenvalue-minimisations  :  3136
 total energy-change (2. order) :-0.2581006E-04  (-0.1758175E-04)
 number of electron      40.0000028 magnetization 
 augmentation part       -7.3605520 magnetization 

 Broyden mixing:
  rms(total) = 0.23298E-02    rms(broyden)= 0.23298E-02
  rms(prec ) = 0.27252E-02
  weight for this iteration     100.00

 eigenvalues of (default mixing * dielectric matrix)
  average eigenvalue GAMMA=   1.7726
  2.7636  2.4653  1.1456  1.2442  1.2442

 Free energy of the ion-electron system (eV)
  ---------------------------------------------------
  alpha Z        PSCENC =        93.90195608
  Ewald energy   TEWEN  =     -1465.45202875
  -Hartree energ DENC   =      -117.99246403
  -exchange      EXHF   =         0.00000000
  -V(xc)+E(xc)   XCENC  =       -31.45213921
  PAW double counting   =      1963.55946240    -1851.16986221
  entropy T*S    EENTRO =        -0.00000001
  eigenvalues    EBANDS =       -73.55757528
  atomic energy  EATOM  =      1448.48460880
  Solvation  Ediel_sol  =         0.00000000
  ---------------------------------------------------
  free energy    TOTEN  =       -33.67804221 eV

  energy without entropy =      -33.67804220  energy(sigma->0) =      -33.67804221


--------------------------------------------------------------------------------------------------------




--------------------------------------- Iteration      1(  11)  ---------------------------------------


    POTLOK:  cpu time      0.0034: real time      0.0035
    SETDIJ:  cpu time      0.1379: real time      0.1382
     EDDAV:  cpu time      0.1940: real time      0.1948
       DOS:  cpu time      0.0004: real time      0.0004
    CHARGE:  cpu time      0.0029: real time      0.0029
    MIXING:  cpu time      0.0003: real time      0.0003
    --------------------------------------------
      LOOP:  cpu time      0.3388: real time      0.3401

 eigenvalue-minimisations  :  3136
 total energy-change (2. order) :-0.2092545E-04  (-0.3305659E-05)
 number of electron      40.0000028 magnetization 
 augmentation part       -7.3607295 magnetization 

 Broyden mixing:
  rms(total) = 0.10205E-02    rms(broyden)= 0.10205E-02
  rms(prec ) = 0.11539E-02
  weight for this iteration     100.00

 eigenvalues of (default mixing * dielectric matrix)
  average eigenvalue GAMMA=   1.7215
  2.5809  2.2423  2.2423  1.1894  1.1894  0.8848

 Free energy of the ion-electron system (eV)
  ---------------------------------------------------
  alpha Z        PSCENC =        93.90195608
  Ewald energy   TEWEN  =     -1465.45202875
  -Hartree energ DENC   =      -118.01392454
  -exchange      EXHF   =         0.00000000
  -V(xc)+E(xc)   XCENC  =       -31.44678858
  PAW double counting   =      1964.77558449    -1852.38604932
  entropy T*S    EENTRO =        -0.00000001
  eigenvalues    EBANDS =       -73.54142130
  atomic energy  EATOM  =      1448.48460880
  Solvation  Ediel_sol  =         0.00000000
  ---------------------------------------------------
  free energy    TOTEN  =       -33.67806314 eV

  energy without entropy =      -33.67806313  energy(sigma->0) =      -33.67806313


--------------------------------------------------------------------------------------------------------




--------------------------------------- Iteration      1(  12)  ---------------------------------------


    POTLOK:  cpu time      0.0035: real time      0.0036
    SETDIJ:  cpu time      0.1167: real time      0.1170
     EDDAV:  cpu time      0.1875: real time      0.1883
       DOS:  cpu time      0.0004: real time      0.0004
    --------------------------------------------
      LOOP:  cpu time      0.3081: real time      0.3093

 eigenvalue-minimisations  :  3136
 total energy-change (2. order) : 0.3507326E-06  (-0.4310610E-06)
 number of electron      40.0000028 magnetization 
 augmentation part       -7.3607295 magnetization 

 Free energy of the ion-electron system (eV)
  ---------------------------------------------------
  alpha Z        PSCENC =        93.90195608
  Ewald energy   TEWEN  =     -1465.45202875
  -Hartree energ DENC   =      -118.02381639
  -exchange      EXHF   =         0.00000000
  -V(xc)+E(xc)   XCENC  =       -31.44600866
  PAW double counting   =      1964.43173869    -1852.04216847
  entropy T*S    EENTRO =        -0.00000001
  eigenvalues    EBANDS =       -73.53234407
  atomic energy  EATOM  =      1448.48460880
  Solvation  Ediel_sol  =         0.00000000
  ---------------------------------------------------
  free energy    TOTEN  =       -33.67806279 eV

  energy without entropy =      -33.67806277  energy(sigma->0) =      -33.67806278


--------------------------------------------------------------------------------------------------------




 average (electrostatic) potential at core
  the test charge radii are     1.1631  1.0808
  (the norm of the test charge is              1.0000)
       1 -32.8886       2 -32.8886       3 -32.8886       4 -32.8886       5 -54.4003
       6 -54.4003       7 -54.4003       8 -54.4003
 
 
 
 E-fermi :   4.1552     XC(G=0):  -9.6438     alpha+bet : -9.3548

 Fermi energy:         4.1551691770

 k-point     1 :       0.0000    0.0000    0.0000
  band No.  band energies     occupation 
      1     -10.6305      2.00000
      2     -10.2552      2.00000
      3      -9.3017      2.00000
      4      -8.6959      2.00000
      5      -3.7383      2.00000
      6      -3.1969      2.00000
      7      -1.6809      2.00000
      8      -1.6270      2.00000
      9      -1.5311      2.00000
     10       0.1509      2.00000
     11       0.3893      2.00000
     12       0.4464      2.00000
     13       0.5981      2.00000
     14       0.7125      2.00000
     15       1.4238      2.00000
     16       2.1253      2.00000
     17       2.1255      2.00000
     18       2.3648      2.00000
     19       3.1031      2.00000
     20       3.5024      2.00000
     21       4.4828      0.00000
     22       6.7820      0.00000
     23       6.8584      0.00000
     24       6.9945      0.00000
     25       7.3388      0.00000
     26       7.7292      0.00000
     27       7.9687      0.00000
     28       8.5481      0.00000
     29       9.0105      0.00000
     30       9.3144      0.00000
     31       9.5385      0.00000
     32      10.0814      0.00000

 k-point     2 :       0.1667    0.0000    0.0000
  band No.  band energies     occupation 
      1     -10.4718      2.00000
      2     -10.1034      2.00000
      3      -9.2463      2.00000
      4      -8.6904      2.00000
      5      -4.2712      2.00000
      6      -3.5225      2.00000
      7      -2.5729      2.00000
      8      -2.0781      2.00000
      9      -1.4371      2.00000
     10       0.3542      2.00000
     11       0.5971      2.00000
     12       0.7931      2.00000
     13       1.0014      2.00000
     14       1.2176      2.00000
     15       1.5617      2.00000
     16       2.2202      2.00000
     17       2.4311      2.00000
     18       2.9418      2.00000
     19       2.9928      2.00000
     20       3.4606      2.00000
     21       4.3261      0.00000
     22       6.3021      0.00000
     23       6.7660      0.00000
     24       6.9555      0.00000
     25       6.9704      0.00000
     26       7.2919      0.00000
     27       7.7008      0.00000
     28       8.0572      0.00000
     29       8.2487      0.00000
     30       8.7241      0.00000
     31       9.1506      0.00000
     32       9.2289      0.00000

 k-point     3 :       0.3333    0.0000    0.0000
  band No.  band energies     occupation 
      1     -10.0408      2.00000
      2      -9.6900      2.00000
      3      -9.2211      2.00000
      4      -8.7894      2.00000
      5      -4.9601      2.00000
      6      -4.0041      2.00000
      7      -3.9522      2.00000
      8      -3.0950      2.00000
      9      -0.8397      2.00000
     10       0.8432      2.00000
     11       0.9159      2.00000
     12       1.3269      2.00000
     13       1.7528      2.00000
     14       1.8089      2.00000
     15       1.8747      2.00000
     16       2.3151      2.00000
     17       2.6796      2.00000
     18       3.0897      2.00000
     19       3.3968      2.00000
     20       3.9842      2.00000
     21       4.7883      0.00000
     22       4.9508      0.00000
     23       5.3760      0.00000
     24       5.6957      0.00000
     25       6.3155      0.00000
     26       6.5639      0.00000
     27       6.6020      0.00000
     28       7.0512      0.00000
     29       7.3319      0.00000
     30       7.5955      0.00000
     31       8.9147      0.00000
     32       9.6877      0.00000

 k-point     4 :       0.5000    0.0000    0.0000
  band No.  band energies     occupation 
      1      -9.5138      2.00000
      2      -9.5138      2.00000
      3      -9.1646      2.00000
      4      -9.1646      2.00000
      5      -4.8835      2.00000
      6      -4.8835      2.00000
      7      -3.8797      2.00000
      8      -3.8797      2.00000
      9       0.0587      2.00000
     10       0.0587      2.00000
     11       1.5996      2.00000
     12       1.5996      2.00000
     13       1.9804      2.00000
     14       1.9804      2.00000
     15       2.3456      2.00000
     16       2.3456      2.00000
     17       3.0897      2.00000
     18       3.0897      2.00000
     19       3.5106      2.00000
     20       3.5106      2.00000
     21       5.0737      0.00000
     22       5.0737      0.00000
     23       5.5271      0.00000
     24       5.5271      0.00000
     25       5.6243      0.00000
     26       5.6243      0.00000
     27       6.0558      0.00000
     28       6.0558      0.00000
     29       6.5169      0.00000
     30       6.5169      0.00000
     31       9.5462      0.00000
     32       9.5462      0.00000

 k-point     5 :       0.0000    0.1667    0.0000
  band No.  band energies     occupation 
      1     -10.4412      2.00000
      2     -10.0825      2.00000
      3      -9.1875      2.00000
      4      -8.6587      2.00000
      5      -4.1673      2.00000
      6      -3.7365      2.00000
      7      -2.5184      2.00000
      8      -2.1234      2.00000
      9      -1.4579      2.00000
     10       0.2722      2.00000
     11       0.6618      2.00000
     12       0.7405      2.00000
     13       0.7810      2.00000
     14       0.8926      2.00000
     15       1.7725      2.00000
     16       2.1953      2.00000
     17       2.3256      2.00000
     18       2.8811      2.00000
     19       3.1702      2.00000
     20       3.2106      2.00000
     21       4.5825      0.00000
     22       6.5079      0.00000
     23       6.8261      0.00000
     24       7.1605      0.00000
     25       7.3317      0.00000
     26       7.4132      0.00000
     27       7.6632      0.00000
     28       7.7095      0.00000
     29       8.4694      0.00000
     30       8.5381      0.00000
     31       9.2341      0.00000
     32       9.3047      0.00000

 k-point     6 :       0.1667    0.1667    0.0000
  band No.  band energies     occupation 
      1     -10.2884      2.00000
      2      -9.9379      2.00000
      3      -9.1373      2.00000
      4      -8.6521      2.00000
      5      -4.4293      2.00000
      6      -3.7875      2.00000
      7      -2.8415      2.00000
      8      -2.5297      2.00000
      9      -1.2510      2.00000
     10      -0.4594      2.00000
     11      -0.2491      2.00000
     12       0.8490      2.00000
     13       1.1358      2.00000
     14       1.7516      2.00000
     15       1.7993      2.00000
     16       1.9250      2.00000
     17       3.0850      2.00000
     18       3.1052      2.00000
     19       3.3377      2.00000
     20       3.3664      2.00000
     21       4.5271      0.00000
     22       5.5810      0.00000
     23       5.9901      0.00000
     24       6.1340      0.00000
     25       7.0413      0.00000
     26       7.6649      0.00000
     27       7.8646      0.00000
     28       8.0410      0.00000
     29       8.5356      0.00000
     30       8.7406      0.00000
     31       8.7675      0.00000
     32       9.4690      0.00000

 k-point     7 :      -0.1667    0.1667    0.0000
  band No.  band energies     occupation 
      1     -10.2884      2.00000
      2      -9.9379      2.00000
      3      -9.1373      2.00000
      4      -8.6521      2.00000
      5      -4.4293      2.00000
      6      -3.7875      2.00000
      7      -2.8415      2.00000
      8      -2.5297      2.00000
      9      -1.2510      2.00000
     10      -0.4594      2.00000
     11      -0.2491      2.00000
     12       0.8490      2.00000
     13       1.1358      2.00000
     14       1.7516      2.00000
     15       1.7993      2.00000
     16       1.9250      2.00000
     17       3.0850      2.00000
     18       3.1052      2.00000
     19       3.3377      2.00000
     20       3.3664      2.00000
     21       4.5271      0.00000
     22       5.5810      0.00000
     23       5.9901      0.00000
     24       6.1340      0.00000
     25       7.0413      0.00000
     26       7.6649      0.00000
     27       7.8646      0.00000
     28       8.0410      0.00000
     29       8.5356      0.00000
     30       8.7406      0.00000
     31       8.7675      0.00000
     32       9.4690      0.00000

 k-point     8 :       0.3333    0.1667    0.0000
  band No.  band energies     occupation 
      1      -9.8775      2.00000
      2      -9.5483      2.00000
      3      -9.1164      2.00000
      4      -8.7348      2.00000
      5      -4.8462      2.00000
      6      -3.9342      2.00000
      7      -3.8748      2.00000
      8      -3.1642      2.00000
      9      -0.6765      2.00000
     10      -0.5289      2.00000
     11      -0.3138      2.00000
     12       0.7222      2.00000
     13       0.9315      2.00000
     14       1.5095      2.00000
     15       1.7984      2.00000
     16       2.4630      2.00000
     17       2.6723      2.00000
     18       3.0290      2.00000
     19       3.3191      2.00000
     20       3.4455      2.00000
     21       4.7148      0.00000
     22       5.2401      0.00000
     23       5.9936      0.00000
     24       6.1293      0.00000
     25       6.2911      0.00000
     26       6.9057      0.00000
     27       7.5894      0.00000
     28       8.2628      0.00000
     29       8.5773      0.00000
     30       8.7996      0.00000
     31       9.1027      0.00000
     32       9.3433      0.00000

 k-point     9 :      -0.3333    0.1667    0.0000
  band No.  band energies     occupation 
      1      -9.8775      2.00000
      2      -9.5483      2.00000
      3      -9.1164      2.00000
      4      -8.7348      2.00000
      5      -4.8462      2.00000
      6      -3.9342      2.00000
      7      -3.8748      2.00000
      8      -3.1642      2.00000
      9      -0.6765      2.00000
     10      -0.5289      2.00000
     11      -0.3138      2.00000
     12       0.7222      2.00000
     13       0.9315      2.00000
     14       1.5095      2.00000
     15       1.7984      2.00000
     16       2.4630      2.00000
     17       2.6723      2.00000
     18       3.0290      2.00000
     19       3.3191      2.00000
     20       3.4455      2.00000
     21       4.7148      0.00000
     22       5.2401      0.00000
     23       5.9936      0.00000
     24       6.1293      0.00000
     25       6.2911      0.00000
     26       6.9057      0.00000
     27       7.5894      0.00000
     28       8.2628      0.00000
     29       8.5773      0.00000
     30       8.7996      0.00000
     31       9.1027      0.00000
     32       9.3433      0.00000

 k-point    10 :       0.5000    0.1667    0.0000
  band No.  band energies     occupation 
      1      -9.3852      2.00000
      2      -9.3852      2.00000
      3      -9.0658      2.00000
      4      -9.0658      2.00000
      5      -4.7126      2.00000
      6      -4.7126      2.00000
      7      -3.7677      2.00000
      8      -3.7677      2.00000
      9      -0.0785      2.00000
     10      -0.0785      2.00000
     11       0.1874      2.00000
     12       0.1874      2.00000
     13       0.7731      2.00000
     14       0.7731      2.00000
     15       2.0011      2.00000
     16       2.0011      2.00000
     17       2.7386      2.00000
     18       2.7386      2.00000
     19       3.2452      2.00000
     20       3.2452      2.00000
     21       5.2363      0.00000
     22       5.2363      0.00000
     23       5.9795      0.00000
     24       5.9795      0.00000
     25       6.7850      0.00000
     26       6.7850      0.00000
     27       7.6979      0.00000
     28       7.6979      0.00000
     29       8.2621      0.00000
     30       8.2621      0.00000
     31       9.2775      0.00000
     32       9.2775      0.00000

 k-point    11 :       0.0000    0.3333    0.0000
  band No.  band energies     occupation 
      1      -9.9144      2.00000
      2      -9.6231      2.00000
      3      -8.9889      2.00000
      4      -8.7306      2.00000
      5      -4.8986      2.00000
      6      -4.4404      2.00000
      7      -3.9629      2.00000
      8      -3.3182      2.00000
      9      -0.8195      2.00000
     10       0.7262      2.00000
     11       1.1210      2.00000
     12       1.1701      2.00000
     13       1.3746      2.00000
     14       1.3828      2.00000
     15       2.1848      2.00000
     16       2.2435      2.00000
     17       2.7661      2.00000
     18       2.8703      2.00000
     19       3.1100      2.00000
     20       3.6814      2.00000
     21       4.9019      0.00000
     22       4.9360      0.00000
     23       5.7105      0.00000
     24       5.9320      0.00000
     25       6.2671      0.00000
     26       6.2930      0.00000
     27       6.5516      0.00000
     28       7.3245      0.00000
     29       7.5212      0.00000
     30       7.6950      0.00000
     31       8.4252      0.00000
     32       9.3608      0.00000

 k-point    12 :       0.1667    0.3333    0.0000
  band No.  band energies     occupation 
      1      -9.7835      2.00000
      2      -9.5037      2.00000
      3      -8.9452      2.00000
      4      -8.7033      2.00000
      5      -4.8088      2.00000
      6      -4.2845      2.00000
      7      -3.8828      2.00000
      8      -3.3701      2.00000
      9      -0.6684      2.00000
     10      -0.5388      2.00000
     11      -0.2576      2.00000
     12       0.6856      2.00000
     13       1.2314      2.00000
     14       1.5941      2.00000
     15       1.7065      2.00000
     16       2.3149      2.00000
     17       2.4122      2.00000
     18       2.7042      2.00000
     19       3.0036      2.00000
     20       3.3726      2.00000
     21       4.6890      0.00000
     22       5.4571      0.00000
     23       6.0845      0.00000
     24       6.1699      0.00000
     25       6.2397      0.00000
     26       7.0958      0.00000
     27       7.7913      0.00000
     28       8.1427      0.00000
     29       8.1898      0.00000
     30       8.6968      0.00000
     31       8.9809      0.00000
     32       9.4532      0.00000

 k-point    13 :      -0.1667    0.3333    0.0000
  band No.  band energies     occupation 
      1      -9.7835      2.00000
      2      -9.5037      2.00000
      3      -8.9452      2.00000
      4      -8.7033      2.00000
      5      -4.8088      2.00000
      6      -4.2845      2.00000
      7      -3.8828      2.00000
      8      -3.3701      2.00000
      9      -0.6684      2.00000
     10      -0.5388      2.00000
     11      -0.2576      2.00000
     12       0.6856      2.00000
     13       1.2314      2.00000
     14       1.5941      2.00000
     15       1.7065      2.00000
     16       2.3149      2.00000
     17       2.4122      2.00000
     18       2.7042      2.00000
     19       3.0036      2.00000
     20       3.3726      2.00000
     21       4.6890      0.00000
     22       5.4571      0.00000
     23       6.0845      0.00000
     24       6.1699      0.00000
     25       6.2397      0.00000
     26       7.0958      0.00000
     27       7.7913      0.00000
     28       8.1427      0.00000
     29       8.1898      0.00000
     30       8.6968      0.00000
     31       8.9809      0.00000
     32       9.4532      0.00000

 k-point    14 :       0.3333    0.3333    0.0000
  band No.  band energies     occupation 
      1      -9.4452      2.00000
      2      -9.1983      2.00000
      3      -8.9094      2.00000
      4      -8.6988      2.00000
      5      -4.6059      2.00000
      6      -3.9159      2.00000
      7      -3.8831      2.00000
      8      -3.5314      2.00000
      9      -1.4141      2.00000
     10      -1.1231      2.00000
     11      -0.4713      2.00000
     12      -0.1767      2.00000
     13       0.1648      2.00000
     14       0.7030      2.00000
     15       1.1407      2.00000
     16       1.3604      2.00000
     17       1.9392      2.00000
     18       2.1998      2.00000
     19       2.4229      2.00000
     20       2.8579      2.00000
     21       5.0641      0.00000
     22       6.9147      0.00000
     23       7.0017      0.00000
     24       7.3299      0.00000
     25       7.7167      0.00000
     26       8.1682      0.00000
     27       8.2960      0.00000
     28       8.6106      0.00000
     29       9.2003      0.00000
     30       9.3736      0.00000
     31       9.4549      0.00000
     32       9.9677      0.00000

 k-point    15 :      -0.3333    0.3333    0.0000
  band No.  band energies     occupation 
      1      -9.4452      2.00000
      2      -9.1983      2.00000
      3      -8.9094      2.00000
      4      -8.6988      2.00000
      5      -4.6059      2.00000
      6      -3.9159      2.00000
      7      -3.8831      2.00000
      8      -3.5314      2.00000
      9      -1.4141      2.00000
     10      -1.1231      2.00000
     11      -0.4713      2.00000
     12      -0.1767      2.00000
     13       0.1648      2.00000
     14       0.7030      2.00000
     15       1.1407      2.00000
     16       1.3604      2.00000
     17       1.9392      2.00000
     18       2.1998      2.00000
     19       2.4229      2.00000
     20       2.8579      2.00000
     21       5.0641      0.00000
     22       6.9147      0.00000
     23       7.0017      0.00000
     24       7.3299      0.00000
     25       7.7167      0.00000
     26       8.1682      0.00000
     27       8.2960      0.00000
     28       8.6106      0.00000
     29       9.2003      0.00000
     30       9.3736      0.00000
     31       9.4549      0.00000
     32       9.9677      0.00000

 k-point    16 :       0.5000    0.3333    0.0000
  band No.  band energies     occupation 
      1      -9.0773      2.00000
      2      -9.0773      2.00000
      3      -8.8668      2.00000
      4      -8.8668      2.00000
      5      -4.2949      2.00000
      6      -4.2949      2.00000
      7      -3.6277      2.00000
      8      -3.6277      2.00000
      9      -1.2570      2.00000
     10      -1.2570      2.00000
     11      -0.8753      2.00000
     12      -0.8753      2.00000
     13       0.2350      2.00000
     14       0.2350      2.00000
     15       0.9997      2.00000
     16       0.9997      2.00000
     17       1.4999      2.00000
     18       1.4999      2.00000
     19       2.5202      2.00000
     20       2.5202      2.00000
     21       6.0296      0.00000
     22       6.0296      0.00000
     23       7.9852      0.00000
     24       7.9852      0.00000
     25       8.7323      0.00000
     26       8.7323      0.00000
     27       8.8027      0.00000
     28       8.8027      0.00000
     29       9.1217      0.00000
     30       9.1217      0.00000
     31      10.0138      0.00000
     32      10.0139      0.00000

 k-point    17 :       0.0000    0.5000    0.0000
  band No.  band energies     occupation 
      1      -9.2189      2.00000
      2      -9.2189      2.00000
      3      -9.1173      2.00000
      4      -9.1173      2.00000
      5      -4.9294      2.00000
      6      -4.9294      2.00000
      7      -4.2862      2.00000
      8      -4.2862      2.00000
      9       0.1207      2.00000
     10       0.1207      2.00000
     11       1.6730      2.00000
     12       1.6730      2.00000
     13       1.7339      2.00000
     14       1.7339      2.00000
     15       2.2325      2.00000
     16       2.2325      2.00000
     17       2.9621      2.00000
     18       2.9621      2.00000
     19       3.1664      2.00000
     20       3.1664      2.00000
     21       5.1765      0.00000
     22       5.1765      0.00000
     23       5.2511      0.00000
     24       5.2511      0.00000
     25       5.6077      0.00000
     26       5.6077      0.00000
     27       6.2074      0.00000
     28       6.2074      0.00000
     29       6.6594      0.00000
     30       6.6594      0.00000
     31       8.9716      0.00000
     32       8.9716      0.00000

 k-point    18 :       0.1667    0.5000    0.0000
  band No.  band energies     occupation 
      1      -9.1351      2.00000
      2      -9.1351      2.00000
      3      -9.0443      2.00000
      4      -9.0443      2.00000
      5      -4.7525      2.00000
      6      -4.7525      2.00000
      7      -4.1614      2.00000
      8      -4.1614      2.00000
      9      -0.0181      2.00000
     10      -0.0181      2.00000
     11       0.3480      2.00000
     12       0.3480      2.00000
     13       0.9445      2.00000
     14       0.9445      2.00000
     15       1.8165      2.00000
     16       1.8165      2.00000
     17       2.2631      2.00000
     18       2.2631      2.00000
     19       3.0503      2.00000
     20       3.0503      2.00000
     21       5.1342      0.00000
     22       5.1342      0.00000
     23       6.3542      0.00000
     24       6.3542      0.00000
     25       6.9275      0.00000
     26       6.9275      0.00000
     27       7.3515      0.00000
     28       7.3515      0.00000
     29       8.2578      0.00000
     30       8.2578      0.00000
     31       8.6515      0.00000
     32       8.6515      0.00000

 k-point    19 :       0.3333    0.5000    0.0000
  band No.  band energies     occupation 
      1      -8.9503      2.00000
      2      -8.9503      2.00000
      3      -8.8909      2.00000
      4      -8.8909      2.00000
      5      -4.2978      2.00000
      6      -4.2978      2.00000
      7      -3.8907      2.00000
      8      -3.8907      2.00000
      9      -1.0736      2.00000
     10      -1.0736      2.00000
     11      -0.7090      2.00000
     12      -0.7090      2.00000
     13       0.1341      2.00000
     14       0.1341      2.00000
     15       0.9183      2.00000
     16       0.9183      2.00000
     17       1.3825      2.00000
     18       1.3825      2.00000
     19       2.4912      2.00000
     20       2.4912      2.00000
     21       6.1277      0.00000
     22       6.1277      0.00000
     23       7.7637      0.00000
     24       7.7637      0.00000
     25       8.5777      0.00000
     26       8.5777      0.00000
     27       8.7517      0.00000
     28       8.7517      0.00000
     29       9.1031      0.00000
     30       9.1031      0.00000
     31       9.9812      0.00000
     32       9.9812      0.00000

 k-point    20 :       0.5000    0.5000    0.0000
  band No.  band energies     occupation 
      1      -8.8427      2.00000
      2      -8.8427      2.00000
      3      -8.8149      2.00000
      4      -8.8149      2.00000
      5      -3.9599      2.00000
      6      -3.9599      2.00000
      7      -3.7641      2.00000
      8      -3.7641      2.00000
      9      -1.5540      2.00000
     10      -1.5540      2.00000
     11      -1.2222      2.00000
     12      -1.2222      2.00000
     13      -0.2425      2.00000
     14      -0.2425      2.00000
     15       0.2475      2.00000
     16       0.2475      2.00000
     17       1.5467      2.00000
     18       1.5467      2.00000
[...]
     32       8.1439      0.00000

 k-point    32 :       0.1667    0.3333    0.5000
  band No.  band energies     occupation 
      1      -9.6672      2.00000
      2      -9.6672      2.00000
      3      -8.7988      2.00000
      4      -8.7988      2.00000
      5      -4.5899      2.00000
      6      -4.5899      2.00000
      7      -3.6351      2.00000
      8      -3.6351      2.00000
      9      -0.4404      2.00000
     10      -0.4404      2.00000
     11       0.3288      2.00000
     12       0.3288      2.00000
     13       1.0199      2.00000
     14       1.0199      2.00000
     15       2.0263      2.00000
     16       2.0263      2.00000
     17       2.4107      2.00000
     18       2.4107      2.00000
     19       3.2472      2.00000
     20       3.2472      2.00000
     21       5.6270      0.00000
     22       5.6270      0.00000
     23       6.1074      0.00000
     24       6.1074      0.00000
     25       6.9807      0.00000
     26       6.9807      0.00000
     27       7.4133      0.00000
     28       7.4133      0.00000
     29       7.9645      0.00000
     30       7.9645      0.00000
     31       9.1811      0.00000
     32       9.1811      0.00000

 k-point    33 :      -0.1667    0.3333    0.5000
  band No.  band energies     occupation 
      1      -9.6672      2.00000
      2      -9.6672      2.00000
      3      -8.7988      2.00000
      4      -8.7988      2.00000
      5      -4.5899      2.00000
      6      -4.5899      2.00000
      7      -3.6351      2.00000
      8      -3.6351      2.00000
      9      -0.4404      2.00000
     10      -0.4404      2.00000
     11       0.3288      2.00000
     12       0.3288      2.00000
     13       1.0199      2.00000
     14       1.0199      2.00000
     15       2.0263      2.00000
     16       2.0263      2.00000
     17       2.4107      2.00000
     18       2.4107      2.00000
     19       3.2472      2.00000
     20       3.2472      2.00000
     21       5.6270      0.00000
     22       5.6270      0.00000
     23       6.1074      0.00000
     24       6.1074      0.00000
     25       6.9807      0.00000
     26       6.9807      0.00000
     27       7.4133      0.00000
     28       7.4133      0.00000
     29       7.9645      0.00000
     30       7.9645      0.00000
     31       9.1811      0.00000
     32       9.1811      0.00000

 k-point    34 :       0.3333    0.3333    0.5000
  band No.  band energies     occupation 
      1      -9.3474      2.00000
      2      -9.3474      2.00000
      3      -8.7785      2.00000
      4      -8.7785      2.00000
      5      -4.3372      2.00000
      6      -4.3372      2.00000
      7      -3.6666      2.00000
      8      -3.6666      2.00000
      9      -1.2390      2.00000
     10      -1.2390      2.00000
     11      -0.2096      2.00000
     12      -0.2096      2.00000
     13       0.4012      2.00000
     14       0.4012      2.00000
     15       1.1511      2.00000
     16       1.1511      2.00000
     17       1.8912      2.00000
     18       1.8912      2.00000
     19       2.7612      2.00000
     20       2.7612      2.00000
     21       6.4069      0.00000
     22       6.4069      0.00000
     23       6.9728      0.00000
     24       6.9728      0.00000
     25       7.2634      0.00000
     26       7.2634      0.00000
     27       8.5008      0.00000
     28       8.5008      0.00000
     29       9.1407      0.00000
     30       9.1407      0.00000
     31      10.4148      0.00000
     32      10.4148      0.00000

 k-point    35 :      -0.3333    0.3333    0.5000
  band No.  band energies     occupation 
      1      -9.3474      2.00000
      2      -9.3474      2.00000
      3      -8.7785      2.00000
      4      -8.7785      2.00000
      5      -4.3372      2.00000
      6      -4.3372      2.00000
      7      -3.6666      2.00000
      8      -3.6666      2.00000
      9      -1.2390      2.00000
     10      -1.2390      2.00000
     11      -0.2096      2.00000
     12      -0.2096      2.00000
     13       0.4012      2.00000
     14       0.4012      2.00000
     15       1.1511      2.00000
     16       1.1511      2.00000
     17       1.8912      2.00000
     18       1.8912      2.00000
     19       2.7612      2.00000
     20       2.7612      2.00000
     21       6.4069      0.00000
     22       6.4069      0.00000
     23       6.9728      0.00000
     24       6.9728      0.00000
     25       7.2634      0.00000
     26       7.2634      0.00000
     27       8.5008      0.00000
     28       8.5008      0.00000
     29       9.1407      0.00000
     30       9.1407      0.00000
     31      10.4148      0.00000
     32      10.4148      0.00000

 k-point    36 :       0.5000    0.3333    0.5000
  band No.  band energies     occupation 
      1      -9.0736      2.00000
      2      -9.0736      2.00000
      3      -8.8714      2.00000
      4      -8.8714      2.00000
      5      -4.2375      2.00000
      6      -4.2375      2.00000
      7      -3.7099      2.00000
      8      -3.7099      2.00000
      9      -1.0736      2.00000
     10      -1.0736      2.00000
     11      -1.0532      2.00000
     12      -1.0532      2.00000
     13       0.5114      2.00000
     14       0.5114      2.00000
     15       0.5569      2.00000
     16       0.5569      2.00000
     17       1.8704      2.00000
     18       1.8704      2.00000
     19       2.3229      2.00000
     20       2.3229      2.00000
     21       6.3686      0.00000
     22       6.3686      0.00000
     23       7.2026      0.00000
     24       7.2026      0.00000
     25       8.4846      0.00000
     26       8.4846      0.00000
     27       8.6147      0.00000
     28       8.6147      0.00000
     29       9.8745      0.00000
     30       9.8745      0.00000
     31      10.1896      0.00000
     32      10.1896      0.00000

 k-point    37 :       0.0000    0.5000    0.5000
  band No.  band energies     occupation 
      1      -9.1696      2.00000
      2      -9.1696      2.00000
      3      -9.1696      2.00000
      4      -9.1696      2.00000
      5      -4.6338      2.00000
      6      -4.6338      2.00000
      7      -4.6338      2.00000
      8      -4.6338      2.00000
      9       0.9456      2.00000
     10       0.9456      2.00000
     11       0.9456      2.00000
     12       0.9456      2.00000
     13       1.8403      2.00000
     14       1.8403      2.00000
     15       1.8403      2.00000
     16       1.8403      2.00000
     17       2.9835      2.00000
     18       2.9835      2.00000
     19       2.9835      2.00000
     20       2.9835      2.00000
     21       5.5341      0.00000
     22       5.5341      0.00000
     23       5.5341      0.00000
     24       5.5341      0.00000
     25       5.9096      0.00000
     26       5.9096      0.00000
     27       5.9096      0.00000
     28       5.9096      0.00000
     29       7.4874      0.00000
     30       7.4874      0.00000
     31       7.4874      0.00000
     32       7.4874      0.00000

 k-point    38 :       0.1667    0.5000    0.5000
  band No.  band energies     occupation 
      1      -9.0909      2.00000
      2      -9.0909      2.00000
      3      -9.0909      2.00000
      4      -9.0909      2.00000
      5      -4.4796      2.00000
      6      -4.4796      2.00000
      7      -4.4796      2.00000
      8      -4.4796      2.00000
      9       0.3208      2.00000
     10       0.3208      2.00000
     11       0.3208      2.00000
     12       0.3208      2.00000
     13       1.1952      2.00000
     14       1.1952      2.00000
     15       1.1952      2.00000
     16       1.1952      2.00000
     17       2.5405      2.00000
     18       2.5405      2.00000
     19       2.5405      2.00000
     20       2.5405      2.00000
     21       6.1023      0.00000
     22       6.1023      0.00000
     23       6.1023      0.00000
     24       6.1023      0.00000
     25       7.1823      0.00000
     26       7.1823      0.00000
     27       7.1823      0.00000
     28       7.1823      0.00000
     29       8.0163      0.00000
     30       8.0163      0.00000
     31       8.0163      0.00000
     32       8.0163      0.00000

 k-point    39 :       0.3333    0.5000    0.5000
  band No.  band energies     occupation 
      1      -8.9211      2.00000
      2      -8.9211      2.00000
      3      -8.9211      2.00000
      4      -8.9211      2.00000
      5      -4.1074      2.00000
      6      -4.1074      2.00000
      7      -4.1074      2.00000
      8      -4.1074      2.00000
      9      -0.8467      2.00000
     10      -0.8467      2.00000
     11      -0.8467      2.00000
     12      -0.8467      2.00000
     13       0.3288      2.00000
     14       0.3288      2.00000
     15       0.3288      2.00000
     16       0.3288      2.00000
     17       2.1107      2.00000
     18       2.1107      2.00000
     19       2.1107      2.00000
     20       2.1107      2.00000
     21       6.7148      0.00000
     22       6.7148      0.00000
     23       6.7148      0.00000
     24       6.7148      0.00000
     25       8.4397      0.00000
     26       8.4397      0.00000
     27       8.4397      0.00000
     28       8.4397      0.00000
     29      10.0584      0.00000
     30      10.0584      0.00000
     31      10.0584      0.00000
     32      10.0584      0.00000

 k-point    40 :       0.5000    0.5000    0.5000
  band No.  band energies     occupation 
      1      -8.8289      2.00000
      2      -8.8289      2.00000
      3      -8.8289      2.00000
      4      -8.8289      2.00000
      5      -3.8719      2.00000
      6      -3.8719      2.00000
      7      -3.8719      2.00000
      8      -3.8719      2.00000
      9      -1.2782      2.00000
     10      -1.2782      2.00000
     11      -1.2782      2.00000
     12      -1.2782      2.00000
     13      -0.2707      2.00000
     14      -0.2707      2.00000
     15      -0.2707      2.00000
     16      -0.2707      2.00000
     17       2.1596      2.00000
     18       2.1596      2.00000
     19       2.1596      2.00000
     20       2.1596      2.00000
     21       6.4830      0.00000
     22       6.4830      0.00000
     23       6.4830      0.00000
     24       6.4830      0.00000
     25       9.5894      0.00000
     26       9.5894      0.00000
     27       9.5894      0.00000
     28       9.5894      0.00000
     29      10.6709      0.00000
     30      10.6709      0.00000
     31      10.6709      0.00000
     32      10.6709      0.00000


--------------------------------------------------------------------------------------------------------


 soft charge-density along one line, spin component            1
         0         1         2         3         4         5         6         7         8         9
 total charge-density along one line
 
 pseudopotential strength for first ion, spin component:            1
 14.338  17.882  -0.000   0.043   0.034  -0.000   0.077   0.062
 17.882  22.318  -0.000   0.054   0.043  -0.000   0.098   0.078
 -0.000  -0.000   3.196   0.000  -0.000   5.438   0.000  -0.000
  0.043   0.054   0.000   3.193  -0.002   0.000   5.433  -0.004
  0.034   0.043  -0.000  -0.002   3.195  -0.000  -0.004   5.436
 -0.000  -0.000   5.438   0.000  -0.000   9.309   0.000  -0.000
  0.077   0.098   0.000   5.433  -0.004   0.000   9.302  -0.007
  0.062   0.078  -0.000  -0.004   5.436  -0.000  -0.007   9.306
 -0.000  -0.000   0.006   0.000  -0.000   0.011   0.000  -0.000
  0.000   0.000   0.011  -0.000   0.000   0.021  -0.000   0.000
 -0.002  -0.003   0.000   0.010  -0.003   0.000   0.019  -0.006
 -0.005  -0.006   0.000   0.010   0.012   0.000   0.019   0.021
 -0.001  -0.001   0.000   0.000   0.010   0.000   0.000   0.018
 total augmentation occupancy for first ion, spin component:            1
  2.770  -0.751   0.000   0.357   0.284  -0.000  -0.066  -0.052   0.000   0.000  -0.009  -0.010  -0.011
 -0.751   0.728  -0.000  -0.459  -0.361   0.000   0.072   0.056  -0.000  -0.000   0.012   0.008   0.009
  0.000  -0.000   1.263   0.000   0.000  -0.222  -0.000  -0.000   0.120   0.029  -0.000   0.000   0.000
  0.357  -0.459   0.000   1.289   0.051  -0.000  -0.214   0.002   0.000  -0.000   0.113  -0.008   0.000
  0.284  -0.361   0.000   0.051   1.235  -0.000   0.002  -0.205  -0.000  -0.000  -0.075   0.031  -0.006
 -0.000   0.000  -0.222  -0.000  -0.000   0.043   0.000   0.000  -0.021  -0.005   0.000  -0.000  -0.000
 -0.066   0.072  -0.000  -0.214   0.002   0.000   0.040  -0.002  -0.000   0.000  -0.020   0.001  -0.000
 -0.052   0.056  -0.000   0.002  -0.205   0.000  -0.002   0.038   0.000   0.000   0.012  -0.005   0.001
  0.000  -0.000   0.120   0.000  -0.000  -0.021  -0.000   0.000   0.036   0.002   0.000   0.000   0.000
  0.000  -0.000   0.029  -0.000  -0.000  -0.005   0.000   0.000   0.002   0.011   0.000  -0.000  -0.000
 -0.009   0.012  -0.000   0.113  -0.075   0.000  -0.020   0.012   0.000   0.000   0.035  -0.005   0.002
 -0.010   0.008   0.000  -0.008   0.031  -0.000   0.001  -0.005   0.000  -0.000  -0.005   0.011  -0.001
 -0.011   0.009   0.000   0.000  -0.006  -0.000  -0.000   0.001   0.000  -0.000   0.002  -0.001   0.009


------------------------ aborting loop because EDIFF is reached ----------------------------------------


    CHARGE:  cpu time      0.0029: real time      0.0029
    FORLOC:  cpu time      0.0001: real time      0.0001
    FORNL :  cpu time      0.0198: real time      0.0198
    STRESS:  cpu time      0.1814: real time      0.1822
    FORCOR:  cpu time      0.0031: real time      0.0031
    FORHAR:  cpu time      0.0008: real time      0.0008
    MIXING:  cpu time      0.0006: real time      0.0006
    OFIELD:  cpu time      0.0000: real time      0.0000

  FORCE on cell =-STRESS in cart. coord.  units (eV):
  Direction    XX          YY          ZZ          XY          YZ          ZX
  --------------------------------------------------------------------------------------
  Alpha Z    93.90196    93.90196    93.90196
  Ewald    -489.78859  -453.50249  -522.16268     0.00000     0.00000    -0.00000
  Hartree    40.83505    53.47011    23.72291     0.00000     0.00000     0.00000
  E(xc)    -141.60017  -141.54107  -142.08901    -0.00000    -0.00000     0.00000
  Local    -128.10235  -171.98511   -82.25446    -0.00000    -0.00000     0.00000
  n-local   240.45581   241.11435   242.72790     0.00000     0.00000    -0.00000
  augment   -11.72220   -11.35012   -12.06275    -0.00000    -0.00000     0.00000
  Kinetic   400.41163   392.99690   399.69884    -0.00000    -0.00000    -0.00000
  Fock        0.00000     0.00000     0.00000     0.00000     0.00000     0.00000
  -------------------------------------------------------------------------------------
  Total       4.39114     3.10453     1.48269    -0.00000    -0.00000     0.00000
  in kB      38.98841    27.56476    13.16463    -0.00001    -0.00000     0.00000
  external pressure =       26.57 kB  Pullay stress =        0.00 kB


 VOLUME and BASIS-vectors are now :
 -----------------------------------------------------------------------------
  energy-cutoff  :      360.00
  volume of cell :      180.45
      direct lattice vectors                 reciprocal lattice vectors
     4.100000000  0.000000000  0.000000000     0.243902439  0.000000000  0.000000000
     0.000000000  3.950000000  0.000000000     0.000000000  0.253164557  0.000000000
     0.000000000  0.000000000 11.142221000     0.000000000  0.000000000  0.089748713

  length of vectors
     4.100000000  3.950000000 11.142221000     0.243902439  0.253164557  0.089748713


 FORCES acting on ions
    electron-ion (+dipol)            ewald-force                    non-local-force                 convergence-correction
 -----------------------------------------------------------------------------------------------
   0.101E+02 -.158E-05 0.249E+02   -.123E+02 -.168E-14 -.275E+02   0.208E+01 0.115E-05 0.269E+01   -.804E-04 0.494E-06 -.107E-02
   0.101E+02 -.239E-05 -.249E+02   -.123E+02 0.121E-14 0.275E+02   0.208E+01 0.136E-05 -.269E+01   -.790E-04 0.117E-05 0.107E-02
   -.101E+02 0.313E-06 -.249E+02   0.123E+02 -.159E-14 0.275E+02   -.208E+01 -.579E-06 -.269E+01   0.800E-04 0.141E-06 0.107E-02
   -.101E+02 0.351E-05 0.249E+02   0.123E+02 -.434E-15 -.275E+02   -.208E+01 -.201E-05 0.269E+01   0.794E-04 -.173E-05 -.107E-02
   -.942E+01 0.330E-05 -.266E+02   0.105E+02 -.921E-15 0.282E+02   -.947E+00 -.974E-06 -.165E+01   0.198E-03 -.252E-05 0.189E-02
   -.942E+01 0.619E-06 0.266E+02   0.105E+02 0.291E-14 -.282E+02   -.947E+00 -.231E-06 0.165E+01   0.198E-03 -.782E-06 -.190E-02
   0.942E+01 -.330E-05 0.266E+02   -.105E+02 -.424E-15 -.282E+02   0.947E+00 0.753E-06 0.165E+01   -.198E-03 0.286E-05 -.190E-02
   0.942E+01 0.235E-05 -.266E+02   -.105E+02 0.537E-15 0.282E+02   0.947E+00 -.104E-05 -.165E+01   -.199E-03 -.980E-06 0.190E-02
 -----------------------------------------------------------------------------------------------
   0.110E-05 0.283E-05 -.899E-06   -.533E-14 -.391E-15 0.711E-14   0.145E-07 -.157E-05 -.437E-06   -.822E-06 -.135E-05 0.108E-05
 
 
 POSITION                                       TOTAL-FORCE (eV/Angst)
 -----------------------------------------------------------------------------------
      0.40641      0.98750      1.42909        -0.069907      0.000000      0.022274
      2.45641      2.96250      4.14202        -0.069907      0.000000     -0.022273
      3.69359      2.96250      9.71313         0.069907     -0.000000     -0.022274
      1.64359      0.98750      7.00020         0.069907     -0.000000      0.022274
      0.06253      0.98750      3.99247         0.084732     -0.000000     -0.012945
      2.11253      2.96250      1.57864         0.084732     -0.000000      0.012946
      4.03747      2.96250      7.14975        -0.084732      0.000000      0.012944
      1.98747      0.98750      9.56358        -0.084731      0.000000     -0.012946
 -----------------------------------------------------------------------------------
    total drift:                                0.000000     -0.000000     -0.000000


--------------------------------------------------------------------------------------------------------



  FREE ENERGIE OF THE ION-ELECTRON SYSTEM (eV)
  ---------------------------------------------------
  free  energy   TOTEN  =       -33.67806279 eV

  energy  without entropy=      -33.67806277  energy(sigma->0) =      -33.67806278
 


--------------------------------------------------------------------------------------------------------


    POTLOK:  cpu time      0.1132: real time      0.1138


--------------------------------------------------------------------------------------------------------


     LOOP+:  cpu time      4.8388: real time      4.8782
    4ORBIT:  cpu time      0.0000: real time      0.0000

 total amount of memory used by VASP MPI-rank0    37765. kBytes
=======================================================================

   base      :      30000. kBytes
   nonl-proj :       6082. kBytes
   fftplans  :        289. kBytes
   grid      :        416. kBytes
   one-center:         16. kBytes
   wavefun   :        962. kBytes
 
  
  
 General timing and accounting informations for this job:
 ========================================================
  
                  Total CPU time used (sec):        5.565
                            User time (sec):        5.390
                          System time (sec):        0.175
                         Elapsed time (sec):        7.264
  
                   Maximum memory used (kb):      188772.
                   Average memory used (kb):          N/A
  
                          Minor page faults:        21217
                          Major page faults:           29
                 Voluntary context switches:         9258
