 running  128 mpi-ranks, with    1 threads/rank, on    2 nodes
 distrk:  each k-point on   64 cores,    2 groups
 distr:  one band on    4 cores,   16 groups
 vasp.6.4.2 20Jul23 (build Oct 12 2023 10:31:02) complex                         
 POSCAR found type information on POSCAR GeSe
 POSCAR found :  2 types and       8 ions
 Reading from existing POTCAR
 scaLAPACK will be used
 Reading from existing POTCAR
 LDA part: xc-table for Pade appr. of Perdew
 POSCAR, INCAR and KPOINTS ok, starting setup
 FFT: planning ... GRIDC
 FFT: planning ... GRID_SOFT
 FFT: planning ... GRID
 WAVECAR not read
 entering main loop
       N       E                     dE             d eps       ncg     rms          rms(c)
DAV:   1     0.127614126736E+03    0.12761E+03   -0.12986E+04  2560   0.780E+02
DAV:   2    -0.261486124121E+02   -0.15376E+03   -0.14958E+03  3712   0.141E+02
DAV:   3    -0.339893153319E+02   -0.78407E+01   -0.78233E+01  3104   0.365E+01
DAV:   4    -0.340374411149E+02   -0.48126E-01   -0.48111E-01  3312   0.327E+00
DAV:   5    -0.340377285879E+02   -0.28747E-03   -0.28746E-03  3072   0.246E-01    0.666E+00
DAV:   6    -0.336871948596E+02    0.35053E+00   -0.68376E-01  3280   0.283E+00    0.417E+00
DAV:   7    -0.336808597986E+02    0.63351E-02   -0.23829E-01  3280   0.172E+00    0.118E+00
DAV:   8    -0.336777967114E+02    0.30631E-02   -0.29133E-02  3008   0.632E-01    0.168E-01
DAV:   9    -0.336780164032E+02   -0.21969E-03   -0.32723E-03  3216   0.254E-01    0.615E-02
DAV:  10    -0.336780422133E+02   -0.25810E-04   -0.17582E-04  3136   0.595E-02    0.233E-02
DAV:  11    -0.336780631387E+02   -0.20925E-04   -0.33057E-05  3136   0.267E-02    0.102E-02
DAV:  12    -0.336780627880E+02    0.35073E-06   -0.43106E-06  3136   0.822E-03
   1 F= -.33678063E+02 E0= -.33678063E+02  d E =-.131892E-07
