72
Lattice="12.448901279576614 -1.1087097091e-06 -5.249748252e-07 -1.1135325347e-06 12.503053249838116 -2.6718617145e-06 -6.007245118e-07 -3.0441482069e-06 11.066189464840924" Properties=species:S:1:pos:R:3:forces:R:3:magmoms:R:1 energy=-300.65951414 stress="0.010568602456291692 0.00015056737619822846 -0.00037844528632382856 0.00015056737619822846 -0.004123434747600581 0.0012093712296416504 -0.00037844528632382856 0.0012093712296416504 -0.004173145259516697" dipole="_JSON [[0.0, 0.0, 0.0]]" magmom=0.0017793 free_energy=-300.65951414 pbc="T T T"
Ge       0.95785673       0.45736236       1.30574608       0.43897411      -0.12667607       0.34564967      -0.00000000
Ge       3.05638291      10.92813824       4.03417347      -0.29585948      -0.09996816      -0.38563360      -0.00000000
Ge       7.20092958       2.49054474       4.23386250      -0.08710878       0.20728875      -0.18343561       0.00000000
Ge       7.12521159       6.59225710       4.15306459       0.10793160       0.30564510      -0.16330576       0.00000000
Ge       7.07376124      11.05210604       4.23622132       0.45074415      -0.91867853      -0.10561479       0.00000000
Ge      11.38574954       2.54677559       4.11587306       0.25837347      -0.17045529      -0.41224705       0.00000000
Ge      11.11466721       6.59547118       4.27740391      -0.02773359       0.12173774      -0.52441778       0.00000000
Ge      11.32982495      10.75029245       4.06958555       0.21488982       0.14695613      -0.24399465       0.00000000
Ge       0.70254418       1.92459207       6.98057898       0.61826945       0.02516565      -0.08638607       0.00000000
Ge       0.65627298       5.89103464       6.89697969       0.49898684       0.17978006      -0.06342727       0.00000000
Ge       0.76302398      10.18379560       6.73736660       0.48824135      -0.33727516       0.81215313      -0.00000000
Ge       4.81017606       1.87950173       7.14920123       0.11830065      -0.12893222      -0.46846071       0.00000000
Ge       4.94989219       6.07335246       7.01188415       0.04878470       0.12148133       0.23223713      -0.00000000
Ge       5.01551087      10.49837096       6.99402700      -0.11761770      -0.68827177       0.58210500      -0.00000000
Ge       9.29380109       1.57648702       7.09820844      -0.36752909       0.56524461      -0.30738981       0.00000000
Ge       9.11133050       5.96504105       6.95887251      -0.25677630      -0.14553263      -0.49475696       0.00000000
Ge       2.90982062       6.78376463       4.20652894       0.19012420      -0.45009452      -0.14494084      -0.00000000
Ge       3.28645789       2.55708344       4.11961656      -0.58521431       0.02242562      -0.35868066       0.00000000
Ge       9.24583734      10.12621498       6.97828532      -0.27339704      -0.10795353      -0.26007350       0.00000000
Ge      11.14730729       8.17610851       9.70370231       0.44407931       0.09051698      -0.08771184       0.00000000
Ge      11.14419446      12.37012423       9.63523897       0.49394039      -0.17450466       0.34832572       0.00000000
Ge       0.98680311       4.65055899       1.55567473       0.15710221      -0.42841825       0.17551638       0.00000000
Ge       1.04591093       8.47571808       1.48572501      -0.00225697       0.48837764       0.38760203      -0.00000000
Ge       5.16587504       0.36277106       1.41018230      -0.53499549       0.11663324      -0.86552956       0.00000000
Ge       5.20501200       4.61766699       1.40182304      -0.03901787       0.25006675       0.40157247       0.00000000
Ge       9.27599532       0.32979167       1.43089375       0.21205397       0.03268639       0.21121893       0.00000000
Ge       9.13857425       4.45894147       1.35745416       0.28815197       0.35763530      -0.10344646       0.00000000
Ge       5.22236051       8.59307176       1.68579854      -0.28305277       0.29352726       0.16753980      -0.00000000
Ge       3.12660919       3.96266622       9.71668546      -0.12573147       0.11473745      -0.25667671      -0.00000000
Ge       2.72498626       8.18079872       9.69246585       0.07582229       0.03867882      -0.29104791      -0.00000000
Ge       3.12891122      11.96361482       9.69987084      -0.45955284       0.32383830       0.27358777      -0.00000000
Ge       7.07100286       3.84546542       9.63098116      -0.14220218       0.10291151      -0.18624102       0.00000000
Ge       7.11465587       8.03433578       9.60770054      -0.08873446       0.05078623       0.00210231       0.00000000
Ge       7.29324961      12.44650165       9.65724835      -0.33289483      -0.22637710      -0.09828020       0.00000000
Ge      11.47540579       3.92948626       9.54170439      -0.34666298       0.37083955       0.25225743       0.00000000
Ge       9.13777180       8.94258635       1.22465941       0.16767458      -0.07911330       0.48449143       0.00000000
Se      11.41877069       0.04927207       7.14822970      -0.27560395      -0.15196132      -0.15512548      -0.00000000
Se       2.96033068       4.38994316       7.12629016      -0.00091887      -0.20188687       0.28657487      -0.00000000
Se       2.97349234       8.46593329       7.19516985      -0.06231675       0.33261725      -0.27850468      -0.00000000
Se       7.04176800       0.15150774       7.12594260      -0.06819891      -0.03384300      -0.01277689      -0.00000000
Se       7.06027883       4.25854301       7.09769870       0.22882419       0.14356321       0.23600553      -0.00000000
Se       7.18599008       8.50886637       7.11452442       0.11620718       0.02238336      -0.06330209      -0.00000000
Se      11.32921217       4.01380515       6.99045054      -0.49561287       0.28547154       0.05575164      -0.00000000
Se       9.27602603      -0.09744993       3.96724270       0.04795789       0.60928985       0.01595795      -0.00000000
Se       0.98855216       0.16951941       3.89057676       0.05592993      -0.60501428      -0.13289132      -0.00000000
Se       1.07719640       4.20025379       4.12457645      -0.12528771      -0.12163938      -0.38633482      -0.00000000
Se       0.80046282       8.25621201       4.11823732       0.03856172       0.45404856      -0.52359783      -0.00000000
Se       5.11668227       0.06630941       3.83040919      -0.54923647       0.48879134       0.96989140      -0.00000000
Se       5.17220456       4.35840204       4.03479675       0.23712858      -0.34010004      -0.51118319      -0.00000000
Se       5.04348090       8.35072478       4.27867082       0.29133684       0.07772086      -0.62482103      -0.00000000
Se       2.94846301       0.04641590       7.20798811       0.22779822       0.18061077      -0.22674890      -0.00000000
Se      11.29178059       8.46813751       7.15616731      -0.23895800       0.15665143      -0.11284444      -0.00000000
Se      11.31949250      10.46763973       1.55282540       0.02079206      -0.17981181       0.06347697      -0.00000000
Se       3.04363215       2.23323773       1.51404667       0.23975545      -0.30306899       0.39861059      -0.00000000
Se      11.43015800       2.02733120       1.50680167      -0.59561409       0.47160036       0.36430590      -0.00000000
Se       9.25305128       4.13539848       3.83430634      -0.05461371       0.00645569       0.34910746      -0.00000000
Se       1.00481743       2.39488328       9.46624620       0.18063414      -0.64047129       0.21698739      -0.00000000
Se       0.64719155       6.43873281       9.42195239       0.22457389      -0.33004649       0.29960880      -0.00000000
Se       0.95019114      10.49334143       9.46614999      -0.15830380      -0.01434163      -0.40812213      -0.00000000
Se       5.04233686       2.11601637       9.61895346       0.07089283       0.28637868       0.13106792      -0.00000000
Se       5.05106554       6.40934393       9.57397529       0.07202029      -0.06321369      -0.12763067      -0.00000000
Se       5.10978749      10.37348872       9.60452771       0.35657820       0.14246390      -0.56209219      -0.00000000
Se       9.14942573       2.15439128       9.58639937       0.19745913      -0.14066697      -0.02338723      -0.00000000
Se       9.34170593       6.44486967       9.35218852      -0.58656709      -0.52980419       0.62562414      -0.00000000
Se       9.21232226      10.69791926       9.48251626       0.03675239      -0.33900646       0.14122311      -0.00000000
Se       2.99866335       6.37077386       1.56950859       0.17322066      -0.05386725       0.30923167      -0.00000000
Se       3.19727793      10.30983252       1.45861043      -0.43506561      -0.11816871       0.68807409      -0.00000000
Se       7.14187894       1.97722518       1.66652864       0.35410054       0.60698075       0.06161940      -0.00000000
Se       7.30812701       6.39068507       1.56029795      -0.44044407      -0.56020111       0.11772004      -0.00000000
Se       7.08008404      10.53533880       1.65709098       0.19261169      -0.22688981       0.09114789      -0.00000000
Se      11.39350442       6.16661733       1.68450310      -0.48471448       0.23646624       0.19422267      -0.00000000
Se       9.15236895       8.30332462       3.83993371       0.30221369       0.20780031      -0.05150703      -0.00000000
72
Lattice="12.454905647363272 -1.1092444632e-06 -5.252280316e-07 -1.1131354274e-06 12.498594418477978 -2.6709088768e-06 -6.003826901e-07 -3.0424160384e-06 11.059892628011015" Properties=species:S:1:pos:R:3:forces:R:3:magmoms:R:1 energy=-300.26804773 stress="0.006649892060389751 0.0011833312291458448 -0.00017718598331453072 0.0011833312291458448 -0.005459445386010217 -5.8300145431756394e-05 -0.00017718598331453072 -5.8300145431756394e-05 -0.010067695240706885" dipole="_JSON [[0.0, 0.0, 0.0]]" magmom=0.0018322 free_energy=-300.26804773 pbc="T T T"
Ge       1.06786157       0.60565697       1.53822031      -0.34610949      -0.35962391      -0.11250185       0.00000000
Ge       2.78200837      10.84928928       3.97100397       0.56469029      -0.16249076       0.37277783       0.00000000
Ge       7.08351697       2.39922619       4.27315569       0.14122210      -0.04766701      -0.06964917       0.00000000
Ge       7.51822940       6.63616700       3.88153168      -0.52957094      -0.38672876       0.35405558       0.00000000
Ge       7.20113574      10.80010059       4.27885578      -0.19084858       0.47850538      -0.60215139      -0.00000000
Ge      11.32476043       2.50669596       4.04261894       0.03205208       0.04460930       0.33682827       0.00000000
Ge      11.03080398       6.54441983       4.05247610       0.94923186      -0.23065378       0.00860934       0.00000000
Ge      11.50552899      10.87716842       4.06761573      -0.52799145       0.06336352       0.06122061       0.00000000
Ge       0.92805763       1.75031122       7.16113714      -0.26008782       0.27170324      -0.16374020       0.00000000
Ge       1.02769464       6.07682875       6.99712923      -0.16403611      -0.15783722       0.27287435       0.00000000
Ge       1.07728560      10.13357407       7.00841398      -0.39063260       0.09140766      -0.36792645       0.00000000
Ge       4.87510931       1.94241152       6.96432089       0.07737051      -0.09402195      -0.07461652       0.00000000
Ge       5.12417926       6.12427703       7.08716943       0.10288592      -0.16503660       0.23789262       0.00000000
Ge       4.91445673      10.09099802       7.08782145       0.27555440       0.17374477       0.59558848       0.00000000
Ge       9.22736426       1.93271953       6.97371243       0.06274095      -0.13546799       0.30457947       0.00000000
Ge       9.15318276       5.99890010       6.79047216       0.38904815       0.10972887       0.47584807       0.00000000
Ge       3.13928881       6.57748348       3.91341277      -0.20263473      -0.02331700       0.34296875       0.00000000
Ge       3.10310277       2.51243325       4.26647862       0.17152826       0.15467422      -0.17526499       0.00000000
Ge       9.35920462      10.18453920       7.01383891      -0.18925386       0.27911896       0.11409123      -0.00000000
Ge      11.29222062       8.07749240       9.45311768      -0.10498366      -0.26901278       0.03226798       0.00000000
Ge      11.51685916      12.37507588       9.68734720      -0.63089105      -0.09862438      -0.37042707       0.00000000
Ge       1.09212796       4.47431846       1.24348520      -0.03316610       0.33415641       0.38290888       0.00000000
Ge       0.71077701       8.76261569       1.65205396       0.64373845      -0.83798300      -0.80745219       0.00000000
Ge       5.21272325       0.53908908       1.20065737       0.21893016      -0.32150051       0.70120991      -0.00000000
Ge       5.20832434       4.51587130       1.38171215      -0.26055134      -0.19845651       0.32520478       0.00000000
Ge       9.18055543       0.44770987       1.62350645      -0.06901010      -0.21063283      -0.04878909      -0.00000000
Ge       9.30438240       4.52073895       1.40966578      -0.20151076      -0.26578796       0.19481063       0.00000000
Ge       5.09482431       8.64312218       1.76081371       0.18985793       0.28304959      -1.31426669       0.00000000
Ge       2.93184736       3.85287576       9.66905493       0.02922505       0.27984174       0.09523473       0.00000000
Ge       3.08400729       8.05555881       9.63639937      -0.06379758       0.47721375      -0.00750777       0.00000000
Ge       2.74964179      12.16332939       9.80470678       0.61405711      -0.27717648      -0.21950240       0.00000000
Ge       7.22734166       4.01812431       9.54496177       0.08917606      -0.12795047       0.06981531      -0.00000000
Ge       7.10616015       8.04683571       9.61023156      -0.07450789       0.30283737       0.41572649       0.00000000
Ge       7.28959605      12.42870505       9.46961588       0.01324242      -0.00836597       0.19939985      -0.00000000
Ge      11.29165578       4.19170397       9.59307756       0.13428621      -0.24108587       0.05035718       0.00000000
Ge       9.42502295       8.68643008       1.45094767      -0.38302337       0.22092043      -0.63368592      -0.00000000
Se      11.24666540       0.09894104       7.10086477       0.13125801       0.16336590       0.26159253      -0.00000000
Se       3.02499882       4.40329966       7.19391543      -0.21145006      -0.10290914      -0.29678171      -0.00000000
Se       2.91279405       8.30354109       7.01146656       0.12246728      -0.07863746       0.26362243      -0.00000000
Se       6.88171005       0.31683489       7.00796400       0.40893413      -0.45149521       0.05780273      -0.00000000
Se       7.29680336       4.31757857       7.02039452      -0.82230831      -0.12713626       0.08199287      -0.00000000
Se       7.07113429       8.49956144       7.15598121      -0.06513534      -0.07535523      -0.26808760      -0.00000000
Se      11.24321609       4.34013443       7.11072594      -0.10173549      -0.20028287      -0.23897506      -0.00000000
Se       9.29451176       0.21684158       4.13128619      -0.06389186      -0.84458404      -0.02377058      -0.00000000
Se       0.93039932       0.12921295       4.07604283      -0.10421573       0.26627216      -0.25113580      -0.00000000
Se       0.93734678       4.15985831       3.75882631       0.20000743       0.04716204       0.19560109      -0.00000000
Se       0.92663543       8.23683960       4.03926917      -0.18465597      -0.09344576       0.51806529      -0.00000000
Se       4.86594550       0.03366527       3.87305033       0.62086350      -0.35405263      -0.38601496      -0.00000000
Se       5.22105218       4.15085278       3.99301487      -0.64279204       0.33196409      -0.11849563      -0.00000000
Se       5.36426704       8.18842245       4.07711083      -0.50226094       0.04659118       1.08649284      -0.00000000
Se       2.94742823       0.16659448       7.19715112      -0.00680173      -0.47923829       0.28466051      -0.00000000
Se      11.29892590       8.48815736       6.90705502       0.18431681      -0.10700980       0.49522522      -0.00000000
Se      11.36532925      10.46133623       1.52606489      -0.45753904       0.72736014       0.24854492      -0.00000000
Se       3.15549617       2.05508713       1.70648714      -0.29238091       0.65838566      -0.06086374      -0.00000000
Se      11.12208786       2.18138771       1.60188182       0.59582034      -0.07778755      -0.43678839      -0.00000000
Se       9.17117869       4.10467331       4.04707166       0.16893412       0.35791516      -0.21826474      -0.00000000
Se       0.88660904       2.09503270       9.70495951      -0.16565620       0.41665903      -0.26119940      -0.00000000
Se       0.81614512       6.26074474       9.57385322      -0.36167883       0.26372588      -0.36469459      -0.00000000
Se       0.80700246      10.47662526       9.51183826       0.18358405      -0.19275433       0.08966028      -0.00000000
Se       5.02930449       2.42274609       9.42922910       0.13184192      -0.41268712       0.30354103      -0.00000000
Se       4.98065112       6.37203272       9.68608609       0.48580523      -0.23841211      -0.64499838      -0.00000000
Se       4.77431177      10.30133446       9.74842329      -0.02541524       0.31916944      -0.82288315      -0.00000000
Se       9.10305300       2.12008830       9.56513585      -0.10275843       0.17289857      -0.23693788      -0.00000000
Se       9.07743150       6.33530739       9.46225314       0.54095777       0.12111895      -0.47047224      -0.00000000
Se       9.25747564      10.70846724       9.50944770      -0.02084638      -0.16161485      -0.05832392      -0.00000000
Se       3.13187740       6.26415800       1.43897910      -0.15372370      -0.13100466       0.01307431      -0.00000000
Se       2.81563683      10.28593037       1.54033851       0.22304728       0.36474418       0.03479718      -0.00000000
Se       7.23212223       2.22464825       1.76276052      -0.35588760      -0.40194172      -0.48816202      -0.00000000
Se       7.14359313       6.14972014       1.42062763       0.42506807       0.55902602       0.02026563      -0.00000000
Se       7.21115076      10.29163529       1.69879386      -0.00042302       0.37527285       0.29067503      -0.00000000
Se      11.18246151       6.23979473       1.50968063       0.42478482       0.11037175       0.05145955      -0.00000000
Se       9.36343328       8.43312633       3.90759321      -0.28236445       0.28289252       0.37298769      -0.00000000
72
Lattice="12.433853140367498 -1.1073695091e-06 -5.243402395e-07 -1.1142770392e-06 12.511412752882707 -2.673648113e-06 -6.011614602e-07 -3.0463624259e-06 11.074238667689546" Properties=species:S:1:pos:R:3:forces:R:3:magmoms:R:1 energy=-300.59918474 stress="0.009580494341713467 -0.0009802840895380017 -0.0020592093013769184 -0.0009802840895380017 -0.006669268881644638 -0.0013215716248204537 -0.0020592093013769184 -0.0013215716248204537 -0.010149832739339396" dipole="_JSON [[0.0, 0.0, 0.0]]" magmom=0.0017998 free_energy=-300.59918474 pbc="T T T"
Ge       0.86651275       0.41479142       1.42023994       0.32772192       0.15155169       0.23569962       0.00000000
Ge       3.03618557      10.96936769       4.25442416       0.23976059       0.04481263       0.14844898       0.00000000
Ge       7.32988498       2.53004797       3.96779530      -0.30879864      -0.11226878       0.17924645       0.00000000
Ge       7.24945819       6.80331493       4.24248247      -0.72889494      -0.22363505       0.32177393      -0.00000000
Ge       7.26973534      10.96142348       4.09667413      -0.02767569       0.13043286      -0.43221594       0.00000000
Ge      11.33464743       2.43425515       4.09484432      -0.19617930       0.05445144       0.19797671       0.00000000
Ge      11.41095142       6.89143621       4.06126213      -0.11491952      -0.42316080      -0.00424734       0.00000000
Ge      11.34522631      10.89839530       3.96059594      -0.18740241       0.20954116       0.41119997       0.00000000
Ge       0.99200715       1.59934235       6.91489832       0.10555495       0.12672915       0.19753599      -0.00000000
Ge       0.89819950       6.01608665       6.96959592      -0.11415713       0.13533259       0.54385537      -0.00000000
Ge       0.59144290      10.27609067       7.15487377       0.66607489      -0.03984222      -0.67264413       0.00000000
Ge       5.28602374       1.93345206       6.91333528      -0.02350518      -0.66001434      -0.35313549       0.00000000
Ge       4.96214706       5.84273097       7.01087327      -0.04554251       0.48951731       0.24766227       0.00000000
Ge       5.02921417       9.92659434       6.97660886      -0.08279426      -0.16420732       0.08023026       0.00000000
Ge       9.16442499       2.05203094       6.91518503      -0.21068394      -0.48893872       0.36826195       0.00000000
Ge       9.08927036       5.92362168       7.09773753       0.37712957       0.17729656       0.03417805       0.00000000
Ge       3.10113508       6.86173041       4.26090018       0.12912409      -0.18804640      -0.44776843      -0.00000000
Ge       2.94713197       2.36607944       4.14540725      -0.05390827       0.23438379       0.16394624       0.00000000
Ge       9.34050810      10.01013671       6.97630876      -0.48913575       0.01385574      -0.88784948       0.00000000
Ge      11.22825827       7.78626653       9.72586393       0.09270769       0.06095029      -0.20158313       0.00000000
Ge      11.23462246      12.24171865       9.53212491      -0.03972677       0.06380366      -0.05852991       0.00000000
Ge       0.99903283       4.61682845       1.46100559      -0.19074695      -0.03213203       0.00296104       0.00000000
Ge       1.04244409       9.03827651       1.42874006       0.05803970      -0.35618564      -0.24749784       0.00000000
Ge       5.27283375       0.56190793       1.48245688      -0.28623713      -0.15801497       0.55103654       0.00000000
Ge       4.93050730       4.71079988       1.52801689       0.28615087      -0.31780815      -0.17359141       0.00000000
Ge       9.25669020       0.61200924       1.37589300      -0.13073256      -0.48260186       0.19517746       0.00000000
Ge       9.16670752       4.78373574       1.66037696       0.38256259      -0.18172969      -0.34261319       0.00000000
Ge       4.97513924       8.96814303       1.09202460       0.37423543       0.16208262       0.57575466       0.00000000
Ge       2.88231422       3.72666725       9.53815255      -0.07159302       0.28199762       0.35866454       0.00000000
Ge       3.02776489       8.07082024       9.59216875      -0.22048923      -0.05408056      -0.03877479       0.00000000
Ge       2.98078623      12.23053243       9.60881265      -0.33327288       0.08650320      -0.33906841       0.00000000
Ge       6.95335410       3.93816065       9.71727691       0.29423161      -0.08450204       0.29411805       0.00000000
Ge       7.03315419       7.93652286       9.76953354       0.23759024       0.02706925       0.05663972       0.00000000
Ge       7.26236782      12.11387302       9.74719727      -0.13245979       0.18832514      -0.42405067       0.00000000
Ge      11.26026697       3.79282843       9.74572907      -0.21291852       0.07675344      -0.19387132       0.00000000
Ge       9.32544656       8.65545402       1.60068908      -0.28961777       0.14352450      -0.46791664       0.00000000
Se      11.42204862      -0.07597047       6.96112055      -0.48350106       0.24178109       0.23284677      -0.00000000
Se       2.84444522       4.34035743       7.08786170       0.21944754      -0.59981029      -0.17328928      -0.00000000
Se       3.01730652       8.16867708       7.04628905       0.20323741       0.43653256       0.11867285      -0.00000000
Se       7.28558832       0.13284220       7.14262615      -0.36468651       0.21807051      -0.03532874      -0.00000000
Se       7.21793947       4.14943495       7.22453744      -0.39383563       0.00298517      -0.58732638      -0.00000000
Se       7.10137263       8.24933014       7.26559214      -0.03091980       0.37533024      -0.26978312      -0.00000000
Se      11.27305497       4.38755516       7.21031962      -0.23219558      -0.41888534       0.13398130      -0.00000000
Se       9.31235368       0.21471401       3.98731556      -0.36308315      -0.54054451      -0.35723490      -0.00000000
Se       0.85760351       0.16332367       4.03581790       0.16915690      -0.37966193      -0.33041861      -0.00000000
Se       0.73333383       4.15460076       3.95819706       0.64139262       0.43856528       0.15910730      -0.00000000
Se       1.02650657       8.43821293       3.90573919       0.05066435       0.53870602       0.34151354      -0.00000000
Se       5.18032041       0.15578003       4.15460664      -0.06241537      -0.16013998      -0.79379379      -0.00000000
Se       5.02463122       3.93224163       3.93792803       0.13095103       0.69838393       0.40332705      -0.00000000
Se       5.04558423       8.48025068       3.75644497       0.16789117      -0.03666201       0.16545243      -0.00000000
Se       3.05765941       0.00339761       7.01384061      -0.03952955       0.29659025       0.44180147      -0.00000000
Se      11.33942217       8.37388747       7.02015621      -0.36242702      -0.30061208       0.59728267      -0.00000000
Se      11.25685740      10.49433341       1.49732394       0.07519471       0.10871771      -0.11152119      -0.00000000
Se       2.91778210       2.17357105       1.67419047       0.08277057      -0.21978071      -0.63775804      -0.00000000
Se      11.32073018       2.09560619       1.58446093      -0.03954425       0.49070405      -0.26875614      -0.00000000
Se       9.27943911       4.24050565       4.13513647       0.09842784       0.20624534       0.00586819      -0.00000000
Se       0.79313712       2.06492363       9.55684903       0.23855741      -0.08726943      -0.38181379      -0.00000000
Se       0.96858381       6.28500903       9.63598540      -0.23991654       0.09794487      -0.54222371      -0.00000000
Se       0.83197218      10.54394760       9.59372815       0.19442297      -0.09660608       0.46143989      -0.00000000
Se       5.04720841       2.21022279       9.36100262      -0.25663335      -0.29484296       0.61362217      -0.00000000
Se       5.00491184       6.34301748       9.68892864       0.06266824      -0.48689286      -0.51690482      -0.00000000
Se       4.77806201      10.45516637       9.52368215       0.86096615      -0.04369214      -0.13643344      -0.00000000
Se       9.02440502       2.13545021       9.48600950       0.57216866       0.11003142       0.04296258      -0.00000000
Se       9.05625958       6.11643726       9.65221960       0.25506480       0.48143798      -0.00034609      -0.00000000
Se       9.22141541      10.48081155       9.34660369       0.16037202      -0.07552387       1.14062619      -0.00000000
Se       2.93851408       6.29693137       1.65063424       0.02582250       0.23797679       0.36735215      -0.00000000
Se       3.10465311      10.72398929       1.72987585      -0.22509850      -0.09136473      -0.45937909      -0.00000000
Se       7.24465418       2.32912029       1.44186299       0.03141639      -0.15200638       0.08235811      -0.00000000
Se       7.17004464       6.35283688       1.80685726      -0.30064341       0.05733587      -0.52170050      -0.00000000
Se       7.22750417      10.46985576       1.37677490      -0.39041303       0.11091279       0.64625644      -0.00000000
Se      11.34875788       6.54722058       1.52765080      -0.18876572      -0.41709934       0.13019871      -0.00000000
Se       9.09990131       8.47627490       4.08408255       0.65352320       0.36139668       0.16033209      -0.00000000
72
Lattice="12.429296024556844 -1.1069636485e-06 -5.241480642e-07 -1.1145174637e-06 12.514112306385131 -2.6742249988e-06 -6.014345329e-07 -3.047746211e-06 11.079269049890106" Properties=species:S:1:pos:R:3:forces:R:3:magmoms:R:1 energy=-300.89694216 stress="0.010556958914775845 0.00028100139157891276 0.0004949046127037332 0.00028100139157891276 -0.0018336565531290022 0.0007359902427057062 0.0004949046127037332 0.0007359902427057062 -0.013135200705582535" dipole="_JSON [[0.0, 0.0, 0.0]]" magmom=0.0019045 free_energy=-300.89694216 pbc="T T T"
Ge       0.91325284       0.62550716       1.63911495      -0.15855606      -0.23499389      -0.41340616       0.00000000
Ge       3.01407889      11.01263216       4.16000334       0.10975112      -0.21642017      -0.38305502       0.00000000
Ge       7.13108873       2.54666586       4.17724267       0.15685909       0.18828025      -0.24114846       0.00000000
Ge       7.25083881       6.65264988       4.18470069      -0.00906500       0.19074926      -0.34563138       0.00000000
Ge       7.19812237      10.96411871       3.95510076      -0.02944063      -0.49162978       0.96793092       0.00000000
Ge      11.27350440       2.65716626       4.16205452      -0.03448557       0.19813634      -0.18750035       0.00000000
Ge      11.37350845       6.75738778       4.06482907       0.28673332       0.25579662       0.13311020       0.00000000
Ge      11.35400934      10.96368428       4.09704787      -0.18842584      -0.16829581      -0.19596198       0.00000000
Ge       0.90049547       1.68721264       6.96502436       0.07530643      -0.02312683      -0.11928315       0.00000000
Ge       1.08319171       6.08413124       7.13996547      -0.18678073      -0.48787468      -0.53223416       0.00000000
Ge       0.80044079      10.28739205       7.04392335       0.06023268      -0.38121586       0.40334694       0.00000000