72
Lattice="12.41126884736225 -1.1053581328e-06 -5.233878514e-07 -1.115152091e-06 12.52123807821198 -2.675747753e-06 -6.020812515e-07 -3.0510234329e-06 11.091182516342672" Properties=species:S:1:pos:R:3:forces:R:3:magmoms:R:1 energy=-300.81740308 stress="0.012651482356470048 -0.0021115422208013287 0.0009514651694510609 -0.0021115422208013287 -0.004308047483899473 -0.0013644386215724764 0.0009514651694510609 -0.0013644386215724764 -0.005734156497310936" dipole="_JSON [[0.0, 0.0, 0.0]]" magmom=0.0016667 free_energy=-300.81740308 pbc="T T T"
Ge       0.94964068       0.32234268       1.36784713      -0.01050366       0.40693918       0.01490419       0.00000000
Ge       2.80340248      10.74530724       4.19740629       0.33608251       0.15110930      -0.37579414      -0.00000000
Ge       7.20269666       2.54087959       4.10165156      -0.26807197       0.50742914       0.68507592       0.00000000
Ge       7.11978433       6.84557596       4.00606177      -0.10270803      -0.03125945       0.64757477       0.00000000
Ge       7.07613682      11.08928251       4.16631735      -0.40826382      -0.21478341      -0.18229354       0.00000000
Ge      11.37534150       2.39068298       4.15237678      -0.04069673       0.41328336      -0.22336658      -0.00000000
Ge      10.85621785       6.75906082       4.16675992       0.79795648      -0.14166798       0.16514647       0.00000000
Ge      11.38874094      10.93628668       4.18490747      -0.04219666      -0.10911019      -0.23735656       0.00000000
Ge       0.82051717       1.78284572       7.00800099       0.23830390      -0.31534943       0.67251805      -0.00000000
Ge       0.93051389       5.95716380       6.91178416       0.03514642      -0.13087402      -0.04074787      -0.00000000
Ge       0.86253894      10.10124598       6.98707423      -0.09973646      -0.15050043      -0.39975540      -0.00000000
Ge       4.89095388       1.76451481       6.94913525       0.20017072       0.03473880      -0.13369542       0.00000000
Ge       5.12756184       5.75979326       7.07279897      -0.36347755       0.47597634      -0.37923096       0.00000000
Ge       5.02418595       9.96992009       7.01059651      -0.02464027       0.41625515       0.05314036       0.00000000
Ge       9.11588578       1.70968879       6.84012458      -0.04242206      -0.27764114       0.68340350       0.00000000
Ge       9.12681067       5.94792520       6.89020904       0.57869092       0.40866369      -0.32350642       0.00000000
Ge       2.91991816       6.69848381       4.37590032       0.14513246       0.22536692      -0.31181027      -0.00000000
Ge       3.01349072       2.54937237       4.15933427       0.39248199       0.07911641      -0.22069703      -0.00000000
Ge       9.17173408      10.21597225       6.94497741       0.11888352      -0.01021082      -0.12551805       0.00000000
Ge      11.21216825       7.83951371       9.66683484       0.27157346       0.50877269      -0.25349607       0.00000000
Ge      11.19257807      12.09699780       9.79252962       0.25099135       0.19353089       0.29181967       0.00000000
Ge       0.92100171       4.75064883       1.62811212       0.03729150      -0.39035651      -0.24037300       0.00000000
Ge       0.90893529       8.84136227       1.32766679       0.07796587      -0.08472484       0.22007088       0.00000000
Ge       5.02030897       0.60406105       1.45684017      -0.23256184      -0.04816340       0.62850013       0.00000000
Ge       5.21496972       4.90941546       1.16431041      -0.17496077      -0.06666366       0.64127277       0.00000000
Ge       9.19078320       0.53647174       1.71667281       0.24138381      -0.01435349      -0.15934775       0.00000000
Ge       9.36482995       4.65846562       1.39958973      -0.25670194      -0.15429278      -0.21578908       0.00000000
Ge       5.11549425       8.69965926       1.30406666      -0.20466152       0.30949468       0.74711442       0.00000000
Ge       3.07315722       3.96082527       9.76496915      -0.10653141      -0.20333314      -0.31225145      -0.00000000
Ge       2.91151114       8.03953105       9.52439506       0.07973079      -0.14614944       0.05896338       0.00000000
Ge       2.84834806      12.09692304       9.84310971       0.24290961       0.03014411      -0.55496243       0.00000000
Ge       7.25389765       3.82669102       9.77600537      -0.17769176      -0.24398247       0.16697281       0.00000000
Ge       7.35960676       8.08537095       9.50288384      -0.55186868       0.06776277       0.01051507       0.00000000
Ge       6.93646604      12.25810277       9.89589633       0.18637346      -0.28873230      -0.58512178       0.00000000
Ge      11.18161078       3.83583853       9.62511657       0.42951702      -0.06727866      -0.03232645       0.00000000
Ge       9.19836512       9.04769708       1.36822480      -0.00884876      -0.46124289      -0.11273867       0.00000000
Se      11.25312586      -0.13264939       7.34182732       0.21329537       0.85355917      -0.89972718      -0.00000000
Se       3.00053315       4.16477010       7.15967986       0.01518735       0.19477948       0.18894102      -0.00000000
Se       2.99376740       8.29729890       6.99716547      -0.05195176       0.24149766       0.33456415      -0.00000000
Se       7.03806581       0.11522215       7.23624774       0.17606879      -0.05568547       0.17023179      -0.00000000
Se       7.27388883       4.35786663       7.29966501      -0.38710894      -1.11117621      -0.36776077      -0.00000000
Se       7.16920200       8.48666332       6.97602675       0.17501160      -0.42295520       0.27713267      -0.00000000
Se      11.28960657       4.32218261       7.07038004      -0.08562090      -0.34007200       0.15914290      -0.00000000
Se       9.20852013       0.15871086       4.28340981       0.09588415      -0.13106264      -0.52230997      -0.00000000
Se       0.98037602       0.13616260       3.91532136      -0.23433742      -0.25777957       0.24261388      -0.00000000
Se       0.96909273       4.14671382       4.09401211      -0.26607773       0.25706853       0.08950468      -0.00000000
Se       0.79624255       8.35501990       3.86493578       0.14935106       0.15741778       0.16790331      -0.00000000
Se       4.91128243       0.14081177       4.13818084       0.31454162      -0.29851762      -0.78146732      -0.00000000
Se       5.12191356       4.24650918       3.82929604       0.05078612      -0.03340838      -0.08040283      -0.00000000
Se       5.02356723       8.43495965       4.12593797      -0.02258142      -0.00297821      -0.76704293      -0.00000000
Se       2.97525213       0.08981541       7.19418715      -0.28692314      -0.22883577       0.31017016      -0.00000000
Se      11.20337234       8.42191878       7.05228420       0.20279408       0.05568850       0.38391877      -0.00000000
Se      11.26782189      10.59220049       1.57730175       0.17006380       0.21642983       0.31968752      -0.00000000
Se       2.83031043       2.18193298       1.61171478       0.47405021      -0.13612943      -0.09716033      -0.00000000
Se      11.31862077       2.18608514       1.59811924      -0.15168381      -0.27327319       0.09267568      -0.00000000
Se       9.38382697       4.24396369       3.86730692      -0.43809413      -0.25174702       0.48545490      -0.00000000
Se       1.12623131       2.19263125       9.61850151      -0.66548976       0.04432252      -0.49428935      -0.00000000
Se       0.94141501       6.28810818       9.41940209      -0.03912235       0.01381754       0.30866689      -0.00000000
Se       0.94747842      10.35943271       9.46864851      -0.00151303       0.11382308       0.44736020      -0.00000000
Se       5.04881107       2.20676853       9.45595697       0.36657539       0.07686568       0.43901097      -0.00000000
Se       5.10899308       6.33514918       9.52074548       0.05545997       0.31980754       0.27544942      -0.00000000
Se       5.14123450      10.36705775       9.61723852      -0.34973615       0.27661754      -0.12940612      -0.00000000
Se       9.30332611       2.07360882       9.54237502      -0.27203562       0.11189419      -0.33760635      -0.00000000
Se       9.21460679       6.25870496       9.38565619       0.10450121      -0.06723384       0.34675581      -0.00000000
Se       9.23708937      10.52494216       9.46242550      -0.61918975      -0.22541361       0.44052656      -0.00000000
Se       2.97724863       6.34360854       1.83404853       0.24742540       0.15584421      -0.41035236      -0.00000000
Se       2.94882163      10.50341305       1.59112203       0.14079287      -0.12533509       0.21061028      -0.00000000
Se       7.16660527       2.22223868       1.70262765      -0.10214892      -0.19779868      -0.79038092      -0.00000000
Se       7.24946222       6.61780314       1.55270603      -0.25075825      -0.51448352      -0.61722012      -0.00000000
Se       7.04316466      10.49367211       1.48850542       0.05790042       0.47509998       0.55416237      -0.00000000
Se      11.19421347       6.36302577       1.65405962       0.31784914       0.24278532      -0.23014469      -0.00000000
Se       9.23439943       8.61759887       3.90933328      -0.64720733       0.18865390       0.01397385      -0.00000000
