72
Lattice="12.446196140746872 -1.1084687872e-06 -5.248607485e-07 -1.1136290691e-06 12.504137164631235 -2.6720933436e-06 -6.007610372e-07 -3.0443332977e-06 11.066862312976713" Properties=species:S:1:pos:R:3:forces:R:3:magmoms:R:1 energy=-300.4679294 stress="0.010736899138754427 -0.0007064642282914032 0.0017027133055017552 -0.0007064642282914032 -0.003923101203949362 0.0016560141719426593 0.0017027133055017552 0.0016560141719426593 -0.005774724471625494" dipole="_JSON [[0.0, 0.0, 0.0]]" magmom=0.001795 free_energy=-300.4679294 pbc="T T T"
Ge       1.03615692       0.36789999       1.23236381      -0.01459365       0.26984108       0.50480653      -0.00000000
Ge       3.09548250      10.90993940       4.07141358       0.03059965       0.04294854       0.18706169      -0.00000000
Ge       7.22645415       2.60500555       4.12371723      -0.06936037      -0.33753364       0.08553834       0.00000000
Ge       7.00513020       6.67479682       4.20276225      -0.02457245       0.06909517       0.01053968       0.00000000
Ge       7.11874504      10.86863187       4.26812676       0.14196006       0.40000113      -0.78017098       0.00000000
Ge      11.44843603       2.49628238       4.02982804      -0.10090110      -0.07821678       0.15382365       0.00000000
Ge      11.17191798       6.74535547       4.28055891       0.31984262      -0.66060151      -0.44408734       0.00000000
Ge      11.32870075      10.60971193       4.04018085      -0.10469066       0.64802126       0.03501475       0.00000000
Ge       0.75155134       1.94264198       6.90527863       0.39965626      -0.04779391       0.15673625       0.00000000
Ge       0.56284832       5.85120522       6.83851730       0.60984542       0.38660512       0.31197209       0.00000000
Ge       0.71451227      10.11482967       6.78888426       0.63823649       0.09878524       0.48003546       0.00000000
Ge       4.89161205       1.78885443       7.17096746       0.10981129       0.00160835      -0.64234583       0.00000000
Ge       4.91134000       6.02364522       6.92399895      -0.00505230       0.29692706       0.59847324      -0.00000000
Ge       5.08916004      10.52075822       6.93914567      -0.21145506      -0.76540670       0.64198230      -0.00000000
Ge       9.21394946       1.61540651       7.03929627      -0.08670940       0.44289784       0.00570240       0.00000000
Ge       9.08091200       5.85990711       6.90038413      -0.29296505       0.32398511       0.40404577       0.00000000
Ge       2.86226696       6.76637979       4.34281399       0.10335856      -0.31978508      -0.35657944       0.00000000
Ge       3.14414447       2.56300826       4.01770172       0.02551529      -0.17204312      -0.05890677       0.00000000
Ge       9.21422850      10.15523983       6.98309506      -0.52687199      -0.15090985      -0.75862729       0.00000000
Ge      11.16927660       8.19350248       9.80569296       0.03570002      -0.45683589      -0.37772645       0.00000000
Ge      11.06987351      12.28243062       9.69406160       0.38257701       0.16371195      -0.20983725       0.00000000
Ge       0.95605713       4.62082724       1.66284959       0.07402021      -0.02076516       0.01585358       0.00000000
Ge       1.16152181       8.53313439       1.50552685      -0.15648402       0.12009818      -0.32520995       0.00000000
Ge       4.97412492       0.33764616       1.35213363       0.25066843       0.42957054       0.49183427      -0.00000000
Ge       5.18609842       4.71155576       1.42672459      -0.03602230       0.02423923       0.24765310      -0.00000000
Ge       9.38886421       0.32953821       1.38935858      -0.28442952       0.15060309       0.39862054       0.00000000
Ge       9.16002570       4.49187833       1.33940340       0.24354247       0.25340589      -0.03081091       0.00000000
Ge       5.23524976       8.65263038       1.71574097      -0.18210345       0.20234552      -0.89985765      -0.00000000
Ge       3.17241553       4.05015529       9.67399157      -0.35949485      -0.06929823       0.10956960      -0.00000000
Ge       2.65926707       8.21324437       9.64086940       0.11700154      -0.08579802      -0.03767434      -0.00000000
Ge       3.15586832      12.03398515       9.72398968      -0.22228902      -0.06546536      -0.19256276      -0.00000000
Ge       6.97268932       3.80897770       9.64534154       0.26125102       0.30956869       0.20471113       0.00000000
Ge       7.13245646       8.04626941       9.61042362       0.08470196       0.00078474       0.22860174      -0.00000000
Ge       7.22502587      12.37771216       9.71461658      -0.14098571      -0.28409618      -0.17607718       0.00000000
Ge      11.42849484       3.90485118       9.55480707      -0.08732243      -0.05339771       0.09489008       0.00000000
Ge       9.10006631       9.00152702       1.32821965       0.10138085      -0.20742008      -0.25245904       0.00000000
Se      11.38679109       0.15690121       7.12104298      -0.22348651      -0.43314110       0.24930929      -0.00000000
Se       2.99391733       4.29039283       7.18537909       0.00170659       0.09606221      -0.26724599      -0.00000000
Se       2.92437648       8.51273263       7.17411113       0.22157946       0.14497873      -0.41532611      -0.00000000
Se       7.12696159       0.02122441       7.15854601      -0.17706338       0.34200248      -0.05257020      -0.00000000
Se       6.94692759       4.34303566       7.15969851       0.49023954      -0.38664884      -0.17433595      -0.00000000
Se       7.18085654       8.40432102       7.14217190       0.21676745       0.36512773      -0.45175600      -0.00000000
Se      11.20634437       4.08502428       6.98517399      -0.12136760      -0.10081500       0.24664023      -0.00000000
Se       9.17236770       0.01061442       3.93499670       0.39070860      -0.25922912       0.16427516      -0.00000000
Se       1.11077753       0.01876731       3.83416966      -0.48366827       0.00028509      -0.20360380      -0.00000000
Se       1.12625676       4.22430843       4.23549105      -0.37629341      -0.05645246      -0.62025507      -0.00000000
Se       0.80352355       8.33127754       3.98900967       0.21317925       0.36553190       0.34735699      -0.00000000
Se       5.13615202       0.11631405       3.97374082      -0.20159838      -0.13821147      -0.13670404      -0.00000000
Se       5.19452174       4.38744181       4.02254820      -0.09499586      -0.32268624      -0.39186556      -0.00000000
Se       4.85425631       8.44270530       4.12395534       0.83448440      -0.15243461       0.66026819      -0.00000000
Se       3.00352217       0.00785462       7.17953455       0.15383000       0.20592367       0.15555136      -0.00000000
Se      11.19769599       8.53353574       7.17195514       0.09722902      -0.50239146       0.25401721      -0.00000000
Se      11.33658455      10.41495894       1.56223673       0.03215233       0.08850134      -0.16578076      -0.00000000
Se       3.02240959       2.21257293       1.44437343       0.02243781      -0.22278108       0.37652642      -0.00000000
Se      11.37668668       2.09298584       1.53829188       0.20078516      -0.01855866      -0.15331526      -0.00000000
Se       9.30929350       4.15211273       3.82009029       0.12137766       0.08882209       0.37544173      -0.00000000
Se       1.10844979       2.33285499       9.40218065      -0.35406941      -0.12467362       0.19873098      -0.00000000
Se       0.71858225       6.43886266       9.45974281      -0.12119600      -0.24970593      -0.10532080      -0.00000000
Se       1.05524016      10.43493813       9.43175975      -0.36975821       0.26394800      -0.11091490      -0.00000000
Se       5.01494968       2.11270020       9.64486787       0.10944355       0.04519609       0.12924127      -0.00000000
Se       5.14114210       6.44729813       9.58265062      -0.30489008      -0.28459687      -0.36887882      -0.00000000
Se       5.32599268      10.47869530       9.56726657      -0.49693968       0.16192325      -0.46516697      -0.00000000
Se       9.24864513       2.10690215       9.59578490       0.04247850       0.09772889      -0.31673467      -0.00000000
Se       9.25127340       6.39408812       9.46260590       0.08015749      -0.21061716      -0.16319651      -0.00000000
Se       9.18955771      10.59689174       9.40564337       0.03418787      -0.04893150       0.82419358      -0.00000000
Se       2.99090602       6.34868048       1.68787692      -0.01677219      -0.00570676       0.23853071      -0.00000000
Se       3.14415353      10.31088142       1.59349580      -0.10550171       0.18313711      -0.20193262      -0.00000000
Se       7.21740055       1.99417282       1.63221632      -0.15024426       0.25360591      -0.28542624      -0.00000000
Se       7.23856723       6.33997203       1.67192968      -0.18947331      -0.07024066      -0.16952553      -0.00000000
Se       7.05310083      10.68987170       1.55312530       0.27354043      -0.72580529       0.75914511      -0.00000000
Se      11.39187145       6.24350998       1.71182507      -0.21312558      -0.14630063       0.11196972      -0.00000000
Se       9.26829545       8.23360512       3.79164810      -0.55920709       0.89747746       0.30412483      -0.00000000
