72
Lattice="12.431636404384019 -1.1071720847e-06 -5.242467589e-07 -1.1144183501e-06 12.512999431114158 -2.673987181e-06 -6.012902285e-07 -3.0470149542e-06 11.076610760337353" Properties=species:S:1:pos:R:3:forces:R:3:magmoms:R:1 energy=-300.76043385 stress="0.008435430104610848 0.0006620089609536263 -0.001147932223028978 0.0006620089609536263 -0.005703541732769242 -0.0007020494341244104 -0.001147932223028978 -0.0007020494341244104 -0.013787385425066367" dipole="_JSON [[0.0, 0.0, 0.0]]" magmom=0.0018164 free_energy=-300.76043385 pbc="T T T"
Ge       0.90324729       0.51328247       1.58012728      -0.19170816       0.05663302      -0.54422394       0.00000000
Ge       2.99466050      11.00652680       4.12612522       0.30816376      -0.14645692       1.00337086       0.00000000
Ge       7.23117208       2.52436040       4.09737139       0.00993535       0.08294567      -0.29225403       0.00000000
Ge       7.29976773       6.75454937       4.18306619      -0.48378626      -0.34683022       0.34055701      -0.00000000
Ge       7.22610845      10.98317891       3.97372242       0.10282932      -0.21026639       0.46182878      -0.00000000
Ge      11.32489761       2.51133477       4.12033271      -0.23123810       0.32477155       0.08562319      -0.00000000
Ge      11.36272696       6.84554787       4.01608468       0.29642812      -0.21871687       0.54813745      -0.00000000
Ge      11.37640717      10.92167911       4.01975514      -0.27154725       0.09768604       0.10267010       0.00000000
Ge       0.93050614       1.65535659       6.89853109       0.17021136      -0.16659188       0.47719883       0.00000000
Ge       1.02303869       6.05633976       7.04351067      -0.36840262       0.04921108       0.21522431       0.00000000
Ge       0.64180031      10.32386746       7.11578300       0.55686142      -0.40270922      -0.14556331       0.00000000
Ge       5.25452802       1.90242484       6.86352499       0.02239577      -0.41972784       0.32867171       0.00000000
Ge       5.00148128       5.85697403       7.05413455      -0.02699187       0.33606889      -0.09905662       0.00000000
Ge       4.91654145       9.97177392       7.04681956       0.36911890      -0.39192903      -0.81048241       0.00000000
Ge       9.17258260       1.93124986       7.02524268      -0.22131345      -0.10806629       0.09653881      -0.00000000
Ge       9.32160094       5.89164040       7.06567871      -0.28203648       0.27635257       0.22391772      -0.00000000
Ge       3.29522172       6.86105829       4.02434325      -0.94378877      -0.59086270       0.37118629       0.00000000
Ge       2.88827485       2.44518226       4.19251223       0.20813275       0.44230326      -0.13503613       0.00000000
Ge       9.42529869       9.97207170       6.95366574      -1.09393257       0.52129659       0.07614281      -0.00000000
Ge      11.35899433       7.83554698       9.67378215      -0.51896202       0.47029606      -0.09108114      -0.00000000
Ge      11.25268069      12.25982508       9.50648637      -0.05294496      -0.13313589       0.07629651       0.00000000
Ge       1.04639992       4.62569843       1.40970801      -0.42427991      -0.13900745      -0.23412657       0.00000000
Ge       1.02383219       9.11159228       1.44997315      -0.32962659      -0.58861689      -0.03987137       0.00000000
Ge       5.25240929       0.45864264       1.43961909       0.04743764       0.35678982       0.46972016       0.00000000
Ge       4.93787379       4.66896301       1.57443807       0.43597429      -0.60293506      -0.27706020       0.00000000
Ge       9.21809681       0.47462632       1.31795069      -0.06548218       0.21630693       0.15282118       0.00000000
Ge       9.13883298       4.79763091       1.60129248       0.57537468      -0.51362199       0.13269302      -0.00000000
Ge       5.03643245       9.00782549       1.18702243       0.22069651       0.13291527       0.40251927       0.00000000
Ge       2.87976551       3.70801225       9.55611739      -0.16148609      -0.14826870       0.11005967       0.00000000
Ge       3.15424157       8.01645631       9.68840604      -0.49033739       0.04258504      -0.30494793       0.00000000
Ge       2.92289513      12.19072147       9.53514023      -0.20415426       0.27693471       0.35819165       0.00000000
Ge       6.99814710       3.89550004       9.67859628       0.12473534      -0.12365919      -0.11893063       0.00000000
Ge       6.91571873       7.94273645       9.83606513       0.64173627       0.05330010      -0.29491863       0.00000000
Ge       7.16614945      12.08740152       9.68133283       0.26209568       0.09503645      -0.45956643       0.00000000
Ge      11.18293096       3.87955817       9.76931016      -0.02959152      -0.25170573      -0.15528444      -0.00000000
Ge       9.27293745       8.62322528       1.67529445       0.06681589       0.28772611      -0.97465454      -0.00000000
Se      11.40055654      -0.17450588       6.92017082      -0.48440556       0.63730047       0.22665857      -0.00000000
Se       2.77501738       4.23928164       7.06077599       0.55161702      -0.28724438       0.12719940      -0.00000000
Se       3.01455545       8.12739258       7.10274965       0.04338724       0.43350894       0.28925742      -0.00000000
Se       7.22603720       0.15706003       7.08473547      -0.24747696      -0.01404553       0.22275562      -0.00000000
Se       7.23287369       4.24732467       7.11879188      -0.34698495      -0.34200048       0.04076247      -0.00000000
Se       7.07812573       8.29068149       7.31959753      -0.19229658       0.27460334      -0.22011495      -0.00000000
Se      11.25744833       4.27168165       7.24749803       0.25475977      -0.21354477       0.01735136      -0.00000000
Se       9.19279271       0.19118273       3.85458047       0.14100303      -0.35856134       0.11031634      -0.00000000
Se       0.92554995       0.20678624       4.06598292      -0.14067929      -0.26657741       0.21561845      -0.00000000
Se       0.82965134       4.26340519       3.86572068       0.21453994      -0.15488809       0.54243338      -0.00000000
Se       1.00198538       8.52290151       3.94628515       0.11466161       0.11715382       0.13918460      -0.00000000
Se       5.23664450       0.11537550       4.05390307      -0.41890546       0.13768814      -0.54776305      -0.00000000
Se       5.08873632       4.08536827       4.01417061      -0.35797933       0.32886871       0.36448023      -0.00000000
Se       5.07266169       8.45681683       3.74963981       0.68088028       0.62648031      -0.06762948      -0.00000000
Se       3.04683116      -0.02551426       7.07433727      -0.27409992       0.39706418      -0.43839655      -0.00000000
Se      11.28527494       8.38829909       6.99467860       0.47365884      -0.59329260       0.57017940      -0.00000000
Se      11.22800154      10.56004437       1.54026074       0.08503499      -0.08526058      -0.06555489      -0.00000000
Se       2.98868911       2.07705308       1.68627681       0.17525076       0.29399797      -0.31402645      -0.00000000
Se      11.15325535       2.18022645       1.63781512       0.41800333       0.06467766      -0.25173202      -0.00000000
Se       9.16705438       4.34304397       4.22972067       0.21549402      -0.06413701      -0.47584810      -0.00000000
Se       0.74635780       1.95164119       9.53529269       0.30193893       0.48829320      -0.30598825      -0.00000000
Se       0.91505919       6.32426233       9.63412559       0.41309412      -0.26360470      -0.31228399      -0.00000000
Se       0.82248476      10.50160653       9.63643717       0.04974917      -0.07416639      -0.08727549      -0.00000000
Se       4.97535592       2.09890248       9.41734706       0.03468905       0.20015487      -0.01331731      -0.00000000
Se       5.02445970       6.23580658       9.64518505      -0.08276024      -0.45370464      -0.15656546      -0.00000000
Se       4.90091773      10.50476625       9.43468831       0.39365358      -0.13006923       0.84734131      -0.00000000
Se       9.01239930       2.17023330       9.55259637       0.52345718      -0.03251740      -0.00983689      -0.00000000
Se       9.08085078       6.18653774       9.66977032       0.23783812       0.28040871      -0.09807131      -0.00000000
Se       9.27046442      10.47358732       9.45329423      -0.22379973       0.01624976       0.13051896      -0.00000000
Se       2.97124535       6.27270160       1.55298307       0.02697738       0.58315758       0.02305085      -0.00000000
Se       2.99182364      10.75658374       1.71956903       0.26876029      -0.02339187      -1.19072386      -0.00000000
Se       7.27239432       2.36102968       1.49651131      -0.24667834      -0.58360141       0.23695672      -0.00000000
Se       7.12671060       6.27481210       1.72748343      -0.33375036       0.58543216      -0.35084125      -0.00000000
Se       7.21645431      10.52693502       1.48223441      -0.38402398      -0.11164225      -0.26373265      -0.00000000
Se      11.30863839       6.54961843       1.58122075      -0.06062558      -0.40270827      -0.56674829      -0.00000000
Se       9.21087924       8.42616430       4.09256512       0.14868506       0.37386764       0.57607418      -0.00000000
