72
Lattice="12.433853140367498 -1.1073695091e-06 -5.243402395e-07 -1.1142770392e-06 12.511412752882707 -2.673648113e-06 -6.011614602e-07 -3.0463624259e-06 11.074238667689546" Properties=species:S:1:pos:R:3:forces:R:3:magmoms:R:1 energy=-300.59918474 stress="0.009580494341713467 -0.0009802840895380017 -0.0020592093013769184 -0.0009802840895380017 -0.006669268881644638 -0.0013215716248204537 -0.0020592093013769184 -0.0013215716248204537 -0.010149832739339396" dipole="_JSON [[0.0, 0.0, 0.0]]" magmom=0.0017998 free_energy=-300.59918474 pbc="T T T"
Ge       0.86651275       0.41479142       1.42023994       0.32772192       0.15155169       0.23569962       0.00000000
Ge       3.03618557      10.96936769       4.25442416       0.23976059       0.04481263       0.14844898       0.00000000
Ge       7.32988498       2.53004797       3.96779530      -0.30879864      -0.11226878       0.17924645       0.00000000
Ge       7.24945819       6.80331493       4.24248247      -0.72889494      -0.22363505       0.32177393      -0.00000000
Ge       7.26973534      10.96142348       4.09667413      -0.02767569       0.13043286      -0.43221594       0.00000000
Ge      11.33464743       2.43425515       4.09484432      -0.19617930       0.05445144       0.19797671       0.00000000
Ge      11.41095142       6.89143621       4.06126213      -0.11491952      -0.42316080      -0.00424734       0.00000000
Ge      11.34522631      10.89839530       3.96059594      -0.18740241       0.20954116       0.41119997       0.00000000
Ge       0.99200715       1.59934235       6.91489832       0.10555495       0.12672915       0.19753599      -0.00000000
Ge       0.89819950       6.01608665       6.96959592      -0.11415713       0.13533259       0.54385537      -0.00000000
Ge       0.59144290      10.27609067       7.15487377       0.66607489      -0.03984222      -0.67264413       0.00000000
Ge       5.28602374       1.93345206       6.91333528      -0.02350518      -0.66001434      -0.35313549       0.00000000
Ge       4.96214706       5.84273097       7.01087327      -0.04554251       0.48951731       0.24766227       0.00000000
Ge       5.02921417       9.92659434       6.97660886      -0.08279426      -0.16420732       0.08023026       0.00000000
Ge       9.16442499       2.05203094       6.91518503      -0.21068394      -0.48893872       0.36826195       0.00000000
Ge       9.08927036       5.92362168       7.09773753       0.37712957       0.17729656       0.03417805       0.00000000
Ge       3.10113508       6.86173041       4.26090018       0.12912409      -0.18804640      -0.44776843      -0.00000000
Ge       2.94713197       2.36607944       4.14540725      -0.05390827       0.23438379       0.16394624       0.00000000
Ge       9.34050810      10.01013671       6.97630876      -0.48913575       0.01385574      -0.88784948       0.00000000
Ge      11.22825827       7.78626653       9.72586393       0.09270769       0.06095029      -0.20158313       0.00000000
Ge      11.23462246      12.24171865       9.53212491      -0.03972677       0.06380366      -0.05852991       0.00000000
Ge       0.99903283       4.61682845       1.46100559      -0.19074695      -0.03213203       0.00296104       0.00000000
Ge       1.04244409       9.03827651       1.42874006       0.05803970      -0.35618564      -0.24749784       0.00000000
Ge       5.27283375       0.56190793       1.48245688      -0.28623713      -0.15801497       0.55103654       0.00000000
Ge       4.93050730       4.71079988       1.52801689       0.28615087      -0.31780815      -0.17359141       0.00000000
Ge       9.25669020       0.61200924       1.37589300      -0.13073256      -0.48260186       0.19517746       0.00000000
Ge       9.16670752       4.78373574       1.66037696       0.38256259      -0.18172969      -0.34261319       0.00000000
Ge       4.97513924       8.96814303       1.09202460       0.37423543       0.16208262       0.57575466       0.00000000
Ge       2.88231422       3.72666725       9.53815255      -0.07159302       0.28199762       0.35866454       0.00000000
Ge       3.02776489       8.07082024       9.59216875      -0.22048923      -0.05408056      -0.03877479       0.00000000
Ge       2.98078623      12.23053243       9.60881265      -0.33327288       0.08650320      -0.33906841       0.00000000
Ge       6.95335410       3.93816065       9.71727691       0.29423161      -0.08450204       0.29411805       0.00000000
Ge       7.03315419       7.93652286       9.76953354       0.23759024       0.02706925       0.05663972       0.00000000
Ge       7.26236782      12.11387302       9.74719727      -0.13245979       0.18832514      -0.42405067       0.00000000
Ge      11.26026697       3.79282843       9.74572907      -0.21291852       0.07675344      -0.19387132       0.00000000
Ge       9.32544656       8.65545402       1.60068908      -0.28961777       0.14352450      -0.46791664       0.00000000
Se      11.42204862      -0.07597047       6.96112055      -0.48350106       0.24178109       0.23284677      -0.00000000
Se       2.84444522       4.34035743       7.08786170       0.21944754      -0.59981029      -0.17328928      -0.00000000
Se       3.01730652       8.16867708       7.04628905       0.20323741       0.43653256       0.11867285      -0.00000000
Se       7.28558832       0.13284220       7.14262615      -0.36468651       0.21807051      -0.03532874      -0.00000000
Se       7.21793947       4.14943495       7.22453744      -0.39383563       0.00298517      -0.58732638      -0.00000000
Se       7.10137263       8.24933014       7.26559214      -0.03091980       0.37533024      -0.26978312      -0.00000000
Se      11.27305497       4.38755516       7.21031962      -0.23219558      -0.41888534       0.13398130      -0.00000000
Se       9.31235368       0.21471401       3.98731556      -0.36308315      -0.54054451      -0.35723490      -0.00000000
Se       0.85760351       0.16332367       4.03581790       0.16915690      -0.37966193      -0.33041861      -0.00000000
Se       0.73333383       4.15460076       3.95819706       0.64139262       0.43856528       0.15910730      -0.00000000
Se       1.02650657       8.43821293       3.90573919       0.05066435       0.53870602       0.34151354      -0.00000000
Se       5.18032041       0.15578003       4.15460664      -0.06241537      -0.16013998      -0.79379379      -0.00000000
Se       5.02463122       3.93224163       3.93792803       0.13095103       0.69838393       0.40332705      -0.00000000
Se       5.04558423       8.48025068       3.75644497       0.16789117      -0.03666201       0.16545243      -0.00000000
Se       3.05765941       0.00339761       7.01384061      -0.03952955       0.29659025       0.44180147      -0.00000000
Se      11.33942217       8.37388747       7.02015621      -0.36242702      -0.30061208       0.59728267      -0.00000000
Se      11.25685740      10.49433341       1.49732394       0.07519471       0.10871771      -0.11152119      -0.00000000
Se       2.91778210       2.17357105       1.67419047       0.08277057      -0.21978071      -0.63775804      -0.00000000
Se      11.32073018       2.09560619       1.58446093      -0.03954425       0.49070405      -0.26875614      -0.00000000
Se       9.27943911       4.24050565       4.13513647       0.09842784       0.20624534       0.00586819      -0.00000000
Se       0.79313712       2.06492363       9.55684903       0.23855741      -0.08726943      -0.38181379      -0.00000000
Se       0.96858381       6.28500903       9.63598540      -0.23991654       0.09794487      -0.54222371      -0.00000000
Se       0.83197218      10.54394760       9.59372815       0.19442297      -0.09660608       0.46143989      -0.00000000
Se       5.04720841       2.21022279       9.36100262      -0.25663335      -0.29484296       0.61362217      -0.00000000
Se       5.00491184       6.34301748       9.68892864       0.06266824      -0.48689286      -0.51690482      -0.00000000
Se       4.77806201      10.45516637       9.52368215       0.86096615      -0.04369214      -0.13643344      -0.00000000
Se       9.02440502       2.13545021       9.48600950       0.57216866       0.11003142       0.04296258      -0.00000000
Se       9.05625958       6.11643726       9.65221960       0.25506480       0.48143798      -0.00034609      -0.00000000
Se       9.22141541      10.48081155       9.34660369       0.16037202      -0.07552387       1.14062619      -0.00000000
Se       2.93851408       6.29693137       1.65063424       0.02582250       0.23797679       0.36735215      -0.00000000
Se       3.10465311      10.72398929       1.72987585      -0.22509850      -0.09136473      -0.45937909      -0.00000000
Se       7.24465418       2.32912029       1.44186299       0.03141639      -0.15200638       0.08235811      -0.00000000
Se       7.17004464       6.35283688       1.80685726      -0.30064341       0.05733587      -0.52170050      -0.00000000
Se       7.22750417      10.46985576       1.37677490      -0.39041303       0.11091279       0.64625644      -0.00000000
Se      11.34875788       6.54722058       1.52765080      -0.18876572      -0.41709934       0.13019871      -0.00000000
Se       9.09990131       8.47627490       4.08408255       0.65352320       0.36139668       0.16033209      -0.00000000
