72
Lattice="12.432190172665651 -2.3810153985e-06 9.834797199e-07 -2.3974443164e-06 12.517971904308666 -2.816506584e-07 1.1288081138e-06 -3.210547943e-07 11.084923525623298" Properties=species:S:1:pos:R:3:forces:R:3:magmoms:R:1 energy=-300.6390833 stress="0.0028445430427791202 0.002139058512967661 0.00304279888166497 0.002139058512967661 -0.008148654424554688 0.0018021901284255716 0.00304279888166497 0.0018021901284255716 -0.006357784390159041" dipole="_JSON [[0.0, 0.0, 0.0]]" magmom=0.0016604 free_energy=-300.6390833 pbc="T T T"
Ge       1.12134389       0.55002649       1.19919004       0.16177983      -0.26100217       0.13042797       0.00000000
Ge       3.25037738      10.66981976       4.04945717      -0.38045496      -0.26635769       0.36170100       0.00000000
Ge       6.89738092       2.74091171       4.13635358       0.09471994      -0.01908816      -0.15040729       0.00000000
Ge       7.50482202       6.63801801       4.13210892      -0.21077353      -0.22632849      -0.13407008      -0.00000000
Ge       7.14015137      10.95698267       3.96719245       0.44665310       0.01960283       0.15474233      -0.00000000
Ge      11.53922601       2.49459511       4.12781792      -0.49883640      -0.49328663      -0.36014088       0.00000000
Ge      11.13342765       6.88863860       4.32271951       0.39878407      -0.19508820      -0.20379217      -0.00000000
Ge      11.26238073      11.35096536       4.25298149      -0.39328987      -0.27546830      -0.08633578       0.00000000
Ge       0.73642683       1.78284377       6.93074346       0.10491989       0.53769219      -0.22276098       0.00000000
Ge       0.80951952       6.01612409       7.04823819      -0.19679879       0.29973445       0.00651849       0.00000000
Ge       0.93899064      10.06697624       6.73670639      -0.40723827       0.20214542       0.12254673       0.00000000
Ge       4.87618977       1.80037166       6.93837728       0.18170608      -0.21778781       0.04191195       0.00000000
Ge       5.15225348       6.04993444       7.09017700      -0.10980050      -0.00148857       0.01580049       0.00000000
Ge       4.96048984      10.11191815       7.00934874       0.36435983       0.58425188       0.27263231       0.00000000
Ge       9.09446979       1.85715960       6.93860549      -0.20105526       0.05640938       0.31168846       0.00000000
Ge       8.75100349       5.82088596       6.90824945       0.59666452       0.14215611      -0.12355130      -0.00000000
Ge       2.74258688       6.74040421       4.19440717       0.21018020       0.30872198       0.29983119       0.00000000
Ge       2.96810450       2.51636607       4.44246666       0.24207236       0.45621094      -0.09484459       0.00000000
Ge       9.19927793      10.21308420       6.90974574       0.02633570      -0.08697032      -0.28339839      -0.00000000
Ge      11.61830978       8.24953410       9.66753871      -0.70935891       0.59524071      -0.15699295      -0.00000000
Ge      11.37985283      12.32865927       9.60160964      -0.67448171       0.15364379       0.54571043       0.00000000
Ge       0.97899458       4.65270357       1.52804467      -0.30814961      -0.06857382      -0.56993345       0.00000000
Ge       0.58969004       9.03906763       1.39576026      -0.01315531      -0.31117024       0.42667610       0.00000000
Ge       4.87479512       0.49396317       1.33662929       0.27952188       0.00853310       0.43264500       0.00000000
Ge       4.98605898       4.73540834       1.46521827       0.00739468      -0.10107633       0.47959774       0.00000000
Ge       9.17703856       0.67078378       1.12606026      -0.05582559       0.19138036       0.31119951       0.00000000
Ge       9.47875862       4.38788407       1.54282135       0.02218832       0.39436579       0.19461280      -0.00000000
Ge       5.15917370       8.55292095       1.58033628       0.36403729      -0.08966902      -0.40541719       0.00000000
Ge       3.14307076       3.92489015       9.86982679      -0.26962053       0.02878439      -0.36345431       0.00000000
Ge       3.08797909       8.23700829       9.68570949      -0.19614754       0.24466237       0.26501135       0.00000000
Ge       3.10545948      12.41530228       9.49526222      -0.09207883      -0.13472048       0.02518769       0.00000000
Ge       7.23674720       3.95657420       9.77873034      -0.18418270       0.38081202       0.12373799       0.00000000
Ge       7.26976503       8.16992204       9.55445410      -0.19871084       0.03299018       0.43029902       0.00000000
Ge       7.11624155      12.18918855       9.58209060       0.22610601       0.26877408      -0.01760763       0.00000000
Ge      11.37046524       4.06507792       9.50913476      -0.25440906      -0.01755349       0.12753799       0.00000000
Ge       9.22878854       8.78792799       1.12762625       0.02796307       0.06258116       0.55808314      -0.00000000
Se      11.14522654       0.22268200       7.15554036      -0.08372248      -0.08704479      -0.45756350      -0.00000000
Se       2.96400510       4.67509471       7.35470924       0.28490487      -0.90329841       0.01454374      -0.00000000
Se       2.96339348       8.52041163       7.17300480      -0.22520703      -0.47839841      -0.18299672      -0.00000000
Se       6.92720120       0.05663856       7.04873696       0.10765363       0.37522830       0.04927607      -0.00000000
Se       6.96072456       3.98631392       7.22314214      -0.52483899       0.41165159      -0.14849933      -0.00000000
Se       7.07515920       8.58118284       7.09326581      -0.03899614      -0.15645570      -0.38809397      -0.00000000
Se      11.04542750       4.33331575       7.01245521       0.18421316      -0.00165547       0.08203732      -0.00000000
Se       9.10956168       0.31527391       3.68810438      -0.18926924      -0.16763446       0.33802684      -0.00000000
Se       0.74765701       0.45440415       3.71003976      -0.19529430      -0.30537980       0.32730321      -0.00000000
Se       0.94995954       4.13771579       3.96702960       0.45606204       0.62798593       0.65355382      -0.00000000
Se       0.79015611       8.51947227       4.05122074      -0.25597972      -0.13810130      -0.40621169      -0.00000000
Se       5.02216537      -0.03499800       3.93160292       0.18419687       0.21317399      -0.48982592      -0.00000000
Se       4.89900397       4.49935000       4.15609490      -0.02268177      -0.53990931      -0.47628779      -0.00000000
Se       4.84850959       8.52795371       4.04366796      -0.17477041      -0.00263323       0.32482913      -0.00000000
Se       2.61029900       0.07640680       6.94584380       0.68532701      -0.27602889       0.29620224      -0.00000000
Se      11.08128280       8.42190254       7.05561811       0.38157690       0.06050763       0.37764005      -0.00000000
Se      11.02091581      10.58580251       1.77891710       0.25458667       0.31130986      -0.48342129      -0.00000000
Se       3.02767914       2.19567548       1.88838574      -0.06715695       0.03673445      -0.56654823      -0.00000000
Se      11.20434238       2.43740074       1.43704929      -0.35023506      -0.32480366       0.34725160      -0.00000000
Se       9.02680581       4.35752152       4.12668043      -0.28014912      -0.00694244      -0.57266421      -0.00000000
Se       0.97173026       2.40107942       9.38337208      -0.21896381      -0.13593952       0.28306351      -0.00000000
Se       0.88187244       6.49306209       9.59324692       0.31671041      -0.40708314      -0.23101483      -0.00000000
Se       0.69041492      10.61877350       9.40123840       0.56854732      -0.72713440      -0.09407501      -0.00000000
Se       4.86365736       2.04894360       9.48618985      -0.03683745       0.05690115      -0.04466656      -0.00000000
Se       5.04888622       6.65897025       9.64846953       0.20303343      -0.48712545      -0.23046424      -0.00000000
Se       5.02905086      10.59191246       9.65082798      -0.38515824      -0.06510783      -0.56637823      -0.00000000
Se       9.09842929       2.33000551       9.55085815       0.52909142      -0.39578837      -0.27935282      -0.00000000
Se       8.86522710       6.20299699       9.37475242       0.26959248       0.00667076       0.37159134      -0.00000000
Se       9.23020540      10.62416909       9.36744618      -0.13045380       0.11173167       0.53070354      -0.00000000
Se       2.86600530       6.32462465       1.75129155       0.06568384       0.54913955      -0.51828928      -0.00000000
Se       2.54545960      10.60266610       1.62025470       0.44504743       0.52650282      -0.46807803      -0.00000000
Se       6.75705709       2.26474787       1.55716903       0.54159779       0.00870022       0.09826486      -0.00000000
Se       6.92668646       6.45544181       1.58273647      -0.04554175       0.24594971       0.24270820      -0.00000000
Se       7.17922732      10.34551012       1.49073103      -0.35250394       0.16912246      -0.07850877      -0.00000000
Se      11.31215851       6.26320893       1.74414643      -0.08922912      -0.12132262       0.03836573      -0.00000000
Se       9.24610930       8.50111366       3.79435028      -0.21185450      -0.18658628      -0.15781348      -0.00000000
