72
Lattice="12.437959501783022 -2.3821203415e-06 9.839361172e-07 -2.3948043317e-06 12.504187536104128 -2.813405142e-07 1.1264721624e-06 -3.203904047e-07 11.061984425944184" Properties=species:S:1:pos:R:3:forces:R:3:magmoms:R:1 energy=-300.30917018 stress="-0.002810414988924048 0.005048933653744651 0.00046994600359606 0.005048933653744651 -0.006180945353612291 -0.00028547139813563306 0.00046994600359606 -0.00028547139813563306 -0.003063429759416447" dipole="_JSON [[0.0, 0.0, 0.0]]" magmom=0.0017283 free_energy=-300.30917018 pbc="T T T"
Ge       1.25906489       0.26850013       1.19199342      -0.11117545       0.00878367       0.52494049       0.00000000
Ge       3.18303616      10.55919264       3.96997856       0.04305918      -0.15067023       0.74230202      -0.00000000
Ge       6.99743566       2.44044181       4.10827814       0.03705330       0.16631168      -0.49295550       0.00000000
Ge       7.52000471       6.37682310       4.34602036       0.12438041       0.19985383      -0.49712260       0.00000000
Ge       7.19998840      11.00048102       4.23033748       0.12989408      -0.44385695       0.28275555      -0.00000000
Ge      11.45164651       2.33163225       4.25405846       0.41137972      -0.02635149      -0.56384767       0.00000000
Ge      11.25983422       6.66198860       4.05576959      -0.00814672       0.35460325       0.27061819       0.00000000
Ge      11.12354208      11.29055830       4.36686864      -0.17283208      -0.63177839      -0.19184963      -0.00000000
Ge       0.69895611       1.87810516       7.03080760      -0.37475697      -0.06998505      -0.56413806       0.00000000
Ge       1.10248030       6.01612939       6.77197498      -0.27032250       0.00066225      -0.04610573       0.00000000
Ge       1.03986845      10.49922070       6.84332491      -0.12002902       0.22842568       0.10007095      -0.00000000
Ge       5.39549118       1.88244792       6.72458275      -0.58503287       0.59070193       0.47481194       0.00000000
Ge       4.81567243       5.94365729       6.93409140      -0.04444473       0.04940903       0.18391762      -0.00000000
Ge       5.06568131      10.33751810       6.80726331      -0.02650148      -0.26118809       0.55667872      -0.00000000
Ge       9.28541873       1.96298218       6.95507781      -0.08719951      -0.13544111       0.06260154       0.00000000
Ge       9.48496103       6.12157010       6.83945481      -0.08527990       0.37481601      -0.22573831       0.00000000
Ge       2.85157465       6.68198484       4.00596123      -0.10625413       0.20338461       0.02291274       0.00000000
Ge       2.96086898       2.80538464       4.13463288       0.19962115      -0.80129851      -0.09716072       0.00000000
Ge       8.86985839      10.11119286       7.13757916       0.49428452       0.33498820      -0.59525121      -0.00000000
Ge      11.46350195       8.47412628       9.49278334      -0.18660761       0.19649923       0.04406531       0.00000000
Ge      11.02647517      12.14256294       9.94898402      -0.11581902       0.13583658      -0.43575915       0.00000000
Ge       0.93237984       4.73277544       1.40172643       0.62358254      -0.38134127      -0.31708691       0.00000000
Ge       0.71300301       8.92821822       1.38579034      -0.22772495       0.03728860       0.58176150       0.00000000
Ge       5.14066370       0.47256110       1.36036708      -0.17296790       0.08572215      -0.00814811       0.00000000
Ge       4.92954580       4.65233289       1.50981407       0.26828978       0.30406319       0.10606829       0.00000000
Ge       9.16399637       0.53223853       1.27612897      -0.10037950       0.31203676       0.32798588       0.00000000
Ge       9.63224669       4.33669698       1.34197944      -0.47621423      -0.04728265       0.34731660       0.00000000
Ge       5.27981389       8.37478196       1.59523511       0.07120832       0.36573282      -0.16846006       0.00000000
Ge       2.94406225       3.87470247       9.73273502       0.31021681       0.25304493      -0.10319619       0.00000000
Ge       3.11915382       8.16988754       9.77843810      -0.81547982       0.89900187       0.10387046       0.00000000
Ge       3.07220278      12.59303703       9.53443121       0.19261350       0.39399121       0.20327054       0.00000000
Ge       7.43102794       4.10988508       9.64987128       0.04480804       0.08221378      -0.03216165       0.00000000
Ge       7.04468157       7.94839945       9.61886917       0.11862633       0.16688289      -0.27287802       0.00000000
Ge       7.17092385      12.11448835       9.73810875      -0.54673072       1.09022354       0.21487339       0.00000000
Ge      11.50820133       4.27414485       9.64536364      -0.57387024       0.23496732      -0.20225072       0.00000000
Ge       9.01884088       8.78392640       1.31685635       0.20581996       0.43939297       0.62270958       0.00000000
Se      11.03701281       0.12670365       7.28624591       0.14469094       0.22875220       0.10024664      -0.00000000
Se       2.86130667       4.16344084       7.13510203      -0.03834321       0.46750120       0.03911447      -0.00000000
Se       2.81981735       8.72854665       7.26684410       0.50102977      -0.20014870      -0.29508180      -0.00000000
Se       7.04017741       0.11188691       7.19723056       0.65862090      -0.08174636      -0.07407008      -0.00000000
Se       6.70412821       4.26263614       7.13799283       0.52563895      -0.27579475       0.04508511      -0.00000000
Se       6.96600315       8.46344984       7.03675181      -0.59251612      -0.13442972       0.37577178      -0.00000000
Se      11.19014571       4.24925223       7.07673316       0.28860083       0.56562935       0.02796700      -0.00000000
Se       8.99001182       0.34538443       3.89195530       0.16956169       0.07243560      -0.21519349      -0.00000000
Se       0.68152825       0.20913463       3.99608101       0.23301400       0.71690193      -0.39935228      -0.00000000
Se       0.91299944       4.28511229       3.89076860      -0.26726667       0.03140072       0.26981710      -0.00000000
Se       0.82803858       8.35216504       4.02866281      -0.25137184       0.17869090      -0.47561492      -0.00000000
Se       5.07216526      -0.14549443       3.93165649      -0.29870247       0.65169307      -0.17576935      -0.00000000
Se       5.07389422       4.30638608       4.08675534      -0.41142394       0.42817867      -0.48696144      -0.00000000
Se       4.82893334       8.39626184       4.06952410      -0.14344924       0.26430767       0.01140865      -0.00000000
Se       2.59944565       0.24921953       7.06379149       0.39135304      -0.51765215      -0.10496325      -0.00000000
Se      10.92773464       8.53334191       7.01781478       0.02217962      -0.30447162       0.01321693      -0.00000000
Se      11.24104040      10.73189804       1.77628582      -0.54215438      -0.48457533      -0.28575977      -0.00000000
Se       3.05644853       2.18836447       1.50445658       0.02352242      -0.19401697       0.37902154      -0.00000000
Se      11.13891567       2.29442996       1.58476402       0.00877071      -0.27220202       0.37584778      -0.00000000
Se       8.92105944       4.13722628       3.99762907       0.33046463       0.49966547      -0.40726423      -0.00000000
Se       0.79785790       2.52084538       9.42920565       0.05950628      -1.01081431       0.67191132      -0.00000000
Se       0.72969838       6.64094552       9.24780392       0.53465168      -0.56229716       0.19648395      -0.00000000
Se       0.63192465      10.75286501       9.40984009      -0.11946182      -0.76867220       0.17645044      -0.00000000
Se       4.79598839       2.14344926       9.39039433      -0.10196861      -0.26710383      -0.25394126      -0.00000000
Se       4.84033477       6.49493387       9.55868428       0.58471653      -0.94708008      -0.50631676      -0.00000000
Se       4.92475773      10.85567145       9.44266913      -0.00545029      -0.94089311      -0.31939971      -0.00000000
Se       9.28424863       2.32327542       9.44433135      -0.25622553       0.32171738       0.17197705      -0.00000000
Se       9.06880449       6.32044488       9.29717679      -0.39948221      -0.14392205       0.40222095      -0.00000000
Se       8.92880954      10.39320377       9.65557777       0.57776835      -0.37976827       0.15971665      -0.00000000
Se       2.83591805       6.59973958       1.43914788       0.05128634      -0.59801500       0.36993629      -0.00000000
Se       2.65604153      10.55778036       1.57882350       0.37409283       0.26900094      -0.72295062      -0.00000000
Se       6.89728413       2.33165054       1.47009937       0.30299304      -0.25729772       0.47181008      -0.00000000
Se       7.00428221       6.49911813       1.58519044      -0.14388208      -0.40982550       0.40588654      -0.00000000
Se       7.03167026      10.49678101       1.78111879       0.30232047      -0.50523610      -0.56312783      -0.00000000
Se      11.39784244       6.21147849       1.57030342      -0.69289975       0.57676705      -0.13433338      -0.00000000
Se       9.23497370       8.42205431       3.90260683       0.11274684      -0.57632346      -0.20321113      -0.00000000
