72
Lattice="12.433923601837723 -2.3813473852e-06 9.836168472e-07 -2.3968095432e-06 12.514657511117763 -2.815760856e-07 1.1284343504e-06 -3.209484888e-07 11.081253160715919" Properties=species:S:1:pos:R:3:forces:R:3:magmoms:R:1 energy=-301.05849099 stress="0.004228776623027354 0.0017475987501315061 -0.00022000897742721574 0.0017475987501315061 -0.0031890108703800657 0.0011177819203888862 -0.00022000897742721574 0.0011177819203888862 -0.008734621613073035" dipole="_JSON [[0.0, 0.0, 0.0]]" magmom=0.0016917 free_energy=-301.05849099 pbc="T T T"
Ge       1.19375828       0.56120367       1.25255839      -0.16050527      -0.44491888       0.24298900       0.00000000
Ge       3.07045059      10.72554755       4.14344173       0.31001809       0.08814758      -0.63056744      -0.00000000
Ge       6.84830806       2.66312827       4.07601557       0.37035478      -0.20960363       0.18590901       0.00000000
Ge       7.21609463       6.57363521       3.98907466       0.19859047       0.04013126       0.19840861      -0.00000000
Ge       7.35035068      10.91744843       3.98722115      -0.41717362      -0.22258767      -0.05234358       0.00000000
Ge      11.38557053       2.37269801       4.06033282       0.38320472      -0.10595006       0.55449998       0.00000000
Ge      11.21348249       6.76418715       4.31906296      -0.14110099      -0.15683015      -0.12755357       0.00000000
Ge      11.00616347      10.99829119       4.25521084       0.21531027       0.24163549      -0.30334201       0.00000000
Ge       0.77739368       1.91665919       6.92522991       0.18680299      -0.26442694       0.24580007       0.00000000
Ge       0.65457411       6.04074564       6.96401352       0.45626182      -0.07997230       0.11618120       0.00000000
Ge       0.99402389       9.94743240       6.81465674       0.00701823       0.16756440      -0.01669738       0.00000000
Ge       4.96719646       1.67315876       6.91252575      -0.24550143       0.46559026       0.21409760      -0.00000000
Ge       5.05313608       5.95269743       7.04651926      -0.33440757       0.43702836      -0.25775904      -0.00000000
Ge       4.96184606      10.33154159       7.10774285       0.19060993      -0.28246848      -0.56023087      -0.00000000
Ge       9.19062484       1.84684141       6.90370082      -0.21277271       0.07843160      -0.28342071       0.00000000
Ge       9.05716842       5.93006822       7.12241550      -0.17606087       0.11566545       0.02360135       0.00000000
Ge       2.90342971       6.91189304       4.09404258       0.22396778      -0.31337953      -0.24551793      -0.00000000
Ge       2.80457188       2.72446485       4.35465197       0.23384630      -0.36022371      -0.01789934      -0.00000000
Ge       9.33190570      10.01271179       6.92677222      -0.29825042       0.46359181       0.18060322       0.00000000
Ge      11.58423219       8.46898654       9.73306688      -0.00859087      -0.51264378      -0.28299899       0.00000000
Ge      11.24978461      12.44763451       9.60277389      -0.02922456      -0.42671794      -0.31371917       0.00000000
Ge       1.04802380       4.55446919       1.42202804       0.03900794       0.35475936       0.51764921       0.00000000
Ge       0.60703226       8.95758694       1.50010050       0.61233767       0.22173552      -0.10502989       0.00000000
Ge       5.10772171       0.44385123       1.45863954      -0.13809961       0.06456764      -0.39828635      -0.00000000
Ge       4.99323067       4.75612544       1.65768355      -0.23890559       0.13095810      -0.68552782      -0.00000000
Ge       9.10759285       0.81835696       1.19822808      -0.23739532      -0.29314284       0.08522798       0.00000000
Ge       9.55390557       4.48152139       1.66252543      -0.41829845      -0.00661850      -0.56648825       0.00000000
Ge       5.29583677       8.69059333       1.45083806      -0.15824271       0.31022115       0.26145202      -0.00000000
Ge       2.92679822       4.05012796       9.70301964      -0.19240540      -0.21725620       0.00207861       0.00000000
Ge       3.08727668       8.27495253       9.81148283       0.03811850      -0.17734389      -0.31910084      -0.00000000
Ge       3.09323727      12.41529676       9.53957987       0.15945223       0.11884493       0.18261459       0.00000000
Ge       7.21751882       4.20626000       9.70774597       0.01244102      -0.31671947      -0.02212988       0.00000000
Ge       7.24173720       8.16864905       9.49744040      -0.15474046      -0.02077897      -0.23504271       0.00000000
Ge       7.24059972      12.37259657       9.60113544      -0.06281209       0.06040297       0.01993781       0.00000000
Ge      11.26045263       4.10704950       9.65431284       0.11953865      -0.26071909      -0.04698944       0.00000000
Ge       9.37534660       8.78821995       1.24153928      -0.21403090       0.27578559      -0.11081742       0.00000000
Se      11.15610161       0.16002993       7.00245903       0.23671523       0.13948434       0.39660977      -0.00000000
Se       2.88767549       4.45568841       7.23071318      -0.22693067      -0.11970053      -0.30207361      -0.00000000
Se       2.95527456       8.31069055       7.21333910      -0.08317472       0.45870191      -0.04307397      -0.00000000
Se       6.95286787       0.07819300       7.07171118       0.29315024      -0.07252922       0.00639522      -0.00000000
Se       6.76538264       4.10688901       7.18564294       0.65219017       0.03812407       0.10600689      -0.00000000
Se       7.12982065       8.63346552       6.91897243      -0.07647596      -0.34632420       0.46465594      -0.00000000
Se      11.04498075       4.26835122       7.13150068       0.28400500      -0.06953012      -0.04606350      -0.00000000
Se       9.12427030       0.22150318       3.71191580      -0.04619882       0.16629598       0.35572746      -0.00000000
Se       0.54385965       0.15377710       3.78793756       0.10914977       0.54570744       0.27803576      -0.00000000
Se       0.92344625       4.39559843       4.09679632      -0.21059921      -0.44145239      -0.58864159      -0.00000000
Se       0.75849879       8.38292485       4.01000693       0.04029384       0.58617536      -0.08891958      -0.00000000
Se       5.09731615      -0.11504379       3.86660742       0.07721657       0.17232315       0.64335529      -0.00000000
Se       4.88454755       4.34920391       4.13447173      -0.02375255       0.35191801       0.18790283      -0.00000000
Se       4.91242227       8.64945720       4.03127633      -0.41100597      -0.00999836      -0.34686659      -0.00000000
Se       2.75164020       0.00521853       7.03556585      -0.06615846       0.09388932      -0.12502736      -0.00000000
Se      11.17794521       8.25405911       7.09068131      -0.15129313       0.09723586       0.42297832      -0.00000000
Se      11.18165944      10.64132247       1.69800014      -0.42515882      -0.21375621      -0.13749630      -0.00000000
Se       3.07579211       2.21953339       1.77156504      -0.08607426       0.03908549       0.04679330      -0.00000000
Se      11.13036073       2.37715327       1.61278736      -0.00932081       0.17183629      -0.55808779      -0.00000000
Se       8.93912585       4.33893771       4.06360836      -0.30493184       0.20970412       0.35395959      -0.00000000
Se       0.84054124       2.33103549       9.49118254      -0.26950635       0.07668894      -0.20749069      -0.00000000
Se       0.83493260       6.42696449       9.47278790      -0.19834301       0.23179463       0.34392955      -0.00000000
Se       0.74666578      10.41445176       9.33193056      -0.08527187       0.46283215       0.29379832      -0.00000000
Se       4.61882588       2.15872571       9.50377223       0.47508613      -0.45228834      -0.22153367      -0.00000000
Se       5.10769543       6.57848425       9.54004104      -0.05475252      -0.17446738       0.13538936      -0.00000000
Se       5.08836728      10.58961528       9.53922379      -0.33530099       0.09334766       0.50872511      -0.00000000
Se       9.10131844       2.21552345       9.37994506       0.05258838       0.23996201       0.56813409      -0.00000000
Se       9.00232809       6.17152106       9.67267588      -0.08604599       0.24756579      -0.37655441      -0.00000000
Se       9.19199192      10.68115949       9.55295506       0.18940662      -0.12028724      -0.49184054      -0.00000000
Se       2.88363941       6.39973537       1.49877667       0.06689161       0.00514750       0.40071874      -0.00000000
Se       2.59642066      10.87942032       1.53081749       0.01012607      -0.72204866       0.35282923      -0.00000000
Se       6.91483285       2.33866217       1.54350584       0.21632585      -0.06666906      -0.08521991      -0.00000000
Se       6.85774910       6.66483886       1.49796107       0.07433679      -0.55630443       0.08754867      -0.00000000
Se       7.22014774      10.51754303       1.45223415       0.08460856      -0.29548907       0.11202400      -0.00000000
Se      11.37628932       6.21375121       1.82623500       0.11259084       0.19431700      -0.34534327      -0.00000000
Se       9.13160644       8.33699917       3.73757199       0.25725178       0.07594874       0.44912773      -0.00000000
