72
Lattice="12.460103394288915 -2.386361344e-06 9.856878656e-07 -2.386361344e-06 12.460103474695826 -2.803486359e-07 1.1183410549e-06 -3.180777609e-07 10.982136749463717" Properties=species:S:1:pos:R:3:forces:R:3:magmoms:R:1 energy=-282.78557551 stress="-0.024213873767942578 -0.0022481203777655326 -0.0030460123725705034 -0.0022481203777655326 -0.029894260937401895 -0.005482648364706434 -0.0030460123725705034 -0.005482648364706434 -0.04468964063665359" dipole="_JSON [[0.0, 0.0, 0.0]]" magmom=0.0005541 free_energy=-282.78557593 pbc="T T T"
Ge       0.81876910       0.80866469       1.13503185      -3.98196144      -4.83591116      -0.52610949      -0.00000000
Ge       2.88187987      11.23098046       4.10206118      -0.29369421       0.89719939       5.60877622       0.00000000
Ge       7.11189225       2.61822067       4.22423572       0.32997763      -0.50543476      -0.24579390       0.00000000
Ge       7.17393267       6.87483819       3.87971101      -0.30391841      -1.82802142      -0.27663450       0.00000000
Ge       7.33603718      11.24475342       3.81638480       0.99838583       1.10256596       7.17850942       0.00000000
Ge      11.71213543       2.80990196       3.97905482      -0.61882325      -0.74806257       0.27169000      -0.00000000
Ge      10.87096443       6.95013750       4.18815820       1.68480608      -0.63006355       0.15799730      -0.00000000
Ge      11.13270845      10.61402589       4.30155118       0.65352191       0.60625439       0.26223520      -0.00000000
Ge       0.75949451       1.72473899       7.47459686      -1.35967937      -2.16061754      -9.99495325      -0.00000000
Ge       1.30275194       6.16320311       6.81438355      -1.21731354      -1.39047123      -1.43867954      -0.00000000
Ge       1.00704896       9.66952939       6.92677420      -1.28067171       2.47839643      -1.02154494      -0.00000000
Ge       4.87856247       1.56196618       6.58890728       0.52622520       0.75993920       0.48765325       0.00000000
Ge       5.13555365       5.99031505       6.93741281      -0.20324252      -0.92528560      -0.58895006       0.00000000
Ge       5.19899975       9.95660580       6.65835109      -4.32182752       3.30466001      -0.52029000       0.00000000
Ge       8.82862097       1.75204710       7.05749974       1.82104824       1.86154730      -0.38654403      -0.00000000
Ge       9.15400855       6.10067981       6.66925766       0.48258200      -1.27790288       0.98298845       0.00000000
Ge       3.00515438       6.47340168       3.68189266       0.23626718       0.34084864       1.66310183       0.00000000
Ge       3.13122025       2.49550736       4.34142492      -0.04147009       0.33420680      -0.10313501       0.00000000
Ge       9.09006819       9.97263442       6.65579275       0.79729297       0.89895167       0.30499535      -0.00000000
Ge      11.29348259       7.82452702       9.85728322      -0.20108023       0.51028990      -0.24551226       0.00000000
Ge      10.87679851      12.30267110       9.45173124       0.09839163       0.14467018      -0.04151978      -0.00000000
Ge       0.96225100       4.56497370       1.31665060      -1.77346334      -1.52992232      -0.74350464       0.00000000
Ge       0.88138024       8.83253259       1.46687945      -0.64884222       0.09671651       0.03643180       0.00000000
Ge       5.17936137       0.71976732       1.39653254      -0.07531954      -0.26096334       0.21762015       0.00000000
Ge       4.75714339       4.58164962       1.37487750       0.83246156       0.07237754       0.21841403       0.00000000
Ge       9.13293398       0.77888534       1.54761127       0.30327813      -0.22492605      -0.92581378       0.00000000
Ge       9.22739723       4.54231133       1.47611339      -0.20899565       0.41927151       0.05655406       0.00000000
Ge       4.60546350       9.04636291       1.36610101       1.54892586      -0.81975819      -0.10253805       0.00000000
Ge       3.04735175       3.50137132       9.59251159       3.01278771       4.28820880       0.68198989       0.00000000
Ge       2.69283392       8.27592717       9.72952719       0.07469880      -0.39976585      -0.14552219       0.00000000
Ge       2.72505457      12.02505718       9.58849217       0.92870453       0.27855688       0.39126672       0.00000000
Ge       7.05137988       4.20033601       9.71631679      -0.41663501      -0.20448663      -0.86887688       0.00000000
Ge       7.04265580       8.16414253       9.16166607      -0.70500720      -0.01080241       2.92636652       0.00000000
Ge       7.16111339      12.37531233       9.53233134      -0.73840911       0.15787431       0.39635204       0.00000000
Ge      11.11046676       4.00846129       9.95984530      -0.12212067       0.27526878      -1.04334894       0.00000000
Ge       9.25243175       8.71899133       1.62269135       0.38579626       0.47577926      -3.56892698       0.00000000
Se      11.27813133       0.28272539       6.95318969      -0.77083507      -0.74071690       0.59144285      -0.00000000
Se       3.03940726       4.21694728       6.79083978       0.21083412       0.31016699       0.23763413      -0.00000000
Se       2.69453293       8.10494127       7.13140333       3.08708125      -0.11196473       0.20127014      -0.00000000
Se       7.54836007      -0.19393599       7.06681073      -2.12014138      -0.74251305      -0.25758903      -0.00000000
Se       7.18684770       4.10232069       7.08003830      -0.19106325       0.88327199       0.30291828      -0.00000000
Se       6.88526274       8.69269420       6.92030324       4.00517546      -3.45137616      -1.11928304      -0.00000000
Se      10.89977230       4.19299390       7.19175253       0.18059260       0.75075077       0.01996529      -0.00000000
Se       9.42008838       0.38182294       3.90281669      -0.17712686       0.04425300       0.54485980      -0.00000000
Se       0.89959836       0.33087276       3.95029207      -0.41848569      -0.22630611      -0.34941097      -0.00000000
Se       1.25255590       4.29704858       3.73473232      -0.33689569       0.36820173       1.12327817      -0.00000000
Se       0.54742034       8.72237605       3.93119863       0.48771103      -1.01420734       0.79770342      -0.00000000
Se       5.22664578       0.27677235       4.26801965      -0.23615797      -0.04357466      -1.30504526      -0.00000000
Se       5.27754210       4.26309559       3.99777968      -1.40350262       0.74429349      -0.48233127      -0.00000000
Se       5.24139423       8.24475905       4.23318180      -1.30281282       0.66810889      -1.02305451      -0.00000000
Se       3.03255443       0.12686573       7.12053291      -0.94601213      -0.95204431      -0.19833019      -0.00000000
Se      11.24111114       8.49857082       6.82307302      -0.56284892      -0.81247617       0.38629647      -0.00000000
Se      11.24816625      10.36968364       1.84120182      -0.26160102       0.70958103      -1.32187384      -0.00000000
Se       2.41358763       2.11254073       1.45299547       6.16767183       4.01345412       1.05820265      -0.00000000
Se      11.37824018       2.36181431       1.38000726      -0.96132226       0.36377917       0.46307505      -0.00000000
Se       9.23811713       4.11515786       3.95459386       0.33860135       0.74326143      -0.12927037      -0.00000000
Se       1.24340604       2.39277445       9.28199936      -3.05866048       0.04412097       8.57857673      -0.00000000
Se       0.71830709       6.36427451       9.14594859       0.28097799      -0.42906918       1.57725548      -0.00000000
Se       0.95867517      10.27023444       9.36027268      -0.57044729      -0.00118111       0.52410907      -0.00000000
Se       4.81991445       2.12637585       9.16812836       2.14603212      -0.89790148       0.68557519      -0.00000000
Se       4.71031377       6.18248491       9.29835773       0.84163565       0.28485713       0.86945909      -0.00000000
Se       4.96589949      10.54287813       9.73973883      -0.15611868      -0.18635750      -0.38346662      -0.00000000
Se       9.34069726       2.17176487       9.57954379      -0.61636318      -0.28944969       0.20261076      -0.00000000
Se       9.04046664       6.66541056       9.54425542       0.24448921      -0.97145287      -1.03932764      -0.00000000
Se       8.90707744      10.68015771       9.59757841       0.78832260      -1.23968152      -0.16266626      -0.00000000
Se       2.56500344       6.20209180       1.35808824       2.50861107       2.11158327      -1.18716460      -0.00000000
Se       3.05212426      10.62898825       2.07299455      -0.69231291      -0.19412576      -5.38499789      -0.00000000
Se       7.02522254       2.49280512       1.56352960       0.09481316      -0.43856094       0.10621219      -0.00000000
Se       7.15825878       6.18360054       1.16558025      -0.36820734       0.20630638       1.02840477      -0.00000000
Se       6.95064319      10.72132854       1.86432124      -1.10579081      -1.52157624      -7.14440405      -0.00000000
Se      11.56429995       6.68428697       1.44159404      -0.75026677      -0.46618947       0.11169240      -0.00000000
Se       9.06021222       8.50928607       3.84407768      -0.57825278       0.93354691       3.02292959      -0.00000000
