72
Lattice="12.437875041639536 -2.3821041657e-06 9.839294358e-07 -2.3944131602e-06 12.50214508056237 -2.812945596e-07 1.1262426466e-06 -3.203251259e-07 11.05973057484534" Properties=species:S:1:pos:R:3:forces:R:3:magmoms:R:1 energy=-300.84305329 stress="0.00032054140182345627 -0.00011456879823171118 -0.0020123811995147547 -0.00011456879823171118 -0.0025456959158244637 -0.0004255948695965393 -0.0020123811995147547 -0.0004255948695965393 -0.010147106248424917" dipole="_JSON [[0.0, 0.0, 0.0]]" magmom=0.0017577 free_energy=-300.84305329 pbc="T T T"
Ge       1.29301181       0.24504686       1.36962327      -0.11787522       0.23668394      -0.18591271       0.00000000
Ge       3.10888359      10.56333127       4.00213879       0.15705665       0.08622132      -0.47803131       0.00000000
Ge       7.01186247       2.36324272       3.99405351       0.05196927       0.39208011       0.68215677       0.00000000
Ge       7.44537452       6.29089680       4.14676227      -0.08483762      -0.25507153       0.87005446      -0.00000000
Ge       7.16156259      10.83351305       4.22628152      -0.25010866       0.36582612      -0.45641748       0.00000000
Ge      11.50531551       2.23890472       3.99110493      -0.11699998       0.31482981       0.77268495       0.00000000
Ge      11.22899036       6.60387226       4.09057073       0.31652382       0.18782475      -0.25695734       0.00000000
Ge      11.03412624      11.25080491       4.25277143       0.24674410      -0.23928986      -0.28199574       0.00000000
Ge       0.81573351       1.93518454       6.97029459       0.00159103      -0.31364727       0.59812883       0.00000000
Ge       1.03892780       6.07540838       6.77739484      -0.30297230       0.14922621       0.32712142       0.00000000
Ge       0.98831072      10.41229399       6.72734880       0.39815978      -0.05934970       0.42469037       0.00000000
Ge       5.31618410       1.97275483       6.72084721       0.21414395       0.12751142       0.39909545       0.00000000
Ge       4.92910427       6.00529936       7.11578040       0.31280944       0.02286359      -0.34842188      -0.00000000
Ge       5.08693813      10.16048212       7.06788238      -0.16599163       0.43943848      -0.74044456       0.00000000
Ge       9.23717346       1.96246887       6.94620432      -0.30233130       0.08006248       0.11647954       0.00000000
Ge       9.37419108       6.12741542       6.83270898      -0.08175684       0.25185260       0.34176259      -0.00000000
Ge       2.96325526       6.68016813       3.91525477      -0.25247341       0.23357423       0.32579311       0.00000000
Ge       3.06890475       2.55171709       4.29662458      -0.16071187       0.17477781       0.22675450       0.00000000
Ge       9.07275916      10.30401356       6.94161604      -0.12253595      -0.46494642       0.34355917       0.00000000
Ge      11.39737685       8.44945588       9.53545699       0.17301616      -0.07602775       0.02354969       0.00000000
Ge      11.06197339      12.21419848       9.74130173       0.22590775      -0.07315124       0.29865251       0.00000000
Ge       1.19122187       4.73800606       1.48413593      -0.81466123      -0.23850648      -0.02263025       0.00000000
Ge       0.60338670       8.98084452       1.53011117       0.19463496      -0.08961682      -0.29057299       0.00000000
Ge       5.02142336       0.47979506       1.39346636       0.14576855      -0.26541869       0.00537616       0.00000000
Ge       5.12239202       4.55203213       1.58243283      -0.07474244       0.40417882      -0.38353400       0.00000000
Ge       9.22568601       0.75346888       1.28216334      -0.32065942      -0.56004438      -0.12654671       0.00000000
Ge       9.44865820       4.38025381       1.38830486       0.28093702       0.24202372      -0.51927680       0.00000000
Ge       5.44999818       8.68286231       1.55083076      -0.68771638      -0.72301737      -0.02289090       0.00000000
Ge       2.90282409       3.95158479       9.59868089      -0.28986377       0.00292025       0.03673810      -0.00000000
Ge       3.02668012       8.29864866       9.94422585       0.22841739      -0.30339347      -0.42046610       0.00000000
Ge       3.05482040      12.70549536       9.54082900       0.12802825      -0.23277604      -0.26520968       0.00000000
Ge       7.36995762       4.13990932       9.78518852      -0.27746286       0.21878100       0.00748367       0.00000000
Ge       7.08444635       8.06900538       9.54726885      -0.14193957      -0.09454431       0.17027193       0.00000000
Ge       6.97674972      12.33534242       9.79128159       0.31401212      -0.18085550      -0.58719946       0.00000000
Ge      11.38265271       4.52850970       9.59303082       0.18977179      -0.58302470      -0.12072200       0.00000000
Ge       9.21788259       8.88006280       1.39700852      -0.03008344      -0.83062565      -0.24366697       0.00000000
Se      11.08790857       0.23582709       7.29708408       0.23968166      -0.05526882      -0.68880810      -0.00000000
Se       2.86814519       4.34338547       7.05489352      -0.07299374      -0.26282966       0.19231862      -0.00000000
Se       2.99487467       8.66413640       7.36531097      -0.50451327      -0.39254433      -0.29632826      -0.00000000
Se       7.14941751       0.14220383       7.11741219      -0.13139060       0.24571404       0.33961127      -0.00000000
Se       6.82247885       4.12657250       7.28143491      -0.08751659       0.21223876      -0.40941891      -0.00000000
Se       6.94987819       8.44509038       7.06561349       0.39358767       0.02085992       0.00908528      -0.00000000
Se      11.21518363       4.34055673       7.05545207       0.25365444       0.27936442       0.11367155      -0.00000000
Se       8.89473663       0.31388947       3.85359757       0.27125269      -0.25010025       0.17874341      -0.00000000
Se       0.73692502       0.28235259       3.88219395      -0.16532897      -0.43841489       0.21943175      -0.00000000
Se       0.79451829       4.15942456       4.03903639       0.59886283       0.18429188      -0.32236021      -0.00000000
Se       0.75258503       8.47621429       3.96455214      -0.04744055      -0.11861116       0.22774067      -0.00000000
Se       5.00010007      -0.01366032       3.89134920       0.25236411      -0.36204638       0.18496768      -0.00000000
Se       4.92320046       4.37641634       4.07125781      -0.10390012      -0.09719475       0.16744994      -0.00000000
Se       4.77130321       8.54484029       4.07988281       0.13882971       0.17964170      -0.27740868      -0.00000000
Se       2.67496063      -0.04131311       7.00750942      -0.20857476       0.53025963       0.19618145      -0.00000000
Se      10.88491959       8.41741980       7.04089949       0.14457604      -0.16439718      -0.02561938      -0.00000000
Se      10.95701890      10.65620624       1.66650564       0.53438701       0.39517449       0.42263497      -0.00000000
Se       3.12909606       2.13916100       1.78960198      -0.45581525       0.04426239      -0.55326286      -0.00000000
Se      11.15981338       2.28520688       1.56973953       0.04267927       0.39584658      -0.74488545      -0.00000000
Se       8.97899518       4.10895761       3.78721968       0.01570835       0.39583303       0.85292080      -0.00000000
Se       0.71535237       2.40324773       9.58102314       0.23990855       0.05956934      -0.50266685      -0.00000000
Se       0.84439335       6.48762898       9.40119960      -0.06167836       0.19320377      -0.29439372      -0.00000000
Se       0.63045057      10.52087196       9.28242942      -0.31516707      -0.13849293       0.20277861      -0.00000000
Se       4.77366371       2.18016042       9.29318989      -0.05411344      -0.44665489      -0.03788349      -0.00000000
Se       5.00117550       6.34197342       9.58471875      -0.38644705       0.50047973       0.33966016      -0.00000000
Se       4.92636622      10.66632140       9.47172781       0.09979538       0.26941590       0.72449486      -0.00000000
Se       9.05016614       2.34805887       9.45567452       0.47248508      -0.28620315       0.18400478      -0.00000000
Se       8.94382753       6.26581731       9.42650050       0.10110424       0.04450431      -0.28496365      -0.00000000
Se       9.10391654      10.46732727       9.54730358      -0.47568436       0.37616023      -0.32123069      -0.00000000
Se       2.88720512       6.54889539       1.43465252       0.31428020      -0.14655295       0.18519535      -0.00000000
Se       2.79245620      10.66674128       1.32931044      -0.16531169      -0.35081904       0.83884203      -0.00000000
Se       6.94422450       2.25655333       1.56856327      -0.17311418       0.10462976      -0.73484316      -0.00000000
Se       6.93558607       6.46370478       1.78515004      -0.25453943      -0.11096532      -1.12562430      -0.00000000
Se       7.17980589      10.41723157       1.59011360       0.14454562       0.66233332       0.56978032      -0.00000000
Se      11.27077154       6.35441193       1.54587564       0.15639458      -0.52807147       0.08984401      -0.00000000
Se       9.14538379       8.14675376       3.89156299       0.26566382       0.70801448       0.16088382      -0.00000000
72
Lattice="12.438419975876096 -2.3822085316e-06 9.839725442e-07 -2.3939398149e-06 12.499673563847269 -2.812389512e-07 1.1256589443e-06 -3.201591098e-07 11.053998604097075" Properties=species:S:1:pos:R:3:forces:R:3:magmoms:R:1 energy=-300.58459971 stress="0.0002018719695450945 0.0009229740908724663 -0.0018072867013589117 0.0009229740908724663 -0.004317911221639018 -0.00022301778428247552 -0.0018072867013589117 -0.00022301778428247552 -0.005469524174946693" dipole="_JSON [[0.0, 0.0, 0.0]]" magmom=0.0016078 free_energy=-300.58459971 pbc="T T T"
Ge       1.08591180       0.37611369       1.32585260      -0.14891807      -0.56897046       0.36826012      -0.00000000
Ge       3.07268904      10.77050447       3.99062631       0.10332688      -0.40380912      -0.17344709      -0.00000000
Ge       7.13521284       2.75081823       4.00668196      -0.59165129      -0.55692703       0.21416384       0.00000000
Ge       7.35843167       6.26525593       4.21225730      -0.13150963       0.71810748      -0.33161134       0.00000000
Ge       7.11122260      10.87566670       4.01870850       0.28849253      -0.08680943      -0.15920180      -0.00000000
Ge      11.56158488       2.42553999       3.92167971      -0.03552037      -0.25503400      -0.03385940      -0.00000000
Ge      11.37144963       6.70255527       4.03377535      -0.11544717       0.12027837       0.01537141       0.00000000
Ge      11.11809195      10.87913907       4.18758208      -0.18466413       0.15945195      -0.75876374      -0.00000000
Ge       0.88636892       1.81924906       7.09324957      -0.09522110       0.06350059      -0.27013173       0.00000000
Ge       0.90334894       6.33070959       6.97873735       0.09003867      -0.49509802       0.11611104       0.00000000
Ge       1.28366358      10.21707788       6.88255100      -0.78169772       0.37159654       0.13212608      -0.00000000
Ge       5.33886554       2.22577094       6.85174528      -0.41971593      -0.31362528       0.46780870       0.00000000
Ge       5.18333924       6.10248285       7.07571297      -0.61633602      -0.09969486      -0.18332006       0.00000000
Ge       4.96697729      10.16227227       7.18595190       0.19777090       0.32046438      -0.48631933       0.00000000
Ge       9.13075126       2.03342965       7.08302254       0.16510977      -0.06859382      -0.21236079       0.00000000
Ge       9.20652862       6.36352883       7.02865169       0.26064440      -0.52119223       0.09371889       0.00000000
Ge       2.87730848       6.94257666       4.11027983       0.18213473       0.01333517       0.19374281       0.00000000
Ge       3.07201388       2.45359301       4.49384074       0.09517013      -0.00500800      -0.45701656       0.00000000
Ge       9.23880066      10.10283068       6.80315918      -0.17189089       0.27490765       0.09570995      -0.00000000
Ge      11.32758072       8.10541754       9.67736108       0.07192066       0.48076467       0.07653943       0.00000000
Ge      11.26905516      12.27084437       9.39566332      -0.28280002      -0.09582046       0.41691187      -0.00000000
Ge       0.97249395       4.53305008       1.54465313       0.25006350      -0.20144290      -0.63913395       0.00000000
Ge       0.69678398       9.04619231       1.34985749      -0.33965490      -0.22533738       0.35641532       0.00000000
Ge       4.92755768       0.36685929       1.50763016       0.09403936       0.15664257      -0.62013625      -0.00000000
Ge       4.88181379       4.57324544       1.33192289       0.19363171       0.20871392       0.72615501       0.00000000
Ge       9.04924942       0.64686610       1.33807755       0.18967679      -0.23203653       0.27235481      -0.00000000
Ge       9.39911304       4.52692211       1.32658898       0.12887431      -0.09684267       0.54716695       0.00000000
Ge       5.27142070       8.63430460       1.35042285       0.44833404       0.17294742       0.59476458       0.00000000
Ge       2.71371693       4.00656376       9.55939483       0.50691131      -0.32538926      -0.16005996       0.00000000
Ge       3.09343711       8.23854334       9.69562917      -0.70334369       0.48853106       0.07191084       0.00000000
Ge       3.12981431      12.36844928       9.49892633       0.00711429       0.38652866       0.73622445      -0.00000000
Ge       7.14627621       4.20655876       9.80519277       0.44061160      -0.36137654      -0.34748888       0.00000000
Ge       6.94533066       8.17436985       9.60269590       0.51555899       0.14009687       0.50808775       0.00000000
Ge       7.16701558      12.55464446       9.57474996      -0.11211560       0.17067755      -0.19962447      -0.00000000
Ge      11.43302779       4.11927778       9.53016611      -0.33051900       0.13464777      -0.32206194       0.00000000
Ge       9.26855149       8.39073386       1.44095146      -0.08540497       0.86823863       0.11106142      -0.00000000
Se      11.20855225       0.28960799       6.93579414      -0.18255554       0.04841861       0.01778934      -0.00000000
Se       2.85216998       4.51527461       7.03686113       0.11027478      -0.01010512       0.33963720      -0.00000000
Se       2.96160860       8.37040697       7.11646629       0.48419189       0.09592353       0.12542860      -0.00000000
Se       7.05274755       0.31444781       7.01836363       0.05418867       0.03349409       0.17330640      -0.00000000
Se       6.91849932       4.21035538       7.18050721       0.09353133       0.10996531       0.33803323      -0.00000000
Se       7.07028711       8.58928476       7.14714983      -0.25760770      -0.28223516      -0.44715894      -0.00000000
Se      11.25169415       4.59679468       6.96889758      -0.11521418      -0.37531032       0.37901412      -0.00000000
Se       9.06876465       0.13911213       3.91104126      -0.03451696       0.18067275      -0.13028699      -0.00000000
Se       0.56721004       0.10214061       3.95598408       0.30440354       0.57386126      -0.41731457      -0.00000000
Se       1.13185591       4.12087421       3.95434079      -0.69725806       0.09751973       0.63219973      -0.00000000
Se       0.70718459       8.60786185       4.06789710       0.07185729      -0.24419992      -0.61377580      -0.00000000
Se       5.01511016      -0.00626746       3.92195323       0.05099637       0.09554334       0.56235453      -0.00000000
Se       4.78765527       4.31339090       4.07416430       0.73272146       0.03696945      -0.64456951      -0.00000000
Se       4.87828644       8.66652812       3.94257446      -0.47052480      -0.07126700      -0.31539944      -0.00000000
Se       2.70734270      -0.10024918       7.08601442       0.12971914       0.06574661      -0.49890701      -0.00000000
Se      10.98046593       8.19972482       7.14029025      -0.05809922       0.44082304       0.02379108      -0.00000000
Se      11.15588310      10.66383392       1.47653285      -0.33716256      -0.54012836       0.57686923      -0.00000000
Se       2.92696794       2.06517665       1.77938475       0.42204004       0.16591123       0.18975804      -0.00000000
Se      11.06956254       2.46565351       1.34792453      -0.08498188      -0.30935914       0.58026376      -0.00000000
Se       9.04215416       4.39171207       4.05673856       0.36581015      -0.08357698      -0.68219746      -0.00000000
Se       0.77948721       2.24971499       9.61294367       0.06760366       0.00600089      -0.26303180      -0.00000000
Se       0.85743154       6.47555704       9.56237653       0.22567254      -0.16845603      -0.17263587      -0.00000000
Se       0.51285359      10.27085278       9.44632205       0.09507383       0.01169385      -0.27343501      -0.00000000
Se       4.71835990       2.06343178       9.47677070      -0.24236001       0.29729006      -0.51517442      -0.00000000
Se       4.91319373       6.58212658       9.64050242       0.48120409      -0.98089096      -0.29779172      -0.00000000
Se       4.99074282      10.59454403       9.63704879       0.15888419      -0.02049209       0.05676109      -0.00000000
Se       9.13213886       2.29214684       9.60459547      -0.20863973       0.34215217      -0.09941606      -0.00000000
Se       8.85753125       6.25420526       9.57504301      -0.16338917       0.08371988      -0.07770362      -0.00000000
Se       9.01272399      10.88340370       9.25429660       0.59897207      -0.72210161       0.15234533      -0.00000000
Se       2.93046725       6.21895019       1.67136799      -0.17507007       0.62161257      -0.45353279      -0.00000000
Se       2.69142358      10.55093217       1.43964804       0.31110734       0.70861602       0.25726923      -0.00000000
Se       6.90873262       2.17276194       1.52378902       0.00839947       0.28885696       0.09494729      -0.00000000
Se       6.97745671       6.54749401       1.59566561      -0.45123482      -0.46291041       0.29075292      -0.00000000
Se       7.29669970      10.45100548       1.49700579      -0.30854715      -0.48355780       0.09624290      -0.00000000
Se      11.35811423       6.21286032       1.46543672      -0.21549290       0.31380204       0.28703137      -0.00000000
Se       9.19157049       8.26487030       3.98618135       0.15298879      -0.20042573      -0.03153237      -0.00000000
72
Lattice="12.438138270375903 -2.3821545793e-06 9.839502591e-07 -2.396082883e-06 12.510863340509838 -2.814907178e-07 1.1271248951e-06 -3.205760544e-07 11.068394277372473" Properties=species:S:1:pos:R:3:forces:R:3:magmoms:R:1 energy=-300.65359271 stress="0.0012740770795798646 -0.004364408941698621 0.0026566197164172227 -0.004364408941698621 -0.0060977567536354355 0.0004535917642070739 0.0026566197164172227 0.0004535917642070739 -0.008394140093796082" dipole="_JSON [[0.0, 0.0, 0.0]]" magmom=0.0016761 free_energy=-300.65359271 pbc="T T T"
Ge       1.00166089       0.14185150       1.44149224       0.25598110       0.25516033       0.42964360      -0.00000000
Ge       3.35616715      10.70830436       4.11062758      -0.16089663      -0.01780202       0.17640078       0.00000000
Ge       7.00163149       3.04567719       4.06311513       0.12743056      -0.88637544      -0.16385207       0.00000000
Ge       7.50524208       6.73367016       4.26586718      -0.21935741      -0.36469715      -0.21275650       0.00000000
Ge       7.14925886      11.01479148       4.21450722      -0.08808863      -0.52643427       0.14291045       0.00000000
Ge      11.62567307       2.50229100       4.19067522      -0.14799981      -0.32898819      -0.08348021      -0.00000000
Ge      11.40277199       6.66601539       3.97337725      -0.04687410       0.58330784       0.31354195       0.00000000
Ge      11.33554204      11.00619307       4.12644754      -0.28339208      -0.49204622      -0.02874027      -0.00000000
Ge       0.62079749       1.74041836       7.13961450      -0.01010005      -0.23682033      -0.82398790      -0.00000000
Ge       0.94876569       6.13432553       6.90219245      -0.17028652      -0.30772644       0.20520069       0.00000000
Ge       1.07054050      10.66677251       7.12301022      -0.25228142      -0.32828431      -0.04326774      -0.00000000
Ge       5.26899529       2.27158949       7.00415047      -0.19554407      -0.82556042       0.41420643       0.00000000
Ge       4.86979291       5.91360735       6.70101471      -0.11839694      -0.24472724       0.34225109       0.00000000
Ge       5.00096440      10.25335584       6.94845609       0.43694885       0.21678064       0.08543429       0.00000000
Ge       9.21015304       1.95380269       6.95404539       0.15109145      -0.21510214       0.20980735      -0.00000000
Ge       9.44861233       6.54344444       6.98812056       0.15680434      -0.53806611      -0.28713576       0.00000000
Ge       2.85079787       6.87312331       4.26747568      -0.23272319       0.22537295      -0.19945389       0.00000000
Ge       3.14000641       2.40344244       3.97884185      -0.26543322       0.02526887      -0.18380004       0.00000000
Ge       8.86003025      10.12992194       7.02066253       0.38674115       0.08857638      -0.40688464      -0.00000000
Ge      11.49343292       8.14830563       9.62170431      -0.18654460       0.65966117      -0.03943805       0.00000000
Ge      10.93190438      12.17055990       9.73795501       0.37525293       0.06159704       0.32600598      -0.00000000
Ge       0.77444043       4.63860029       1.26005389       0.09650238      -0.04222145      -0.36293105       0.00000000
Ge       0.90835118       8.86821709       1.33320344      -0.13092415       0.25446054       0.78887376       0.00000000
Ge       5.07625829       0.44128065       1.42222175       0.16572362       0.01794194      -0.06032278       0.00000000
Ge       4.90859442       4.73261646       1.10677315       0.04203493       0.37095050       0.67458042       0.00000000
Ge       9.09390684       0.53902905       1.54676162       0.00780845      -0.20667875       0.23457293      -0.00000000
Ge       9.26786436       4.43317925       1.49075437       0.22038333      -0.03751046       0.23964283       0.00000000
Ge       5.20203474       8.55842479       1.39421644       0.21358975      -0.05291242      -0.19193001       0.00000000
Ge       3.02528746       3.91735422       9.74836367      -0.00992805      -0.39455995      -0.22671626       0.00000000
Ge       2.83849110       8.29067559       9.35882978       0.33899218       0.20577689       0.51598396       0.00000000
Ge       3.24947487      12.40636947       9.55297017      -0.02500420       0.47336620       0.53521865       0.00000000
Ge       7.23482436       4.31580032       9.48883201       0.34176233      -0.37897063       0.01642109       0.00000000
Ge       6.76951075       7.89314178       9.62852065       0.49651743       0.16517799       0.82595252       0.00000000
Ge       7.00038785      12.27698014       9.72619966       0.89209137       0.79524364       0.05253984      -0.00000000
Ge      11.44331569       3.78390808       9.67714884      -0.49761326       0.64587740      -0.20479225       0.00000000
Ge       9.19590896       8.77688175       1.34923732      -0.27343768       0.13284702       0.64346762       0.00000000
Se      10.98416003      -0.07791979       7.25228061       0.29688240       0.50575098      -0.55651741      -0.00000000
Se       2.78407276       4.23257819       7.17281016       0.18721034       0.07617630      -0.14371218      -0.00000000
Se       2.94143667       8.76689854       6.89468975      -0.16349361      -0.38731104       0.09713729      -0.00000000
Se       7.18480009       0.38876368       7.21060129      -0.33057995      -0.17342183      -0.11013394      -0.00000000
Se       6.92075968       4.11862810       6.92144304       0.09280949       0.87202658       0.21672098      -0.00000000
Se       6.89988340       8.40677293       7.24193882      -0.22663855       0.03623347      -0.92766901      -0.00000000
Se      11.30882613       4.55366638       7.05832885       0.12774001      -0.00783096       0.29921267      -0.00000000
Se       9.16015178      -0.02200268       4.15298498      -0.08640946       0.77806680      -0.56726843      -0.00000000
Se       0.75754332       0.23746976       4.08688448      -0.00491458       0.26658676      -0.49357459      -0.00000000
Se       1.03543498       4.15754240       3.67810836      -0.15857066      -0.07255287       0.78426925      -0.00000000
Se       0.76221601       8.74358522       4.00405933       0.16849089      -0.96200890      -0.52096812      -0.00000000
Se       5.10583732       0.18345325       3.95817311      -0.09010744      -0.12933523       0.03739564      -0.00000000
Se       4.81904808       4.34385154       3.71850876       0.17153715       0.25958734      -0.13413381      -0.00000000
Se       4.86649839       8.45794726       3.87241986      -0.18590926       0.22863895       0.33894372      -0.00000000
Se       2.79270328       0.03245064       7.12595459      -0.03517953       0.37531158      -0.32571951      -0.00000000
Se      11.10632464       8.47305675       7.09943874      -0.15894305       0.09577690       0.20830784      -0.00000000
Se      11.02273162      10.53741885       1.55876981       0.57380650       0.10568342      -0.03825187      -0.00000000
Se       2.97799193       2.02789054       1.43630902      -0.12546168      -0.05516936       0.24909261      -0.00000000
Se      10.98745194       2.26602221       1.66812192       0.05075910       0.29841004       0.11098084      -0.00000000
Se       9.10903281       4.55887861       4.05978052      -0.25632216       0.05071496      -0.33998756      -0.00000000
Se       0.65947548       1.94616497       9.52461511       0.61076994       0.11402004       0.80289176      -0.00000000
Se       1.01284002       6.56393244       9.48528189      -0.02300492      -0.50974559      -0.36744117      -0.00000000
Se       0.69199728      10.36551850       9.67752410      -0.20780599       0.27292186      -0.18654654      -0.00000000
Se       5.03609608       2.19430317       9.64639628      -0.62339214       0.05800167      -0.68367296      -0.00000000
Se       4.76207787       6.33453224       9.32906977      -0.08690701      -0.24866936      -0.23652958      -0.00000000
Se       5.16082761      10.69958982       9.53609691      -0.83419412      -0.83721530      -0.41323688      -0.00000000
Se       9.24655562       2.41707064       9.51162886      -0.22498329       0.06643765      -0.14320779      -0.00000000
Se       8.93224399       6.30163389       9.42579879      -0.21992636       0.17889438       0.35547001      -0.00000000
Se       8.98754778      10.55028489       9.46798411      -0.33728740      -0.39798468       0.60494753      -0.00000000
Se       2.68989377       6.29757287       1.73266911       0.40543406       0.46803598      -0.38611031      -0.00000000
Se       2.78315129      10.73264726       1.65460036      -0.04019973      -0.25152025      -0.46244473      -0.00000000
Se       7.06826863       2.18935886       1.50805290      -0.14535220       0.47520285       0.36823699      -0.00000000
Se       6.90504643       6.49185636       1.55745953      -0.19800675      -0.20020618       0.10879547      -0.00000000
Se       7.01820807      10.38296714       1.71055590       0.36976350       0.06952737      -0.22804193      -0.00000000
Se      11.19275446       6.31219711       1.49141054       0.02527592       0.06897924      -0.15007990      -0.00000000
Se       9.27177086       8.49087408       4.13455156       0.29228042      -0.23989696      -0.82032116      -0.00000000
72
Lattice="12.436839691282055 -2.3819058752e-06 9.838475318e-07 -2.3964732423e-06 12.512901555320312 -2.815365771e-07 1.1274873431e-06 -3.206791416e-07 11.071953525494536" Properties=species:S:1:pos:R:3:forces:R:3:magmoms:R:1 energy=-300.81632255 stress="0.0017608297570784277 0.0028134792640709095 0.00020225457405451117 0.0028134792640709095 -0.002413343622546012 -0.0008808434611256063 0.00020225457405451117 -0.0008808434611256063 -0.012168529796836742" dipole="_JSON [[0.0, 0.0, 0.0]]" magmom=0.0016466 free_energy=-300.81632255 pbc="T T T"
Ge       1.05535546       0.12112175       1.60450978      -0.04451053       0.16842457      -0.08916968       0.00000000
Ge       3.30487583      10.90492936       4.06327424      -0.15902325      -0.31422457      -0.06220638       0.00000000
Ge       7.03361036       2.80887167       4.08470896      -0.11772403       0.00822348       0.12891718       0.00000000
Ge       7.20036952       6.64439063       4.09736226       0.30224037      -0.09996886       0.61756064       0.00000000
Ge       7.05351944      10.79418780       4.17369438       0.29055238       0.25797776      -0.24579819       0.00000000
Ge      11.45451766       2.34188468       4.14258271       0.27713298       0.01513328      -0.01892304       0.00000000
Ge      11.49822705       6.77029736       3.94868197      -0.66108996      -0.64874647       0.03980831       0.00000000
Ge      11.25651232      10.84026958       3.95985592      -0.21476498       0.31309037      -0.08190945       0.00000000
Ge       0.83249824       1.61796484       7.07319945      -0.00918464       0.39126110       0.29954666       0.00000000
Ge       0.91995195       6.10097729       7.10380056       0.21360002      -0.14628610      -0.58971664       0.00000000
Ge       0.92358381      10.37848640       7.10400377       0.37207446       0.03781764      -0.17176613       0.00000000