 running  128 mpi-ranks, with    1 threads/rank, on    2 nodes
 distrk:  each k-point on   64 cores,    2 groups
 distr:  one band on    8 cores,    8 groups
 vasp.6.4.2 20Jul23 (build Oct 12 2023 10:31:02) complex                         
 POSCAR found type information on POSCAR GeSe
 POSCAR found :  2 types and      72 ions
 Reading from existing POTCAR
 -----------------------------------------------------------------------------
|                                                                             |
|           W    W    AA    RRRRR   N    N  II  N    N   GGGG   !!!           |
|           W    W   A  A   R    R  NN   N  II  NN   N  G    G  !!!           |
|           W    W  A    A  R    R  N N  N  II  N N  N  G       !!!           |
|           W WW W  AAAAAA  RRRRR   N  N N  II  N  N N  G  GGG   !            |
|           WW  WW  A    A  R   R   N   NN  II  N   NN  G    G                |
|           W    W  A    A  R    R  N    N  II  N    N   GGGG   !!!           |
|                                                                             |
|     You use a magnetic or noncollinear calculation, but did not specify     |
|     the initial magnetic moment with the MAGMOM tag. Note that a            |
|     default of 1 will be used for all atoms. This ferromagnetic setup       |
|     may break the symmetry of the crystal, in particular it may rule        |
|     out finding an antiferromagnetic solution. Thence, we recommend         |
|     setting the initial magnetic moment manually or verifying carefully     |
|     that this magnetic setup is desired.                                    |
|                                                                             |
 -----------------------------------------------------------------------------

 scaLAPACK will be used
 Reading from existing POTCAR
 -----------------------------------------------------------------------------
|                                                                             |
|               ----> ADVICE to this user running VASP <----                  |
|                                                                             |
|     You have a (more or less) 'large supercell' and for larger cells it     |
|     might be more efficient to use real-space projection operators.         |
|     Therefore, try LREAL= Auto in the INCAR file.                           |
|     Mind: For very accurate calculation, you might also keep the            |
|     reciprocal projection scheme (i.e. LREAL=.FALSE.).                      |
|                                                                             |
 -----------------------------------------------------------------------------

 LDA part: xc-table for Pade appr. of Perdew
 -----------------------------------------------------------------------------
|                                                                             |
|           W    W    AA    RRRRR   N    N  II  N    N   GGGG   !!!           |
|           W    W   A  A   R    R  NN   N  II  NN   N  G    G  !!!           |
|           W    W  A    A  R    R  N N  N  II  N N  N  G       !!!           |
|           W WW W  AAAAAA  RRRRR   N  N N  II  N  N N  G  GGG   !            |
|           WW  WW  A    A  R   R   N   NN  II  N   NN  G    G                |
|           W    W  A    A  R    R  N    N  II  N    N   GGGG   !!!           |
|                                                                             |
|     The number of bands has been changed from the values supplied in        |
|     the INCAR file. This is a result of running the parallel version.       |
|     The orbitals not found in the WAVECAR file will be initialized with     |
|     random numbers, which is usually adequate. For correlated               |
|     calculations, however, you should redo the groundstate calculation.     |
|     I found NBANDS = 220. Now, NBANDS = 224.                                |
|                                                                             |
 -----------------------------------------------------------------------------

 POSCAR, INCAR and KPOINTS ok, starting setup
 FFT: planning ... GRIDC
 FFT: planning ... GRID_SOFT
 FFT: planning ... GRID
 WAVECAR not read
 WARNING: random wavefunctions but no delay for mixing, default for NELMDL
 entering main loop
       N       E                     dE             d eps       ncg     rms          rms(c)
DAV:   1     0.180700522872E+04    0.18070E+04   -0.14179E+05  7168   0.135E+03
DAV:   2    -0.652173321718E+02   -0.18722E+04   -0.17968E+04  8480   0.205E+02
DAV:   3    -0.281698432148E+03   -0.21648E+03   -0.21053E+03  8608   0.690E+01
DAV:   4    -0.289492870257E+03   -0.77944E+01   -0.77056E+01  8672   0.130E+01
DAV:   5    -0.289792122333E+03   -0.29925E+00   -0.29842E+00  9104   0.214E+00    0.291E+01
DAV:   6    -0.289285188806E+03    0.50693E+00   -0.27113E+01  7992   0.763E+00    0.173E+01
DAV:   7    -0.296618009816E+03   -0.73328E+01   -0.86032E+00  8048   0.443E+00    0.907E+00
DAV:   8    -0.299848463437E+03   -0.32305E+01   -0.17244E+00  8120   0.224E+00    0.330E+00
DAV:   9    -0.300230562409E+03   -0.38210E+00   -0.43129E-01  9096   0.101E+00    0.147E+00
DAV:  10    -0.300335131637E+03   -0.10457E+00   -0.97916E-02  8112   0.471E-01    0.724E-01
DAV:  11    -0.300365662855E+03   -0.30531E-01   -0.35779E-02  9048   0.277E-01    0.283E-01
DAV:  12    -0.300368775186E+03   -0.31123E-02   -0.42582E-03  8424   0.116E-01    0.108E-01
DAV:  13    -0.300368895582E+03   -0.12040E-03   -0.64929E-04  9864   0.391E-02    0.438E-02
DAV:  14    -0.300368911501E+03   -0.15918E-04   -0.83940E-05  8272   0.182E-02    0.166E-02
DAV:  15    -0.300368914344E+03   -0.28436E-05   -0.15437E-05  8696   0.803E-03    0.755E-03
DAV:  16    -0.300368914884E+03   -0.53973E-06   -0.14737E-06  4832   0.270E-03
   1 F= -.30036891E+03 E0= -.30036891E+03  d E =-.466754E-13  mag=     0.0004
