 running  160 mpi-ranks, with    1 threads/rank, on   10 nodes
 distrk:  each k-point on   80 cores,    2 groups
 distr:  one band on    5 cores,   16 groups
 vasp.6.4.2 20Jul23 (build Oct 12 2023 10:31:02) complex                         
 POSCAR found type information on POSCAR GeSe
 POSCAR found :  2 types and       8 ions
 Reading from existing POTCAR
 scaLAPACK will be used
 Reading from existing POTCAR
 LDA part: xc-table for Pade appr. of Perdew
 POSCAR, INCAR and KPOINTS ok, starting setup
 FFT: planning ... GRIDC
 FFT: planning ... GRID_SOFT
 FFT: planning ... GRID
 WAVECAR not read
 entering main loop
       N       E                     dE             d eps       ncg     rms          rms(c)
DAV:   1     0.131524443163E+03    0.13152E+03   -0.13015E+04  2560   0.779E+02
DAV:   2    -0.250271036699E+02   -0.15655E+03   -0.15238E+03  3744   0.142E+02
DAV:   3    -0.332452291950E+02   -0.82181E+01   -0.82031E+01  3088   0.373E+01
DAV:   4    -0.333004583052E+02   -0.55229E-01   -0.55220E-01  3584   0.349E+00
DAV:   5    -0.333008052288E+02   -0.34692E-03   -0.34692E-03  3088   0.265E-01    0.679E+00
DAV:   6    -0.330163587121E+02    0.28445E+00   -0.48512E-01  3360   0.241E+00    0.430E+00
DAV:   7    -0.329867438864E+02    0.29615E-01   -0.20671E-01  2992   0.168E+00    0.956E-01
DAV:   8    -0.329858366031E+02    0.90728E-03   -0.16751E-02  3344   0.511E-01    0.185E-01
DAV:   9    -0.329861469710E+02   -0.31037E-03   -0.28505E-03  3136   0.225E-01    0.597E-02
DAV:  10    -0.329862219475E+02   -0.74977E-04   -0.19863E-04  3520   0.547E-02    0.238E-02
DAV:  11    -0.329862571649E+02   -0.35217E-04   -0.42677E-05  3024   0.299E-02    0.991E-03
DAV:  12    -0.329862586206E+02   -0.14557E-05   -0.45932E-06  3680   0.993E-03    0.300E-03
DAV:  13    -0.329862588561E+02   -0.23545E-06   -0.69054E-07  2080   0.382E-03
   1 F= -.32986259E+02 E0= -.32986259E+02  d E =-.286717E-11
