 vasp.6.4.2 20Jul23 (build Oct 12 2023 10:31:02) complex                         
 executed on              LinuxNV date 2025.05.28  11:47:05
 running  128 mpi-ranks, with    1 threads/rank, on    2 nodes
 distrk:  each k-point on   64 cores,    2 groups
 distr:  one band on NCORE=   4 cores,   16 groups


--------------------------------------------------------------------------------------------------------


 INCAR:
   ENCUT = 360.000000
   SIGMA = 0.050000
   EDIFF = 1.00e-06
   ALGO = Normal
   GGA = PE
   PREC = Normal
   SYSTEM = ./
   ICHARG = 2
   ISMEAR = 0
   ISPIN = 1
   ISTART = 0
   ISYM = 0
   KPAR = 2
   LMAXMIX = 4
   NELM = 100
   NPAR = 16
   LASPH = .TRUE.
   LCHARG = .FALSE.
   LWAVE = .FALSE.

 POTCAR:    PAW_PBE Ge 05Jan2001                  
 POTCAR:    PAW_PBE Se 06Sep2000                  
 POTCAR:    PAW_PBE Ge 05Jan2001                  
   VRHFIN =Ge: s2p2                                                                                 
   LEXCH  = PE                                                                                      
   EATOM  =   104.9960 eV,    7.7170 Ry                                                             
                                                                                                    
   TITEL  = PAW_PBE Ge 05Jan2001                                                                    
   LULTRA =        F    use ultrasoft PP ?                                                          
   IUNSCR =        1    unscreen: 0-lin 1-nonlin 2-no                                               
   RPACOR =    2.170    partial core radius                                                         
   POMASS =   72.610; ZVAL   =    4.000    mass and valenz                                          
   RCORE  =    2.300    outmost cutoff radius                                                       
   RWIGS  =    2.300; RWIGS  =    1.217    wigner-seitz radius (au A)                               
   ENMAX  =  173.807; ENMIN  =  130.355 eV                                                          
   ICORE  =        3    local potential                                                             
   LCOR   =        T    correct aug charges                                                         
   LPAW   =        T    paw PP                                                                      
   EAUG   =  385.843                                                                                
   DEXC   =    0.000                                                                                
   RMAX   =    2.342    core radius for proj-oper                                                   
   RAUG   =    1.300    factor for augmentation sphere                                              
   RDEP   =    2.318    radius for radial grids                                                     
   RDEPT  =    2.103    core radius for aug-charge                                                  
                                                                                                    
   Atomic configuration                                                                             
   10 entries                                                                                       
     n  l   j            E        occ.                                                              
     1  0  0.50    -10959.8463   2.0000                                                             
     2  0  0.50     -1371.6056   2.0000                                                             
     2  1  1.50     -1198.4791   6.0000                                                             
     3  0  0.50      -168.4733   2.0000                                                             
     3  1  1.50      -115.6019   6.0000                                                             
     3  2  2.50       -29.3106  10.0000                                                             
     4  0  0.50       -11.7309   2.0000                                                             
     4  1  0.50        -3.8952   2.0000                                                             
     4  2  1.50        -4.0817   0.0000                                                             
     4  3  2.50        -4.0817   0.0000                                                             
   Description                                                                                      
     l       E           TYP  RCUT    TYP  RCUT                                                     
     0    -11.7309493     23  2.300                                                                 
     0     -7.4578696     23  2.300                                                                 
     1     -3.8952261     23  2.300                                                                 
     1      6.1178114     23  2.300                                                                 
     2     -4.0817478     23  2.300                                                                 
     3     -1.3605826      7  2.300                                                                 
  local pseudopotential read in
  partial core-charges read in
  partial kinetic energy density read in
  atomic valenz-charges read in
  non local Contribution for L=            0  read in
    real space projection operators read in
  non local Contribution for L=            0  read in
    real space projection operators read in
  non local Contribution for L=            1  read in
    real space projection operators read in
  non local Contribution for L=            1  read in
    real space projection operators read in
  non local Contribution for L=            2  read in
    real space projection operators read in
    PAW grid and wavefunctions read in
 
   number of l-projection  operators is LMAX  =            5
   number of lm-projection operators is LMMAX =           13
 
 POTCAR:    PAW_PBE Se 06Sep2000                  
   VRHFIN =Se: s2p4                                                                                 
   LEXCH  = PE                                                                                      
   EATOM  =   257.1286 eV,   18.8984 Ry                                                             
                                                                                                    
   TITEL  = PAW_PBE Se 06Sep2000                                                                    
   LULTRA =        F    use ultrasoft PP ?                                                          
   IUNSCR =        1    unscreen: 0-lin 1-nonlin 2-no                                               
   RPACOR =    1.900    partial core radius                                                         
   POMASS =   78.960; ZVAL   =    6.000    mass and valenz                                          
   RCORE  =    2.100    outmost cutoff radius                                                       
   RWIGS  =    2.200; RWIGS  =    1.164    wigner-seitz radius (au A)                               
   ENMAX  =  211.555; ENMIN  =  158.666 eV                                                          
   ICORE  =        3    local potential                                                             
   LCOR   =        T    correct aug charges                                                         
   LPAW   =        T    paw PP                                                                      
   EAUG   =  446.842                                                                                
   DEXC   =    0.000                                                                                
   RMAX   =    2.147    core radius for proj-oper                                                   
   RAUG   =    1.300    factor for augmentation sphere                                              
   RDEP   =    2.177    radius for radial grids                                                     
   RDEPT  =    1.928    core radius for aug-charge                                                  
                                                                                                    
   Atomic configuration                                                                             
   10 entries                                                                                       
     n  l   j            E        occ.                                                              
     1  0  0.50    -12503.4787   2.0000                                                             
     2  0  0.50     -1606.9547   2.0000                                                             
     2  1  1.50     -1413.3140   6.0000                                                             
     3  0  0.50      -213.4885   2.0000                                                             
     3  1  1.50      -152.9538   6.0000                                                             
     3  2  2.50       -53.1221  10.0000                                                             
     4  0  0.50       -17.2865   2.0000                                                             
     4  1  0.50        -6.5110   4.0000                                                             
     4  2  2.50        -6.8029   0.0000                                                             
     4  3  2.50        -6.8029   0.0000                                                             
   Description                                                                                      
     l       E           TYP  RCUT    TYP  RCUT                                                     
     0    -17.2865377     23  2.100                                                                 
     0    -15.3094411     23  2.100                                                                 
     1     -6.5110275     23  2.100                                                                 
     1     -0.0695192     23  2.100                                                                 
     2     -6.8029130     23  2.100                                                                 
     3     -1.3605826      7  2.100                                                                 
  local pseudopotential read in
  partial core-charges read in
  partial kinetic energy density read in
  atomic valenz-charges read in
  non local Contribution for L=            0  read in
    real space projection operators read in
  non local Contribution for L=            0  read in
    real space projection operators read in
  non local Contribution for L=            1  read in
    real space projection operators read in
  non local Contribution for L=            1  read in
    real space projection operators read in
  non local Contribution for L=            2  read in
    real space projection operators read in
    PAW grid and wavefunctions read in
 
   number of l-projection  operators is LMAX  =            5
   number of lm-projection operators is LMMAX =           13
 
  PAW_PBE Ge 05Jan2001                  :
 energy of atom  1       EATOM= -104.9960
 kinetic energy error for atom=    0.0005 (will be added to EATOM!!)
  PAW_PBE Se 06Sep2000                  :
 energy of atom  2       EATOM= -257.1286
 kinetic energy error for atom=    0.0030 (will be added to EATOM!!)
 
 
 POSCAR: Ge Se
  positions in cartesian coordinates
  No initial velocities read in
 exchange correlation table for  LEXCH =        8
   RHO(1)=    0.500       N(1)  =     2000
   RHO(2)=  100.500       N(2)  =     4000
 


--------------------------------------------------------------------------------------------------------


 ion  position               nearest neighbor table
   1  0.106  0.250  0.124-   6 2.58   6 2.58   5 2.60
   2  0.606  0.750  0.376-   5 2.58   5 2.58   6 2.60
   3  0.894  0.750  0.876-   8 2.58   8 2.58   7 2.60
   4  0.394  0.250  0.624-   7 2.58   7 2.58   8 2.60
   5  0.006  0.250  0.354-   2 2.58   2 2.58   1 2.60
   6  0.506  0.750  0.146-   1 2.58   1 2.58   2 2.60
   7  0.994  0.750  0.646-   4 2.58   4 2.58   3 2.60
   8  0.494  0.250  0.854-   3 2.58   3 2.58   4 2.60
 

IMPORTANT INFORMATION: All symmetrisations will be switched off!
NOSYMM: (Re-)initialisation of all symmetry stuff for point group C_1.


----------------------------------------------------------------------------------------

                                     Primitive cell                                     

  volume of cell :     182.0639

  direct lattice vectors                    reciprocal lattice vectors
     4.300000000  0.000000000  0.000000000     0.232558140  0.000000000  0.000000000
     0.000000000  3.800000000  0.000000000     0.000000000  0.263157895  0.000000000
     0.000000000  0.000000000 11.142221000     0.000000000  0.000000000  0.089748713

  length of vectors
     4.300000000  3.800000000 11.142221000     0.232558140  0.263157895  0.089748713

  position of ions in fractional coordinates (direct lattice)
     0.105621689  0.250000000  0.123699580
     0.605621689  0.750000000  0.376300420
     0.894378311  0.750000000  0.876300420
     0.394378311  0.250000000  0.623699580
     0.006218462  0.250000000  0.354153270
     0.506218462  0.750000000  0.145846730
     0.993781538  0.750000000  0.645846730
     0.493781538  0.250000000  0.854153270

  ion indices of the primitive-cell ions
   primitive index   ion index
                 1           1
                 2           2
                 3           3
                 4           4
                 5           5
                 6           6
                 7           7
                 8           8

----------------------------------------------------------------------------------------

 
 
 KPOINTS: KPOINTS created by Atomic Simulation Env

Automatic generation of k-mesh.
 Grid dimensions read from file:
 generate k-points for:    6    6    2

 Generating k-lattice:

  Cartesian coordinates                     Fractional coordinates (reciprocal lattice)
     0.038759690  0.000000000  0.000000000     0.166666667  0.000000000  0.000000000
     0.000000000  0.043859649  0.000000000     0.000000000  0.166666667  0.000000000
     0.000000000  0.000000000  0.044874357     0.000000000  0.000000000  0.500000000

  Length of vectors
     0.038759690  0.043859649  0.044874357

  Shift w.r.t. Gamma in fractional coordinates (k-lattice)
     0.000000000  0.000000000  0.000000000

 
 Subroutine IBZKPT returns following result:
 ===========================================
 
 Found     40 irreducible k-points:
 
 Following reciprocal coordinates:
            Coordinates               Weight
  0.000000  0.000000  0.000000      1.000000
  0.166667  0.000000  0.000000      2.000000
  0.333333  0.000000  0.000000      2.000000
  0.500000  0.000000  0.000000      1.000000
  0.000000  0.166667  0.000000      2.000000
  0.166667  0.166667  0.000000      2.000000
 -0.166667  0.166667  0.000000      2.000000
  0.333333  0.166667  0.000000      2.000000
 -0.333333  0.166667  0.000000      2.000000
  0.500000  0.166667  0.000000      2.000000
  0.000000  0.333333  0.000000      2.000000
  0.166667  0.333333  0.000000      2.000000
 -0.166667  0.333333  0.000000      2.000000
  0.333333  0.333333  0.000000      2.000000
 -0.333333  0.333333  0.000000      2.000000
  0.500000  0.333333  0.000000      2.000000
  0.000000  0.500000  0.000000      1.000000
  0.166667  0.500000  0.000000      2.000000
  0.333333  0.500000  0.000000      2.000000
  0.500000  0.500000  0.000000      1.000000
  0.000000  0.000000  0.500000      1.000000
  0.166667  0.000000  0.500000      2.000000
  0.333333  0.000000  0.500000      2.000000
  0.500000  0.000000  0.500000      1.000000
  0.000000  0.166667  0.500000      2.000000
  0.166667  0.166667  0.500000      2.000000
 -0.166667  0.166667  0.500000      2.000000
  0.333333  0.166667  0.500000      2.000000
 -0.333333  0.166667  0.500000      2.000000
  0.500000  0.166667  0.500000      2.000000
  0.000000  0.333333  0.500000      2.000000
  0.166667  0.333333  0.500000      2.000000
 -0.166667  0.333333  0.500000      2.000000
  0.333333  0.333333  0.500000      2.000000
 -0.333333  0.333333  0.500000      2.000000
  0.500000  0.333333  0.500000      2.000000
  0.000000  0.500000  0.500000      1.000000
  0.166667  0.500000  0.500000      2.000000
  0.333333  0.500000  0.500000      2.000000
  0.500000  0.500000  0.500000      1.000000
 
 Following cartesian coordinates:
            Coordinates               Weight
  0.000000  0.000000  0.000000      1.000000
  0.038760  0.000000  0.000000      2.000000
  0.077519  0.000000  0.000000      2.000000
  0.116279  0.000000  0.000000      1.000000
  0.000000  0.043860  0.000000      2.000000
  0.038760  0.043860  0.000000      2.000000
 -0.038760  0.043860  0.000000      2.000000
  0.077519  0.043860  0.000000      2.000000
 -0.077519  0.043860  0.000000      2.000000
  0.116279  0.043860  0.000000      2.000000
  0.000000  0.087719  0.000000      2.000000
  0.038760  0.087719  0.000000      2.000000
 -0.038760  0.087719  0.000000      2.000000
  0.077519  0.087719  0.000000      2.000000
 -0.077519  0.087719  0.000000      2.000000
  0.116279  0.087719  0.000000      2.000000
  0.000000  0.131579  0.000000      1.000000
  0.038760  0.131579  0.000000      2.000000
  0.077519  0.131579  0.000000      2.000000
  0.116279  0.131579  0.000000      1.000000
  0.000000  0.000000  0.044874      1.000000
  0.038760  0.000000  0.044874      2.000000
  0.077519  0.000000  0.044874      2.000000
  0.116279  0.000000  0.044874      1.000000
  0.000000  0.043860  0.044874      2.000000
  0.038760  0.043860  0.044874      2.000000
 -0.038760  0.043860  0.044874      2.000000
  0.077519  0.043860  0.044874      2.000000
 -0.077519  0.043860  0.044874      2.000000
  0.116279  0.043860  0.044874      2.000000
  0.000000  0.087719  0.044874      2.000000
  0.038760  0.087719  0.044874      2.000000
 -0.038760  0.087719  0.044874      2.000000
  0.077519  0.087719  0.044874      2.000000
 -0.077519  0.087719  0.044874      2.000000
  0.116279  0.087719  0.044874      2.000000
  0.000000  0.131579  0.044874      1.000000
  0.038760  0.131579  0.044874      2.000000
  0.077519  0.131579  0.044874      2.000000
  0.116279  0.131579  0.044874      1.000000
 


--------------------------------------------------------------------------------------------------------




 Dimension of arrays:
   k-points           NKPTS =     40   k-points in BZ     NKDIM =     40   number of bands    NBANDS=     32
   number of dos      NEDOS =    301   number of ions     NIONS =      8
   non local maximal  LDIM  =      5   non local SUM 2l+1 LMDIM =     13
   total plane-waves  NPLWV =  19440
   max r-space proj   IRMAX =      1   max aug-charges    IRDMAX=   6002
   dimension x,y,z NGX =    20 NGY =   18 NGZ =   54
   dimension x,y,z NGXF=    40 NGYF=   36 NGZF=  108
   support grid    NGXF=    40 NGYF=   36 NGZF=  108
   ions per type =               4   4
   NGX,Y,Z   is equivalent  to a cutoff of   7.73,  7.87,  8.06 a.u.
   NGXF,Y,Z  is equivalent  to a cutoff of  15.46, 15.75, 16.11 a.u.

 SYSTEM =  ./                                      
 POSCAR =  Ge Se                                   

 Startparameter for this run:
   NWRITE =      2    write-flag & timer
   PREC   = normal    normal or accurate (medium, high low for compatibility)
   ISTART =      0    job   : 0-new  1-cont  2-samecut
   ICHARG =      2    charge: 1-file 2-atom 10-const
   ISPIN  =      1    spin polarized calculation?
   LNONCOLLINEAR =      F non collinear calculations
   LSORBIT =      F    spin-orbit coupling
   INIWAV =      1    electr: 0-lowe 1-rand  2-diag
   LASPH  =      T    aspherical Exc in radial PAW
 Electronic Relaxation 1
   ENCUT  =  360.0 eV  26.46 Ry    5.14 a.u.   6.65  5.88 17.24*2*pi/ulx,y,z
   ENINI  =  360.0     initial cutoff
   ENAUG  =  446.8 eV  augmentation charge cutoff
   NELM   =    100;   NELMIN=  2; NELMDL= -5     # of ELM steps 
   EDIFF  = 0.1E-05   stopping-criterion for ELM
   LREAL  =      F    real-space projection
   NLSPLINE    = F    spline interpolate recip. space projectors
   LCOMPAT=      F    compatible to vasp.4.4
   GGA_COMPAT  = T    GGA compatible to vasp.4.4-vasp.4.6
   LMAXPAW     = -100 max onsite density
   LMAXMIX     =    4 max onsite mixed and CHGCAR
   VOSKOWN=      0    Vosko Wilk Nusair interpolation
   ROPT   =    0.00000   0.00000
 Ionic relaxation
   EDIFFG = 0.1E-04   stopping-criterion for IOM
   NSW    =      0    number of steps for IOM
   NBLOCK =      1;   KBLOCK =      1    inner block; outer block 
   IBRION =     -1    ionic relax: 0-MD 1-quasi-New 2-CG
   NFREE  =      0    steps in history (QN), initial steepest desc. (CG)
   ISIF   =      2    stress and relaxation
   IWAVPR =     10    prediction:  0-non 1-charg 2-wave 3-comb
   ISYM   =      0    0-nonsym 1-usesym 2-fastsym
   LCORR  =      T    Harris-Foulkes like correction to forces

   POTIM  = 0.5000    time-step for ionic-motion
   TEIN   =    0.0    initial temperature
   TEBEG  =    0.0;   TEEND  =   0.0 temperature during run
   SMASS  =  -3.00    Nose mass-parameter (am)
   estimated Nose-frequenzy (Omega)   =  0.10E-29 period in steps = 0.13E+47 mass=  -0.423E-27a.u.
   SCALEE = 1.0000    scale energy and forces
   NPACO  =    256;   APACO  = 10.0  distance and # of slots for P.C.
   PSTRESS=    0.0 pullay stress

  Mass of Ions in am
   POMASS =  72.61 78.96
  Ionic Valenz
   ZVAL   =   4.00  6.00
  Atomic Wigner-Seitz radii
   RWIGS  =  -1.00 -1.00
  virtual crystal weights 
   VCA    =   1.00  1.00
   NELECT =      40.0000    total number of electrons
   NUPDOWN=      -1.0000    fix difference up-down

 DOS related values:
   EMIN   =  10.00;   EMAX   =-10.00  energy-range for DOS
   EFERMI =   0.00;   METHOD = LEGACY      
   ISMEAR =     0;   SIGMA  =   0.05  broadening in eV -4-tet -1-fermi 0-gaus

 Electronic relaxation 2 (details)
   IALGO  =     38    algorithm
   LDIAG  =      T    sub-space diagonalisation (order eigenvalues)
   LSUBROT=      F    optimize rotation matrix (better conditioning)
   TURBO    =      0    0=normal 1=particle mesh
   IRESTART =      0    0=no restart 2=restart with 2 vectors
   NREBOOT  =      0    no. of reboots
   NMIN     =      0    reboot dimension
   EREF     =   0.00    reference energy to select bands
   IMIX   =      4    mixing-type and parameters
     AMIX     =   0.40;   BMIX     =  1.00
     AMIX_MAG =   1.60;   BMIX_MAG =  1.00
     AMIN     =   0.10
     WC   =   100.;   INIMIX=   1;  MIXPRE=   1;  MAXMIX= -45

 Intra band minimization:
   WEIMIN = 0.0000     energy-eigenvalue tresh-hold
   EBREAK =  0.78E-08  absolut break condition
   DEPER  =   0.30     relativ break condition  

   TIME   =   0.40     timestep for ELM

  volume/ion in A,a.u.               =      22.76       153.58
  Fermi-wavevector in a.u.,A,eV,Ry     =   0.987841  1.866748 13.276961  0.975829
  Thomas-Fermi vector in A             =   2.119324
 
 Write flags
   LWAVE        =      F    write WAVECAR
   LDOWNSAMPLE  =      F    k-point downsampling of WAVECAR
   LCHARG       =      F    write CHGCAR
   LVTOT        =      F    write LOCPOT, total local potential
   LVHAR        =      F    write LOCPOT, Hartree potential only
   LELF         =      F    write electronic localiz. function (ELF)
   LORBIT       =      0    0 simple, 1 ext, 2 COOP (PROOUT), +10 PAW based schemes


 Dipole corrections
   LMONO  =      F    monopole corrections only (constant potential shift)
   LDIPOL =      F    correct potential (dipole corrections)
   IDIPOL =      0    1-x, 2-y, 3-z, 4-all directions 
   EPSILON=  1.0000000 bulk dielectric constant

 Exchange correlation treatment:
   GGA     =    PE    GGA type
   LEXCH   =     8    internal setting for exchange type
   LIBXC   =     F    Libxc                    
   VOSKOWN =     0    Vosko Wilk Nusair interpolation
   LHFCALC =     F    Hartree Fock is set to
   LHFONE  =     F    Hartree Fock one center treatment
   AEXX    =    0.0000 exact exchange contribution

 Linear response parameters
   LEPSILON=     F    determine dielectric tensor
   LRPA    =     F    only Hartree local field effects (RPA)
   LNABLA  =     F    use nabla operator in PAW spheres
   LVEL    =     F    velocity operator in full k-point grid
   CSHIFT  =0.1000    complex shift for real part using Kramers Kronig
   OMEGAMAX=  -1.0    maximum frequency
   DEG_THRESHOLD= 0.2000000E-02 threshold for treating states as degnerate
   RTIME   =   -0.100 relaxation time in fs
  (WPLASMAI=    0.000 imaginary part of plasma frequency in eV, 0.658/RTIME)
   DFIELD  = 0.0000000 0.0000000 0.0000000 field for delta impulse in time
 
  Optional k-point grid parameters
   LKPOINTS_OPT  =     F    use optional k-point grid
   KPOINTS_OPT_MODE=     1    mode for optional k-point grid
 
 Orbital magnetization related:
   ORBITALMAG=     F  switch on orbital magnetization
   LCHIMAG   =     F  perturbation theory with respect to B field
   DQ        =  0.001000  dq finite difference perturbation B field
   LLRAUG    =     F  two centre corrections for induced B field
   LBONE     =     F  B-component reconstruction in AE one-centre
   LVGVCALC  =     T  calculate vGv susceptibility
   LVGVAPPL  =     F  apply vGv susceptibility instead of pGv for G=0

 Random number generation:
   RANDOM_GENERATOR = DEFAULT
   PCG_SEED         = not used


--------------------------------------------------------------------------------------------------------


 Static calculation
 charge density and potential will be updated during run
 non-spin polarized calculation
 Variant of blocked Davidson
 Davidson routine will perform the subspace rotation
 perform sub-space diagonalisation
    after iterative eigenvector-optimisation
 modified Broyden-mixing scheme, WC =      100.0
 initial mixing is a Kerker type mixing with AMIX =  0.4000 and BMIX =      1.0000
 Hartree-type preconditioning will be used
 using additional bands            12
 reciprocal scheme for non local part
 use partial core corrections
 calculate Harris-corrections to forces 
   (improved forces if not selfconsistent)
 use gradient corrections 
 use of overlap-Matrix (Vanderbilt PP)
 Gauss-broadening in eV      SIGMA  =   0.05


--------------------------------------------------------------------------------------------------------


  energy-cutoff  :      360.00
  volume of cell :      182.06
      direct lattice vectors                 reciprocal lattice vectors
     4.300000000  0.000000000  0.000000000     0.232558140  0.000000000  0.000000000
     0.000000000  3.800000000  0.000000000     0.000000000  0.263157895  0.000000000
     0.000000000  0.000000000 11.142221000     0.000000000  0.000000000  0.089748713

  length of vectors
     4.300000000  3.800000000 11.142221000     0.232558140  0.263157895  0.089748713


 
 k-points in units of 2pi/SCALE and weight: KPOINTS created by Atomic Simulation Env
   0.00000000  0.00000000  0.00000000       0.014
   0.03875969  0.00000000  0.00000000       0.028
   0.07751938  0.00000000  0.00000000       0.028
   0.11627907  0.00000000  0.00000000       0.014
   0.00000000  0.04385965  0.00000000       0.028
   0.03875969  0.04385965  0.00000000       0.028
  -0.03875969  0.04385965  0.00000000       0.028
   0.07751938  0.04385965  0.00000000       0.028
  -0.07751938  0.04385965  0.00000000       0.028
   0.11627907  0.04385965  0.00000000       0.028
   0.00000000  0.08771930  0.00000000       0.028
   0.03875969  0.08771930  0.00000000       0.028
  -0.03875969  0.08771930  0.00000000       0.028
   0.07751938  0.08771930  0.00000000       0.028
  -0.07751938  0.08771930  0.00000000       0.028
   0.11627907  0.08771930  0.00000000       0.028
   0.00000000  0.13157895  0.00000000       0.014
   0.03875969  0.13157895  0.00000000       0.028
   0.07751938  0.13157895  0.00000000       0.028
   0.11627907  0.13157895  0.00000000       0.014
   0.00000000  0.00000000  0.04487436       0.014
   0.03875969  0.00000000  0.04487436       0.028
   0.07751938  0.00000000  0.04487436       0.028
   0.11627907  0.00000000  0.04487436       0.014
   0.00000000  0.04385965  0.04487436       0.028
   0.03875969  0.04385965  0.04487436       0.028
  -0.03875969  0.04385965  0.04487436       0.028
   0.07751938  0.04385965  0.04487436       0.028
  -0.07751938  0.04385965  0.04487436       0.028
   0.11627907  0.04385965  0.04487436       0.028
   0.00000000  0.08771930  0.04487436       0.028
   0.03875969  0.08771930  0.04487436       0.028
  -0.03875969  0.08771930  0.04487436       0.028
   0.07751938  0.08771930  0.04487436       0.028
  -0.07751938  0.08771930  0.04487436       0.028
   0.11627907  0.08771930  0.04487436       0.028
   0.00000000  0.13157895  0.04487436       0.014
   0.03875969  0.13157895  0.04487436       0.028
   0.07751938  0.13157895  0.04487436       0.028
   0.11627907  0.13157895  0.04487436       0.014
 
 k-points in reciprocal lattice and weights: KPOINTS created by Atomic Simulation Env
   0.00000000  0.00000000  0.00000000       0.014
   0.16666667  0.00000000  0.00000000       0.028
   0.33333333  0.00000000  0.00000000       0.028
   0.50000000  0.00000000  0.00000000       0.014
   0.00000000  0.16666667  0.00000000       0.028
   0.16666667  0.16666667  0.00000000       0.028
  -0.16666667  0.16666667  0.00000000       0.028
   0.33333333  0.16666667  0.00000000       0.028
  -0.33333333  0.16666667  0.00000000       0.028
   0.50000000  0.16666667  0.00000000       0.028
   0.00000000  0.33333333  0.00000000       0.028
   0.16666667  0.33333333  0.00000000       0.028
  -0.16666667  0.33333333  0.00000000       0.028
   0.33333333  0.33333333  0.00000000       0.028
  -0.33333333  0.33333333  0.00000000       0.028
   0.50000000  0.33333333  0.00000000       0.028
   0.00000000  0.50000000  0.00000000       0.014
   0.16666667  0.50000000  0.00000000       0.028
   0.33333333  0.50000000  0.00000000       0.028
   0.50000000  0.50000000  0.00000000       0.014
   0.00000000  0.00000000  0.50000000       0.014
   0.16666667  0.00000000  0.50000000       0.028
   0.33333333  0.00000000  0.50000000       0.028
   0.50000000  0.00000000  0.50000000       0.014
   0.00000000  0.16666667  0.50000000       0.028
   0.16666667  0.16666667  0.50000000       0.028
  -0.16666667  0.16666667  0.50000000       0.028
   0.33333333  0.16666667  0.50000000       0.028
  -0.33333333  0.16666667  0.50000000       0.028
   0.50000000  0.16666667  0.50000000       0.028
   0.00000000  0.33333333  0.50000000       0.028
   0.16666667  0.33333333  0.50000000       0.028
  -0.16666667  0.33333333  0.50000000       0.028
   0.33333333  0.33333333  0.50000000       0.028
  -0.33333333  0.33333333  0.50000000       0.028
   0.50000000  0.33333333  0.50000000       0.028
   0.00000000  0.50000000  0.50000000       0.014
   0.16666667  0.50000000  0.50000000       0.028
   0.33333333  0.50000000  0.50000000       0.028
   0.50000000  0.50000000  0.50000000       0.014
 
 position of ions in fractional coordinates (direct lattice) 
   0.10562169  0.25000000  0.12369958
   0.60562169  0.75000000  0.37630042
   0.89437831  0.75000000  0.87630042
   0.39437831  0.25000000  0.62369958
   0.00621846  0.25000000  0.35415327
   0.50621846  0.75000000  0.14584673
   0.99378154  0.75000000  0.64584673
   0.49378154  0.25000000  0.85415327
 
 position of ions in cartesian coordinates  (Angst):
   0.45417326  0.95000000  1.37828806
   2.60417326  2.85000000  4.19282244
   3.84582674  2.85000000  9.76393294
   1.69582674  0.95000000  6.94939856
   0.02673939  0.95000000  3.94605400
   2.17673939  2.85000000  1.62505650
   4.27326061  2.85000000  7.19616700
   2.12326061  0.95000000  9.51716450
 


--------------------------------------------------------------------------------------------------------


 k-point   1 :   0.0000 0.0000 0.0000  plane waves:    2817
 k-point   2 :   0.1667 0.0000 0.0000  plane waves:    2817
 k-point   3 :   0.3333 0.0000 0.0000  plane waves:    2809
 k-point   4 :   0.5000 0.0000 0.0000  plane waves:    2810
 k-point   5 :   0.0000 0.1667 0.0000  plane waves:    2832
 k-point   6 :   0.1667 0.1667 0.0000  plane waves:    2811
 k-point   7 :  -0.1667 0.1667 0.0000  plane waves:    2811
 k-point   8 :   0.3333 0.1667 0.0000  plane waves:    2816
 k-point   9 :  -0.3333 0.1667 0.0000  plane waves:    2816
 k-point  10 :   0.5000 0.1667 0.0000  plane waves:    2834
 k-point  11 :   0.0000 0.3333 0.0000  plane waves:    2838
 k-point  12 :   0.1667 0.3333 0.0000  plane waves:    2843
 k-point  13 :  -0.1667 0.3333 0.0000  plane waves:    2843
 k-point  14 :   0.3333 0.3333 0.0000  plane waves:    2836
 k-point  15 :  -0.3333 0.3333 0.0000  plane waves:    2836
 k-point  16 :   0.5000 0.3333 0.0000  plane waves:    2810
 k-point  17 :   0.0000 0.5000 0.0000  plane waves:    2840
 k-point  18 :   0.1667 0.5000 0.0000  plane waves:    2846
 k-point  19 :   0.3333 0.5000 0.0000  plane waves:    2820
 k-point  20 :   0.5000 0.5000 0.0000  plane waves:    2816
 k-point  21 :   0.0000 0.0000 0.5000  plane waves:    2818
 k-point  22 :   0.1667 0.0000 0.5000  plane waves:    2818
 k-point  23 :   0.3333 0.0000 0.5000  plane waves:    2828
 k-point  24 :   0.5000 0.0000 0.5000  plane waves:    2816
 k-point  25 :   0.0000 0.1667 0.5000  plane waves:    2816
 k-point  26 :   0.1667 0.1667 0.5000  plane waves:    2818
 k-point  27 :  -0.1667 0.1667 0.5000  plane waves:    2818
 k-point  28 :   0.3333 0.1667 0.5000  plane waves:    2816
 k-point  29 :  -0.3333 0.1667 0.5000  plane waves:    2816
 k-point  30 :   0.5000 0.1667 0.5000  plane waves:    2828
 k-point  31 :   0.0000 0.3333 0.5000  plane waves:    2828
 k-point  32 :   0.1667 0.3333 0.5000  plane waves:    2832
 k-point  33 :  -0.1667 0.3333 0.5000  plane waves:    2832
 k-point  34 :   0.3333 0.3333 0.5000  plane waves:    2830
 k-point  35 :  -0.3333 0.3333 0.5000  plane waves:    2830
 k-point  36 :   0.5000 0.3333 0.5000  plane waves:    2816
 k-point  37 :   0.0000 0.5000 0.5000  plane waves:    2852
 k-point  38 :   0.1667 0.5000 0.5000  plane waves:    2864
 k-point  39 :   0.3333 0.5000 0.5000  plane waves:    2820
 k-point  40 :   0.5000 0.5000 0.5000  plane waves:    2808

 maximum and minimum number of plane-waves per node :       728      691

 maximum number of plane-waves:      2864
 maximum index in each direction: 
   IXMAX=    6   IYMAX=    5   IZMAX=   17
   IXMIN=   -7   IYMIN=   -6   IZMIN=  -17


 parallel 3D FFT for wavefunctions:
    minimum data exchange during FFTs selected (reduces bandwidth)
 parallel 3D FFT for charge:
    minimum data exchange during FFTs selected (reduces bandwidth)


 total amount of memory used by VASP MPI-rank0    37764. kBytes
=======================================================================

   base      :      30000. kBytes
   nonl-proj :       6082. kBytes
   fftplans  :        288. kBytes
   grid      :        416. kBytes
   one-center:         16. kBytes
   wavefun   :        962. kBytes
 
     INWAV:  cpu time      0.0000: real time      0.0001
 Broyden mixing: mesh for mixing (old mesh)
   NGX = 13   NGY = 11   NGZ = 35
  (NGX  = 40   NGY  = 36   NGZ  =108)
  gives a total of   5005 points

 initial charge density was supplied:
 charge density of overlapping atoms calculated
 number of electron      40.0000000 magnetization 
 keeping initial charge density in first step


--------------------------------------------------------------------------------------------------------


 Maximum index for augmentation-charges           337 (set IRDMAX)


--------------------------------------------------------------------------------------------------------


 First call to EWALD:  gamma=   0.313
 Maximum number of real-space cells 3x 4x 2
 Maximum number of reciprocal cells 2x 2x 5

    FEWALD:  cpu time      0.0008: real time      0.0008


--------------------------------------- Ionic step        1  -------------------------------------------




--------------------------------------- Iteration      1(   1)  ---------------------------------------


    POTLOK:  cpu time      0.0058: real time      0.0061
    SETDIJ:  cpu time      0.1393: real time      0.1397
     EDDAV:  cpu time      0.2586: real time      0.2614
       DOS:  cpu time      0.0011: real time      0.0012
    --------------------------------------------
      LOOP:  cpu time      0.4048: real time      0.4083

 eigenvalue-minimisations  :  2560
 total energy-change (2. order) : 0.1287853E+03  (-0.1303265E+04)
 number of electron      40.0000000 magnetization 
 augmentation part       40.0000000 magnetization 

 Free energy of the ion-electron system (eV)
  ---------------------------------------------------
  alpha Z        PSCENC =        93.06867679
  Ewald energy   TEWEN  =     -1456.94339302
  -Hartree energ DENC   =      -114.28384468
  -exchange      EXHF   =         0.00000000
  -V(xc)+E(xc)   XCENC  =       -32.66653496
  PAW double counting   =      1193.78262552    -1080.73714043
  entropy T*S    EENTRO =        -0.00430612
  eigenvalues    EBANDS =        78.08463579
  atomic energy  EATOM  =      1448.48460880
  Solvation  Ediel_sol  =         0.00000000
  ---------------------------------------------------
  free energy    TOTEN  =       128.78532768 eV

  energy without entropy =      128.78963380  energy(sigma->0) =      128.78748074


--------------------------------------------------------------------------------------------------------




--------------------------------------- Iteration      1(   2)  ---------------------------------------


     EDDAV:  cpu time      0.3238: real time      0.3266
       DOS:  cpu time      0.0007: real time      0.0007
    --------------------------------------------
      LOOP:  cpu time      0.3245: real time      0.3272

 eigenvalue-minimisations  :  3760
 total energy-change (2. order) :-0.1547208E+03  (-0.1502261E+03)
 number of electron      40.0000000 magnetization 
 augmentation part       40.0000000 magnetization 

 Free energy of the ion-electron system (eV)
  ---------------------------------------------------
  alpha Z        PSCENC =        93.06867679
  Ewald energy   TEWEN  =     -1456.94339302
  -Hartree energ DENC   =      -114.28384468
  -exchange      EXHF   =         0.00000000
  -V(xc)+E(xc)   XCENC  =       -32.66653496
  PAW double counting   =      1193.78262552    -1080.73714043
  entropy T*S    EENTRO =        -0.00000000
  eigenvalues    EBANDS =       -76.64043768
  atomic energy  EATOM  =      1448.48460880
  Solvation  Ediel_sol  =         0.00000000
  ---------------------------------------------------
  free energy    TOTEN  =       -25.93543967 eV

  energy without entropy =      -25.93543967  energy(sigma->0) =      -25.93543967


--------------------------------------------------------------------------------------------------------




--------------------------------------- Iteration      1(   3)  ---------------------------------------


     EDDAV:  cpu time      0.2914: real time      0.2945
       DOS:  cpu time      0.0005: real time      0.0005
    --------------------------------------------
      LOOP:  cpu time      0.2919: real time      0.2951

 eigenvalue-minimisations  :  3200
 total energy-change (2. order) :-0.8061740E+01  (-0.8047441E+01)
 number of electron      40.0000000 magnetization 
 augmentation part       40.0000000 magnetization 

 Free energy of the ion-electron system (eV)
  ---------------------------------------------------
  alpha Z        PSCENC =        93.06867679
  Ewald energy   TEWEN  =     -1456.94339302
  -Hartree energ DENC   =      -114.28384468
  -exchange      EXHF   =         0.00000000
  -V(xc)+E(xc)   XCENC  =       -32.66653496
  PAW double counting   =      1193.78262552    -1080.73714043
  entropy T*S    EENTRO =        -0.00000000
  eigenvalues    EBANDS =       -84.70217746
  atomic energy  EATOM  =      1448.48460880
  Solvation  Ediel_sol  =         0.00000000
  ---------------------------------------------------
  free energy    TOTEN  =       -33.99717944 eV

  energy without entropy =      -33.99717944  energy(sigma->0) =      -33.99717944


--------------------------------------------------------------------------------------------------------




--------------------------------------- Iteration      1(   4)  ---------------------------------------


     EDDAV:  cpu time      0.2887: real time      0.2914
       DOS:  cpu time      0.0005: real time      0.0005
    --------------------------------------------
      LOOP:  cpu time      0.2892: real time      0.2919

 eigenvalue-minimisations  :  3200
 total energy-change (2. order) :-0.4985302E-01  (-0.4984483E-01)
 number of electron      40.0000000 magnetization 
 augmentation part       40.0000000 magnetization 

 Free energy of the ion-electron system (eV)
  ---------------------------------------------------
  alpha Z        PSCENC =        93.06867679
  Ewald energy   TEWEN  =     -1456.94339302
  -Hartree energ DENC   =      -114.28384468
  -exchange      EXHF   =         0.00000000
  -V(xc)+E(xc)   XCENC  =       -32.66653496
  PAW double counting   =      1193.78262552    -1080.73714043
  entropy T*S    EENTRO =        -0.00000000
  eigenvalues    EBANDS =       -84.75203047
  atomic energy  EATOM  =      1448.48460880
  Solvation  Ediel_sol  =         0.00000000
  ---------------------------------------------------
  free energy    TOTEN  =       -34.04703246 eV

  energy without entropy =      -34.04703246  energy(sigma->0) =      -34.04703246


--------------------------------------------------------------------------------------------------------




--------------------------------------- Iteration      1(   5)  ---------------------------------------


     EDDAV:  cpu time      0.2835: real time      0.2865
       DOS:  cpu time      0.0006: real time      0.0006
    CHARGE:  cpu time      0.0038: real time      0.0038
    MIXING:  cpu time      0.0007: real time      0.0007
    --------------------------------------------
      LOOP:  cpu time      0.2885: real time      0.2915

 eigenvalue-minimisations  :  3184
 total energy-change (2. order) :-0.2866122E-03  (-0.2865944E-03)
 number of electron      39.9999972 magnetization 
 augmentation part       -7.4043552 magnetization 

 Broyden mixing:
  rms(total) = 0.67063E+00    rms(broyden)= 0.67062E+00
  rms(prec ) = 0.74263E+00
  weight for this iteration     100.00

 Free energy of the ion-electron system (eV)
  ---------------------------------------------------
  alpha Z        PSCENC =        93.06867679
  Ewald energy   TEWEN  =     -1456.94339302
  -Hartree energ DENC   =      -114.28384468
  -exchange      EXHF   =         0.00000000
  -V(xc)+E(xc)   XCENC  =       -32.66653496
  PAW double counting   =      1193.78262552    -1080.73714043
  entropy T*S    EENTRO =        -0.00000000
  eigenvalues    EBANDS =       -84.75231708
  atomic energy  EATOM  =      1448.48460880
  Solvation  Ediel_sol  =         0.00000000
  ---------------------------------------------------
  free energy    TOTEN  =       -34.04731907 eV

  energy without entropy =      -34.04731907  energy(sigma->0) =      -34.04731907


--------------------------------------------------------------------------------------------------------




--------------------------------------- Iteration      1(   6)  ---------------------------------------


    POTLOK:  cpu time      0.0052: real time      0.0054
    SETDIJ:  cpu time      0.1378: real time      0.1384
     EDDAV:  cpu time      0.2768: real time      0.2795
       DOS:  cpu time      0.0008: real time      0.0008
    CHARGE:  cpu time      0.0035: real time      0.0036
    MIXING:  cpu time      0.0005: real time      0.0005
    --------------------------------------------
      LOOP:  cpu time      0.4247: real time      0.4282

 eigenvalue-minimisations  :  3120
 total energy-change (2. order) : 0.3405149E+00  (-0.6566241E-01)
 number of electron      39.9999973 magnetization 
 augmentation part       -7.3539967 magnetization 

 Broyden mixing:
  rms(total) = 0.42162E+00    rms(broyden)= 0.42162E+00
  rms(prec ) = 0.44106E+00
  weight for this iteration     100.00

 eigenvalues of (default mixing * dielectric matrix)
  average eigenvalue GAMMA=   2.2955
  2.2955

 Free energy of the ion-electron system (eV)
  ---------------------------------------------------
  alpha Z        PSCENC =        93.06867679
  Ewald energy   TEWEN  =     -1456.94339302
  -Hartree energ DENC   =      -119.54650747
  -exchange      EXHF   =         0.00000000
  -V(xc)+E(xc)   XCENC  =       -32.09483749
  PAW double counting   =      1473.02503083    -1360.31646504
  entropy T*S    EENTRO =        -0.00000009
  eigenvalues    EBANDS =       -79.38391747
  atomic energy  EATOM  =      1448.48460880
  Solvation  Ediel_sol  =         0.00000000
  ---------------------------------------------------
  free energy    TOTEN  =       -33.70680417 eV

  energy without entropy =      -33.70680408  energy(sigma->0) =      -33.70680412


--------------------------------------------------------------------------------------------------------




--------------------------------------- Iteration      1(   7)  ---------------------------------------


    POTLOK:  cpu time      0.0056: real time      0.0059
    SETDIJ:  cpu time      0.1378: real time      0.1384
     EDDAV:  cpu time      0.2935: real time      0.2961
       DOS:  cpu time      0.0009: real time      0.0009
    CHARGE:  cpu time      0.0035: real time      0.0036
    MIXING:  cpu time      0.0005: real time      0.0005
    --------------------------------------------
      LOOP:  cpu time      0.4419: real time      0.4453

 eigenvalue-minimisations  :  3248
 total energy-change (2. order) : 0.1163272E-01  (-0.2314264E-01)
 number of electron      39.9999973 magnetization 
 augmentation part       -7.3394172 magnetization 

 Broyden mixing:
  rms(total) = 0.11659E+00    rms(broyden)= 0.11659E+00
  rms(prec ) = 0.12486E+00
  weight for this iteration     100.00

 eigenvalues of (default mixing * dielectric matrix)
  average eigenvalue GAMMA=   1.8163
  1.2328  2.3997

 Free energy of the ion-electron system (eV)
  ---------------------------------------------------
  alpha Z        PSCENC =        93.06867679
  Ewald energy   TEWEN  =     -1456.94339302
  -Hartree energ DENC   =      -122.19831343
  -exchange      EXHF   =         0.00000000
  -V(xc)+E(xc)   XCENC  =       -31.60036260
  PAW double counting   =      1846.94858728    -1734.52804453
  entropy T*S    EENTRO =        -0.00000581
  eigenvalues    EBANDS =       -76.92692492
  atomic energy  EATOM  =      1448.48460880
  Solvation  Ediel_sol  =         0.00000000
  ---------------------------------------------------
  free energy    TOTEN  =       -33.69517144 eV

  energy without entropy =      -33.69516563  energy(sigma->0) =      -33.69516854


--------------------------------------------------------------------------------------------------------




--------------------------------------- Iteration      1(   8)  ---------------------------------------


    POTLOK:  cpu time      0.0051: real time      0.0053
    SETDIJ:  cpu time      0.1376: real time      0.1381
     EDDAV:  cpu time      0.2564: real time      0.2590
       DOS:  cpu time      0.0009: real time      0.0009
    CHARGE:  cpu time      0.0034: real time      0.0034
    MIXING:  cpu time      0.0005: real time      0.0005
    --------------------------------------------
      LOOP:  cpu time      0.4038: real time      0.4072

 eigenvalue-minimisations  :  2848
 total energy-change (2. order) : 0.2807211E-02  (-0.2565772E-02)
 number of electron      39.9999973 magnetization 
 augmentation part       -7.3487595 magnetization 

 Broyden mixing:
  rms(total) = 0.17491E-01    rms(broyden)= 0.17491E-01
  rms(prec ) = 0.20690E-01
  weight for this iteration     100.00

 eigenvalues of (default mixing * dielectric matrix)
  average eigenvalue GAMMA=   1.7381
  2.5375  1.3384  1.3384

 Free energy of the ion-electron system (eV)
  ---------------------------------------------------
  alpha Z        PSCENC =        93.06867679
  Ewald energy   TEWEN  =     -1456.94339302
  -Hartree energ DENC   =      -122.00601290
  -exchange      EXHF   =         0.00000000
  -V(xc)+E(xc)   XCENC  =       -31.50064253
  PAW double counting   =      1971.83977376    -1859.47389677
  entropy T*S    EENTRO =        -0.00000083
  eigenvalues    EBANDS =       -77.16147754
  atomic energy  EATOM  =      1448.48460880
  Solvation  Ediel_sol  =         0.00000000
  ---------------------------------------------------
  free energy    TOTEN  =       -33.69236423 eV

  energy without entropy =      -33.69236341  energy(sigma->0) =      -33.69236382


--------------------------------------------------------------------------------------------------------




--------------------------------------- Iteration      1(   9)  ---------------------------------------


    POTLOK:  cpu time      0.0050: real time      0.0052
    SETDIJ:  cpu time      0.1370: real time      0.1376
     EDDAV:  cpu time      0.2855: real time      0.2880
       DOS:  cpu time      0.0009: real time      0.0009
    CHARGE:  cpu time      0.0036: real time      0.0036
    MIXING:  cpu time      0.0005: real time      0.0005
    --------------------------------------------
      LOOP:  cpu time      0.4324: real time      0.4357

 eigenvalue-minimisations  :  3136
 total energy-change (2. order) :-0.2479790E-03  (-0.3312530E-03)
 number of electron      39.9999973 magnetization 
 augmentation part       -7.3472196 magnetization 

 Broyden mixing:
  rms(total) = 0.61394E-02    rms(broyden)= 0.61394E-02
  rms(prec ) = 0.66769E-02
  weight for this iteration     100.00

 eigenvalues of (default mixing * dielectric matrix)
  average eigenvalue GAMMA=   1.6866
  2.1900  2.1900  1.1832  1.1832

 Free energy of the ion-electron system (eV)
  ---------------------------------------------------
  alpha Z        PSCENC =        93.06867679
  Ewald energy   TEWEN  =     -1456.94339302
  -Hartree energ DENC   =      -122.31688675
  -exchange      EXHF   =         0.00000000
  -V(xc)+E(xc)   XCENC  =       -31.46340451
  PAW double counting   =      1986.84675318    -1874.49201200
  entropy T*S    EENTRO =        -0.00000119
  eigenvalues    EBANDS =       -76.87695350
  atomic energy  EATOM  =      1448.48460880
  Solvation  Ediel_sol  =         0.00000000
  ---------------------------------------------------
  free energy    TOTEN  =       -33.69261221 eV

  energy without entropy =      -33.69261102  energy(sigma->0) =      -33.69261161


--------------------------------------------------------------------------------------------------------




--------------------------------------- Iteration      1(  10)  ---------------------------------------


    POTLOK:  cpu time      0.0049: real time      0.0051
    SETDIJ:  cpu time      0.1371: real time      0.1380
     EDDAV:  cpu time      0.2767: real time      0.2781
       DOS:  cpu time      0.0006: real time      0.0006
    CHARGE:  cpu time      0.0029: real time      0.0029
    MIXING:  cpu time      0.0003: real time      0.0003
    --------------------------------------------
      LOOP:  cpu time      0.4225: real time      0.4250

 eigenvalue-minimisations  :  3136
 total energy-change (2. order) :-0.3893566E-04  (-0.1687310E-04)
 number of electron      39.9999973 magnetization 
 augmentation part       -7.3472117 magnetization 

 Broyden mixing:
  rms(total) = 0.23626E-02    rms(broyden)= 0.23626E-02
  rms(prec ) = 0.28050E-02
  weight for this iteration     100.00

 eigenvalues of (default mixing * dielectric matrix)
  average eigenvalue GAMMA=   1.7571
  2.7308  2.3602  1.1699  1.2623  1.2623

 Free energy of the ion-electron system (eV)
  ---------------------------------------------------
  alpha Z        PSCENC =        93.06867679
  Ewald energy   TEWEN  =     -1456.94339302
  -Hartree energ DENC   =      -122.32445064
  -exchange      EXHF   =         0.00000000
  -V(xc)+E(xc)   XCENC  =       -31.46346928
  PAW double counting   =      1980.02636882    -1867.66657270
  entropy T*S    EENTRO =        -0.00000110
  eigenvalues    EBANDS =       -76.87441883
  atomic energy  EATOM  =      1448.48460880
  Solvation  Ediel_sol  =         0.00000000
  ---------------------------------------------------
  free energy    TOTEN  =       -33.69265115 eV

  energy without entropy =      -33.69265005  energy(sigma->0) =      -33.69265060


--------------------------------------------------------------------------------------------------------




--------------------------------------- Iteration      1(  11)  ---------------------------------------


    POTLOK:  cpu time      0.0034: real time      0.0036
    SETDIJ:  cpu time      0.1372: real time      0.1377
     EDDAV:  cpu time      0.1890: real time      0.1898
       DOS:  cpu time      0.0005: real time      0.0005
    CHARGE:  cpu time      0.0029: real time      0.0029
    MIXING:  cpu time      0.0003: real time      0.0003
    --------------------------------------------
      LOOP:  cpu time      0.3334: real time      0.3348

 eigenvalue-minimisations  :  3088
 total energy-change (2. order) :-0.2388933E-04  (-0.3373634E-05)
 number of electron      39.9999973 magnetization 
 augmentation part       -7.3474142 magnetization 

 Broyden mixing:
  rms(total) = 0.11069E-02    rms(broyden)= 0.11069E-02
  rms(prec ) = 0.12213E-02
  weight for this iteration     100.00

 eigenvalues of (default mixing * dielectric matrix)
  average eigenvalue GAMMA=   1.6987
  2.6015  2.1622  2.1622  1.1986  1.1986  0.8691

 Free energy of the ion-electron system (eV)
  ---------------------------------------------------
  alpha Z        PSCENC =        93.06867679
  Ewald energy   TEWEN  =     -1456.94339302
  -Hartree energ DENC   =      -122.34564602
  -exchange      EXHF   =         0.00000000
  -V(xc)+E(xc)   XCENC  =       -31.45752737
  PAW double counting   =      1981.39441632    -1869.03479637
  entropy T*S    EENTRO =        -0.00000104
  eigenvalues    EBANDS =       -76.85901312
  atomic energy  EATOM  =      1448.48460880
  Solvation  Ediel_sol  =         0.00000000
  ---------------------------------------------------
  free energy    TOTEN  =       -33.69267504 eV

  energy without entropy =      -33.69267399  energy(sigma->0) =      -33.69267451


--------------------------------------------------------------------------------------------------------




--------------------------------------- Iteration      1(  12)  ---------------------------------------


    POTLOK:  cpu time      0.0034: real time      0.0036
    SETDIJ:  cpu time      0.1170: real time      0.1173
     EDDAV:  cpu time      0.1877: real time      0.1886
       DOS:  cpu time      0.0005: real time      0.0005
    --------------------------------------------
      LOOP:  cpu time      0.3087: real time      0.3099

 eigenvalue-minimisations  :  3088
 total energy-change (2. order) : 0.2841377E-06  (-0.3913994E-06)
 number of electron      39.9999973 magnetization 
 augmentation part       -7.3474142 magnetization 

 Free energy of the ion-electron system (eV)
  ---------------------------------------------------
  alpha Z        PSCENC =        93.06867679
  Ewald energy   TEWEN  =     -1456.94339302
  -Hartree energ DENC   =      -122.35692940
  -exchange      EXHF   =         0.00000000
  -V(xc)+E(xc)   XCENC  =       -31.45674309
  PAW double counting   =      1980.81846092    -1868.45871768
  entropy T*S    EENTRO =        -0.00000107
  eigenvalues    EBANDS =       -76.84863700
  atomic energy  EATOM  =      1448.48460880
  Solvation  Ediel_sol  =         0.00000000
  ---------------------------------------------------
  free energy    TOTEN  =       -33.69267475 eV

  energy without entropy =      -33.69267368  energy(sigma->0) =      -33.69267422


--------------------------------------------------------------------------------------------------------




 average (electrostatic) potential at core
  the test charge radii are     1.1631  1.0808
  (the norm of the test charge is              1.0000)
       1 -32.9445       2 -32.9445       3 -32.9445       4 -32.9445       5 -54.4849
       6 -54.4849       7 -54.4849       8 -54.4849
 
 
 
 E-fermi :   4.0816     XC(G=0):  -9.5924     alpha+bet : -9.2717

 Fermi energy:         4.0816229061

 k-point     1 :       0.0000    0.0000    0.0000
  band No.  band energies     occupation 
      1     -10.7219      2.00000
      2     -10.3698      2.00000
      3      -9.3876      2.00000
      4      -8.8229      2.00000
      5      -4.0223      2.00000
      6      -3.4343      2.00000
      7      -1.9851      2.00000
      8      -1.5575      2.00000
      9      -1.5430      2.00000
     10       0.0154      2.00000
     11       0.1518      2.00000
     12       0.2896      2.00000
     13       0.5289      2.00000
     14       0.9392      2.00000
     15       1.7641      2.00000
     16       1.7913      2.00000
     17       2.3681      2.00000
     18       2.3857      2.00000
     19       3.0422      2.00000
     20       3.7412      2.00000
     21       4.2114      0.00024
     22       6.5860      0.00000
     23       6.7182      0.00000
     24       6.8466      0.00000
     25       7.1012      0.00000
     26       7.2357      0.00000
     27       7.7162      0.00000
     28       8.3671      0.00000
     29       9.0192      0.00000
     30       9.2555      0.00000
     31       9.3487      0.00000
     32       9.9389      0.00000

 k-point     2 :       0.1667    0.0000    0.0000
  band No.  band energies     occupation 
      1     -10.5816      2.00000
      2     -10.2366      2.00000
      3      -9.3627      2.00000
      4      -8.8493      2.00000
      5      -4.5244      2.00000
      6      -3.7095      2.00000
      7      -2.8110      2.00000
      8      -2.1634      2.00000
      9      -1.4381      2.00000
     10       0.3572      2.00000
     11       0.7000      2.00000
     12       0.8530      2.00000
     13       0.9694      2.00000
     14       1.0986      2.00000
     15       1.8541      2.00000
     16       2.2715      2.00000
     17       2.4228      2.00000
     18       2.6782      2.00000
     19       2.9744      2.00000
     20       3.6137      2.00000
     21       4.2349      0.00001
     22       6.1512      0.00000
     23       6.7048      0.00000
     24       6.7867      0.00000
     25       6.9872      0.00000
     26       6.9890      0.00000
     27       7.6735      0.00000
     28       7.7939      0.00000
     29       8.2168      0.00000
     30       8.6887      0.00000
     31       9.2185      0.00000
     32       9.2278      0.00000

 k-point     3 :       0.3333    0.0000    0.0000
  band No.  band energies     occupation 
      1     -10.1990      2.00000
      2      -9.8722      2.00000
      3      -9.4051      2.00000
      4      -9.0119      2.00000
      5      -5.1102      2.00000
      6      -4.1193      2.00000
      7      -4.0913      2.00000
      8      -3.1542      2.00000
      9      -0.9308      2.00000
     10       0.7500      2.00000
     11       1.1685      2.00000
     12       1.5284      2.00000
     13       1.6694      2.00000
     14       1.8563      2.00000
     15       1.9776      2.00000
     16       2.3877      2.00000
     17       2.4157      2.00000
     18       3.1843      2.00000
     19       3.4513      2.00000
     20       3.9467      1.99986
     21       4.8559      0.00000
     22       5.0055      0.00000
     23       5.5440      0.00000
     24       6.0487      0.00000
     25       6.3603      0.00000
     26       6.8736      0.00000
     27       7.0037      0.00000
     28       7.0474      0.00000
     29       7.3231      0.00000
     30       7.9452      0.00000
     31       8.6268      0.00000
     32       9.7001      0.00000

 k-point     4 :       0.5000    0.0000    0.0000
  band No.  band energies     occupation 
      1      -9.7181      2.00000
      2      -9.7181      2.00000
      3      -9.3966      2.00000
      4      -9.3966      2.00000
      5      -4.9907      2.00000
      6      -4.9907      2.00000
      7      -3.9183      2.00000
      8      -3.9183      2.00000
      9      -0.0817      2.00000
     10      -0.0817      2.00000
     11       1.7384      2.00000
     12       1.7384      2.00000
     13       2.0504      2.00000
     14       2.0504      2.00000
     15       2.2996      2.00000
     16       2.2996      2.00000
     17       3.0673      2.00000
     18       3.0673      2.00000
     19       3.6245      2.00000
     20       3.6245      2.00000
     21       5.2531      0.00000
     22       5.2531      0.00000
     23       5.7629      0.00000
     24       5.7629      0.00000
     25       5.9792      0.00000
     26       5.9792      0.00000
     27       6.1712      0.00000
     28       6.1712      0.00000
     29       7.0399      0.00000
     30       7.0399      0.00000
     31       9.5104      0.00000
     32       9.5104      0.00000

 k-point     5 :       0.0000    0.1667    0.0000
  band No.  band energies     occupation 
      1     -10.5158      2.00000
      2     -10.1793      2.00000
      3      -9.2524      2.00000
      4      -8.7548      2.00000
      5      -4.3145      2.00000
      6      -3.8216      2.00000
      7      -2.3544      2.00000
      8      -2.2711      2.00000
      9      -1.4474      2.00000
     10       0.1008      2.00000
     11       0.2541      2.00000
     12       0.4865      2.00000
     13       0.6794      2.00000
     14       0.6815      2.00000
     15       1.7865      2.00000
     16       1.9074      2.00000
     17       2.1039      2.00000
     18       2.8273      2.00000
     19       3.0927      2.00000
     20       3.4511      2.00000
     21       4.4020      0.00000
     22       6.1404      0.00000
     23       6.6680      0.00000
     24       6.9827      0.00000
     25       7.1754      0.00000
     26       7.4304      0.00000
     27       7.6793      0.00000
     28       7.8125      0.00000
     29       8.0060      0.00000
     30       8.7394      0.00000
     31       9.0801      0.00000
     32       9.1535      0.00000

 k-point     6 :       0.1667    0.1667    0.0000
  band No.  band energies     occupation 
      1     -10.3811      2.00000
      2     -10.0526      2.00000
      3      -9.2314      2.00000
      4      -8.7781      2.00000
      5      -4.6035      2.00000
      6      -3.8865      2.00000
      7      -2.9370      2.00000
      8      -2.5393      2.00000
      9      -1.2732      2.00000
     10      -0.4661      2.00000
     11      -0.2397      2.00000
     12       0.6753      2.00000
     13       1.1050      2.00000
     14       1.5535      2.00000
     15       1.7502      2.00000
     16       1.7761      2.00000
     17       2.7842      2.00000
     18       2.8036      2.00000
     19       3.2316      2.00000
     20       3.4669      2.00000
     21       4.4776      0.00000
     22       5.6783      0.00000
     23       6.0550      0.00000
     24       6.2047      0.00000
     25       7.0253      0.00000
     26       7.4877      0.00000
     27       7.8260      0.00000
     28       7.8597      0.00000
     29       8.4491      0.00000
     30       8.6470      0.00000
     31       8.6492      0.00000
     32       9.4935      0.00000

 k-point     7 :      -0.1667    0.1667    0.0000
  band No.  band energies     occupation 
      1     -10.3811      2.00000
      2     -10.0526      2.00000
      3      -9.2314      2.00000
      4      -8.7781      2.00000
      5      -4.6035      2.00000
      6      -3.8865      2.00000
      7      -2.9370      2.00000
      8      -2.5393      2.00000
      9      -1.2732      2.00000
     10      -0.4661      2.00000
     11      -0.2397      2.00000
     12       0.6753      2.00000
     13       1.1050      2.00000
     14       1.5535      2.00000
     15       1.7502      2.00000
     16       1.7761      2.00000
     17       2.7842      2.00000
     18       2.8036      2.00000
     19       3.2316      2.00000
     20       3.4669      2.00000
     21       4.4776      0.00000
     22       5.6783      0.00000
     23       6.0550      0.00000
     24       6.2047      0.00000
     25       7.0253      0.00000
     26       7.4877      0.00000
     27       7.8260      0.00000
     28       7.8597      0.00000
     29       8.4491      0.00000
     30       8.6470      0.00000
     31       8.6492      0.00000
     32       9.4935      0.00000

 k-point     8 :       0.3333    0.1667    0.0000
  band No.  band energies     occupation 
      1     -10.0166      2.00000
      2      -9.7088      2.00000
      3      -9.2751      2.00000
      4      -8.9219      2.00000
      5      -4.9836      2.00000
      6      -4.0173      2.00000
      7      -4.0156      2.00000
      8      -3.1949      2.00000
      9      -0.7456      2.00000
     10      -0.4451      2.00000
     11      -0.1968      2.00000
     12       0.7502      2.00000
     13       0.8704      2.00000
     14       1.3748      2.00000
     15       1.7636      2.00000
     16       2.4388      2.00000
     17       2.7432      2.00000
     18       3.0398      2.00000
     19       3.0997      2.00000
     20       3.3637      2.00000
     21       4.8027      0.00000
     22       5.5492      0.00000
     23       6.2028      0.00000
     24       6.3659      0.00000
     25       6.4166      0.00000
     26       6.8935      0.00000
     27       7.5616      0.00000
     28       8.3526      0.00000
     29       8.4809      0.00000
     30       8.5642      0.00000
     31       8.9933      0.00000
     32       9.4490      0.00000

 k-point     9 :      -0.3333    0.1667    0.0000
  band No.  band energies     occupation 
      1     -10.0166      2.00000
      2      -9.7088      2.00000
      3      -9.2751      2.00000
      4      -8.9219      2.00000
      5      -4.9836      2.00000
      6      -4.0173      2.00000
      7      -4.0156      2.00000
      8      -3.1949      2.00000
      9      -0.7456      2.00000
     10      -0.4451      2.00000
     11      -0.1968      2.00000
     12       0.7502      2.00000
     13       0.8704      2.00000
     14       1.3748      2.00000
     15       1.7636      2.00000
     16       2.4388      2.00000
     17       2.7432      2.00000
     18       3.0398      2.00000
     19       3.0997      2.00000
     20       3.3637      2.00000
     21       4.8027      0.00000
     22       5.5492      0.00000
     23       6.2028      0.00000
     24       6.3659      0.00000
     25       6.4166      0.00000
     26       6.8935      0.00000
     27       7.5616      0.00000
     28       8.3526      0.00000
     29       8.4809      0.00000
     30       8.5642      0.00000
     31       8.9933      0.00000
     32       9.4490      0.00000

 k-point    10 :       0.5000    0.1667    0.0000
  band No.  band energies     occupation 
      1      -9.5657      2.00000
      2      -9.5657      2.00000
      3      -9.2687      2.00000
      4      -9.2687      2.00000
      5      -4.8183      2.00000
      6      -4.8183      2.00000
      7      -3.8116      2.00000
      8      -3.8116      2.00000
      9      -0.1260      2.00000
     10      -0.1260      2.00000
     11       0.2467      2.00000
     12       0.2467      2.00000
     13       0.6909      2.00000
     14       0.6909      2.00000
     15       2.0824      2.00000
     16       2.0824      2.00000
     17       2.8146      2.00000
     18       2.8146      2.00000
     19       3.3056      2.00000
     20       3.3056      2.00000
     21       5.1792      0.00000
     22       5.1792      0.00000
     23       6.3527      0.00000
     24       6.3527      0.00000
     25       7.0814      0.00000
     26       7.0814      0.00000
     27       7.7881      0.00000
     28       7.7881      0.00000
     29       8.3199      0.00000
     30       8.3199      0.00000
     31       9.2189      0.00000
     32       9.2189      0.00000

 k-point    11 :       0.0000    0.3333    0.0000
  band No.  band energies     occupation 
      1      -9.9454      2.00000
      2      -9.6721      2.00000
      3      -9.0040      2.00000
      4      -8.7514      2.00000
      5      -4.9088      2.00000
      6      -4.4513      2.00000
      7      -3.8224      2.00000
      8      -3.3127      2.00000
      9      -0.8110      2.00000
     10       0.3689      2.00000
     11       0.7043      2.00000
     12       0.9898      2.00000
     13       0.9992      2.00000
     14       1.0099      2.00000
     15       1.8353      2.00000
     16       2.0587      2.00000
     17       2.3488      2.00000
     18       2.6798      2.00000
     19       2.9918      2.00000
     20       3.2459      2.00000
     21       4.6336      0.00000
     22       4.8683      0.00000
     23       5.3842      0.00000
     24       5.8403      0.00000
     25       5.9199      0.00000
     26       6.3358      0.00000
     27       6.4254      0.00000
     28       7.2677      0.00000
     29       7.5424      0.00000
     30       7.8239      0.00000
     31       8.0308      0.00000
     32       9.0975      0.00000

 k-point    12 :       0.1667    0.3333    0.0000
  band No.  band energies     occupation 
      1      -9.8317      2.00000
      2      -9.5693      2.00000
      3      -8.9856      2.00000
      4      -8.7493      2.00000
      5      -4.8582      2.00000
      6      -4.3235      2.00000
      7      -3.7929      2.00000
      8      -3.4107      2.00000
      9      -0.7331      2.00000
     10      -0.6722      2.00000
     11      -0.4073      2.00000
     12       0.3913      2.00000
     13       1.0602      2.00000
     14       1.5375      2.00000
     15       1.5602      2.00000
     16       2.0302      2.00000
     17       2.0991      2.00000
     18       2.6125      2.00000
     19       2.7880      2.00000
     20       2.9921      2.00000
     21       4.6252      0.00000
     22       5.3310      0.00000
     23       5.7192      0.00000
     24       5.8645      0.00000
     25       6.2343      0.00000
     26       7.0868      0.00000
     27       7.5160      0.00000
     28       7.9238      0.00000
     29       8.0307      0.00000
     30       8.2216      0.00000
     31       8.8250      0.00000
     32       9.3144      0.00000

 k-point    13 :      -0.1667    0.3333    0.0000
  band No.  band energies     occupation 
      1      -9.8317      2.00000
      2      -9.5693      2.00000
      3      -8.9856      2.00000
      4      -8.7493      2.00000
      5      -4.8582      2.00000
      6      -4.3235      2.00000
      7      -3.7929      2.00000
      8      -3.4107      2.00000
      9      -0.7331      2.00000
     10      -0.6722      2.00000
     11      -0.4073      2.00000
     12       0.3913      2.00000
     13       1.0602      2.00000
     14       1.5375      2.00000
     15       1.5602      2.00000
     16       2.0302      2.00000
     17       2.0991      2.00000
     18       2.6125      2.00000
     19       2.7880      2.00000
     20       2.9921      2.00000
     21       4.6252      0.00000
     22       5.3310      0.00000
     23       5.7192      0.00000
     24       5.8645      0.00000
     25       6.2343      0.00000
     26       7.0868      0.00000
     27       7.5160      0.00000
     28       7.9238      0.00000
     29       8.0307      0.00000
     30       8.2216      0.00000
     31       8.8250      0.00000
     32       9.3144      0.00000

 k-point    14 :       0.3333    0.3333    0.0000
  band No.  band energies     occupation 
      1      -9.5355      2.00000
      2      -9.3029      2.00000
      3      -9.0053      2.00000
      4      -8.8002      2.00000
      5      -4.7212      2.00000
      6      -4.0219      2.00000
      7      -3.9653      2.00000
      8      -3.5887      2.00000
      9      -1.4394      2.00000
     10      -1.0716      2.00000
     11      -0.5654      2.00000
     12      -0.2438      2.00000
     13       0.0944      2.00000
     14       0.7240      2.00000
     15       1.0814      2.00000
     16       1.3755      2.00000
     17       1.8774      2.00000
     18       2.1441      2.00000
     19       2.4584      2.00000
     20       2.8382      2.00000
     21       4.8057      0.00000
     22       6.7532      0.00000
     23       6.8245      0.00000
     24       7.1721      0.00000
     25       7.3472      0.00000
     26       7.8152      0.00000
     27       8.0760      0.00000
     28       8.6857      0.00000
     29       8.9486      0.00000
     30       9.1251      0.00000
     31       9.3224      0.00000
     32       9.9943      0.00000

 k-point    15 :      -0.3333    0.3333    0.0000
  band No.  band energies     occupation 
      1      -9.5355      2.00000
      2      -9.3029      2.00000
      3      -9.0053      2.00000
      4      -8.8002      2.00000
      5      -4.7212      2.00000
      6      -4.0219      2.00000
      7      -3.9653      2.00000
      8      -3.5887      2.00000
      9      -1.4394      2.00000
     10      -1.0716      2.00000
     11      -0.5654      2.00000
     12      -0.2438      2.00000
     13       0.0944      2.00000
     14       0.7240      2.00000
     15       1.0814      2.00000
     16       1.3755      2.00000
     17       1.8774      2.00000
     18       2.1441      2.00000
     19       2.4584      2.00000
     20       2.8382      2.00000
     21       4.8057      0.00000
     22       6.7532      0.00000
     23       6.8245      0.00000
     24       7.1721      0.00000
     25       7.3472      0.00000
     26       7.8152      0.00000
     27       8.0760      0.00000
     28       8.6857      0.00000
     29       8.9486      0.00000
     30       9.1251      0.00000
     31       9.3224      0.00000
     32       9.9943      0.00000

 k-point    16 :       0.5000    0.3333    0.0000
  band No.  band energies     occupation 
      1      -9.1982      2.00000
      2      -9.1982      2.00000
      3      -8.9966      2.00000
      4      -8.9966      2.00000
      5      -4.4257      2.00000
      6      -4.4257      2.00000
      7      -3.7425      2.00000
      8      -3.7425      2.00000
      9      -1.2858      2.00000
     10      -1.2858      2.00000
     11      -0.8041      2.00000
     12      -0.8041      2.00000
     13       0.2328      2.00000
     14       0.2328      2.00000
     15       1.0467      2.00000
     16       1.0467      2.00000
     17       1.5238      2.00000
     18       1.5238      2.00000
     19       2.5680      2.00000
     20       2.5680      2.00000
     21       5.7911      0.00000
     22       5.7911      0.00000
     23       7.8496      0.00000
     24       7.8496      0.00000
     25       8.5058      0.00000
     26       8.5058      0.00000
     27       8.7172      0.00000
     28       8.7172      0.00000
     29       9.0805      0.00000
     30       9.0805      0.00000
     31      10.1326      0.00000
     32      10.1328      0.00000

 k-point    17 :       0.0000    0.5000    0.0000
  band No.  band energies     occupation 
      1      -9.2098      2.00000
      2      -9.2098      2.00000
      3      -9.1182      2.00000
      4      -9.1182      2.00000
      5      -4.8761      2.00000
      6      -4.8761      2.00000
      7      -4.2942      2.00000
      8      -4.2942      2.00000
      9       0.1277      2.00000
     10       0.1277      2.00000
     11       1.1951      2.00000
     12       1.1951      2.00000
     13       1.3815      2.00000
     14       1.3815      2.00000
     15       1.9549      2.00000
     16       1.9549      2.00000
     17       2.5861      2.00000
     18       2.5861      2.00000
     19       2.6441      2.00000
     20       2.6441      2.00000
     21       4.9506      0.00000
     22       4.9506      0.00000
     23       4.9829      0.00000
     24       4.9829      0.00000
     25       5.5147      0.00000
     26       5.5147      0.00000
     27       6.0809      0.00000
     28       6.0809      0.00000
     29       6.7704      0.00000
     30       6.7704      0.00000
     31       8.6446      0.00000
     32       8.6446      0.00000

 k-point    18 :       0.1667    0.5000    0.0000
  band No.  band energies     occupation 
      1      -9.1453      2.00000
      2      -9.1453      2.00000
      3      -9.0638      2.00000
      4      -9.0638      2.00000
      5      -4.7325      2.00000
      6      -4.7325      2.00000
      7      -4.2109      2.00000
      8      -4.2109      2.00000
      9      -0.1517      2.00000
     10      -0.1517      2.00000
     11       0.2057      2.00000
     12       0.2057      2.00000
     13       0.7894      2.00000
     14       0.7894      2.00000
     15       1.4854      2.00000
     16       1.4854      2.00000
     17       2.0807      2.00000
     18       2.0807      2.00000
     19       2.8710      2.00000
     20       2.8710      2.00000
     21       4.8256      0.00000
     22       4.8256      0.00000
     23       5.9750      0.00000
     24       5.9750      0.00000
     25       6.9037      0.00000
     26       6.9037      0.00000
     27       6.9602      0.00000
     28       6.9602      0.00000
     29       7.9170      0.00000
     30       7.9170      0.00000
     31       8.3306      0.00000
     32       8.3306      0.00000

 k-point    19 :       0.3333    0.5000    0.0000
  band No.  band energies     occupation 
      1      -9.0043      2.00000
      2      -9.0043      2.00000
      3      -8.9521      2.00000
      4      -8.9521      2.00000
      5      -4.3772      2.00000
      6      -4.3772      2.00000
      7      -4.0479      2.00000
      8      -4.0479      2.00000
      9      -1.1085      2.00000
     10      -1.1085      2.00000
     11      -0.6449      2.00000
     12      -0.6449      2.00000
     13       0.0318      2.00000
     14       0.0318      2.00000
     15       0.7858      2.00000
     16       0.7858      2.00000
     17       1.4123      2.00000
     18       1.4123      2.00000
     19       2.4834      2.00000
     20       2.4834      2.00000
     21       5.8986      0.00000
     22       5.8986      0.00000
     23       7.4130      0.00000
     24       7.4130      0.00000
     25       8.1240      0.00000
     26       8.1240      0.00000
     27       8.3272      0.00000
     28       8.3272      0.00000
     29       8.7195      0.00000
     30       8.7195      0.00000
     31       9.9805      0.00000
     32       9.9805      0.00000

 k-point    20 :       0.5000    0.5000    0.0000
  band No.  band energies     occupation 
      1      -8.9225      2.00000
      2      -8.9225      2.00000
      3      -8.8991      2.00000
      4      -8.8991      2.00000
      5      -4.1290      2.00000
      6      -4.1290      2.00000
      7      -3.9898      2.00000
      8      -3.9898      2.00000
      9      -1.4885      2.00000
     10      -1.4885      2.00000
     11      -1.0703      2.00000
     12      -1.0703      2.00000
     13      -0.2579      2.00000
     14      -0.2579      2.00000
     15       0.2321      2.00000
     16       0.2321      2.00000
     17       1.5517      2.00000
     18       1.5517      2.00000
[...]
     32       8.0466      0.00000

 k-point    32 :       0.1667    0.3333    0.5000
  band No.  band energies     occupation 
      1      -9.7214      2.00000
      2      -9.7214      2.00000
      3      -8.8452      2.00000
      4      -8.8452      2.00000
      5      -4.6306      2.00000
      6      -4.6306      2.00000
      7      -3.6023      2.00000
      8      -3.6023      2.00000
      9      -0.6330      2.00000
     10      -0.6330      2.00000
     11       0.2092      2.00000
     12       0.2092      2.00000
     13       0.9055      2.00000
     14       0.9055      2.00000
     15       1.8518      2.00000
     16       1.8518      2.00000
     17       2.1401      2.00000
     18       2.1401      2.00000
     19       2.9839      2.00000
     20       2.9839      2.00000
     21       5.5055      0.00000
     22       5.5055      0.00000
     23       5.8144      0.00000
     24       5.8144      0.00000
     25       6.8203      0.00000
     26       6.8203      0.00000
     27       7.2153      0.00000
     28       7.2153      0.00000
     29       7.8229      0.00000
     30       7.8229      0.00000
     31       8.9805      0.00000
     32       8.9805      0.00000

 k-point    33 :      -0.1667    0.3333    0.5000
  band No.  band energies     occupation 
      1      -9.7214      2.00000
      2      -9.7214      2.00000
      3      -8.8452      2.00000
      4      -8.8452      2.00000
      5      -4.6306      2.00000
      6      -4.6306      2.00000
      7      -3.6023      2.00000
      8      -3.6023      2.00000
      9      -0.6330      2.00000
     10      -0.6330      2.00000
     11       0.2092      2.00000
     12       0.2092      2.00000
     13       0.9055      2.00000
     14       0.9055      2.00000
     15       1.8518      2.00000
     16       1.8518      2.00000
     17       2.1401      2.00000
     18       2.1401      2.00000
     19       2.9839      2.00000
     20       2.9839      2.00000
     21       5.5055      0.00000
     22       5.5055      0.00000
     23       5.8144      0.00000
     24       5.8144      0.00000
     25       6.8203      0.00000
     26       6.8203      0.00000
     27       7.2153      0.00000
     28       7.2153      0.00000
     29       7.8229      0.00000
     30       7.8229      0.00000
     31       8.9805      0.00000
     32       8.9805      0.00000

 k-point    34 :       0.3333    0.3333    0.5000
  band No.  band energies     occupation 
      1      -9.4424      2.00000
      2      -9.4424      2.00000
      3      -8.8797      2.00000
      4      -8.8797      2.00000
      5      -4.4577      2.00000
      6      -4.4577      2.00000
      7      -3.7180      2.00000
      8      -3.7180      2.00000
      9      -1.2508      2.00000
     10      -1.2508      2.00000
     11      -0.3339      2.00000
     12      -0.3339      2.00000
     13       0.4276      2.00000
     14       0.4276      2.00000
     15       1.1636      2.00000
     16       1.1636      2.00000
     17       1.8556      2.00000
     18       1.8556      2.00000
     19       2.6962      2.00000
     20       2.6962      2.00000
     21       6.1495      0.00000
     22       6.1495      0.00000
     23       6.8263      0.00000
     24       6.8263      0.00000
     25       7.0660      0.00000
     26       7.0660      0.00000
     27       8.3784      0.00000
     28       8.3784      0.00000
     29       8.8760      0.00000
     30       8.8760      0.00000
     31      10.3789      0.00000
     32      10.3789      0.00000

 k-point    35 :      -0.3333    0.3333    0.5000
  band No.  band energies     occupation 
      1      -9.4424      2.00000
      2      -9.4424      2.00000
      3      -8.8797      2.00000
      4      -8.8797      2.00000
      5      -4.4577      2.00000
      6      -4.4577      2.00000
      7      -3.7180      2.00000
      8      -3.7180      2.00000
      9      -1.2508      2.00000
     10      -1.2508      2.00000
     11      -0.3339      2.00000
     12      -0.3339      2.00000
     13       0.4276      2.00000
     14       0.4276      2.00000
     15       1.1636      2.00000
     16       1.1636      2.00000
     17       1.8556      2.00000
     18       1.8556      2.00000
     19       2.6962      2.00000
     20       2.6962      2.00000
     21       6.1495      0.00000
     22       6.1495      0.00000
     23       6.8263      0.00000
     24       6.8263      0.00000
     25       7.0660      0.00000
     26       7.0660      0.00000
     27       8.3784      0.00000
     28       8.3784      0.00000
     29       8.8760      0.00000
     30       8.8760      0.00000
     31      10.3789      0.00000
     32      10.3789      0.00000

 k-point    36 :       0.5000    0.3333    0.5000
  band No.  band energies     occupation 
      1      -9.1945      2.00000
      2      -9.1945      2.00000
      3      -9.0012      2.00000
      4      -9.0012      2.00000
      5      -4.3767      2.00000
      6      -4.3767      2.00000
      7      -3.8116      2.00000
      8      -3.8116      2.00000
      9      -1.0793      2.00000
     10      -1.0793      2.00000
     11      -1.0592      2.00000
     12      -1.0592      2.00000
     13       0.5526      2.00000
     14       0.5526      2.00000
     15       0.6654      2.00000
     16       0.6654      2.00000
     17       1.9053      2.00000
     18       1.9053      2.00000
     19       2.2606      2.00000
     20       2.2606      2.00000
     21       6.2429      0.00000
     22       6.2429      0.00000
     23       7.0359      0.00000
     24       7.0359      0.00000
     25       8.3477      0.00000
     26       8.3477      0.00000
     27       8.4791      0.00000
     28       8.4791      0.00000
     29       9.9105      0.00000
     30       9.9105      0.00000
     31      10.1201      0.00000
     32      10.1201      0.00000

 k-point    37 :       0.0000    0.5000    0.5000
  band No.  band energies     occupation 
      1      -9.1652      2.00000
      2      -9.1652      2.00000
      3      -9.1652      2.00000
      4      -9.1652      2.00000
      5      -4.6066      2.00000
      6      -4.6066      2.00000
      7      -4.6066      2.00000
      8      -4.6065      2.00000
      9       0.7775      2.00000
     10       0.7775      2.00000
     11       0.7775      2.00000
     12       0.7775      2.00000
     13       1.5591      2.00000
     14       1.5591      2.00000
     15       1.5591      2.00000
     16       1.5591      2.00000
     17       2.4540      2.00000
     18       2.4540      2.00000
     19       2.4540      2.00000
     20       2.4540      2.00000
     21       5.2585      0.00000
     22       5.2585      0.00000
     23       5.2585      0.00000
     24       5.2585      0.00000
     25       5.7871      0.00000
     26       5.7871      0.00000
     27       5.7871      0.00000
     28       5.7871      0.00000
     29       7.4298      0.00000
     30       7.4298      0.00000
     31       7.4298      0.00000
     32       7.4298      0.00000

 k-point    38 :       0.1667    0.5000    0.5000
  band No.  band energies     occupation 
      1      -9.1055      2.00000
      2      -9.1055      2.00000
      3      -9.1055      2.00000
      4      -9.1055      2.00000
      5      -4.4892      2.00000
      6      -4.4892      2.00000
      7      -4.4892      2.00000
      8      -4.4892      2.00000
      9       0.0950      2.00000
     10       0.0950      2.00000
     11       0.0950      2.00000
     12       0.0950      2.00000
     13       1.1239      2.00000
     14       1.1239      2.00000
     15       1.1239      2.00000
     16       1.1239      2.00000
     17       2.2757      2.00000
     18       2.2757      2.00000
     19       2.2757      2.00000
     20       2.2757      2.00000
     21       5.7111      0.00000
     22       5.7111      0.00000
     23       5.7111      0.00000
     24       5.7111      0.00000
     25       7.0087      0.00000
     26       7.0087      0.00000
     27       7.0087      0.00000
     28       7.0087      0.00000
     29       7.7176      0.00000
     30       7.7176      0.00000
     31       7.7176      0.00000
     32       7.7176      0.00000

 k-point    39 :       0.3333    0.5000    0.5000
  band No.  band energies     occupation 
      1      -8.9786      2.00000
      2      -8.9786      2.00000
      3      -8.9786      2.00000
      4      -8.9786      2.00000
      5      -4.2211      2.00000
      6      -4.2211      2.00000
      7      -4.2211      2.00000
      8      -4.2211      2.00000
      9      -0.8536      2.00000
     10      -0.8536      2.00000
     11      -0.8536      2.00000
     12      -0.8536      2.00000
     13       0.2436      2.00000
     14       0.2436      2.00000
     15       0.2436      2.00000
     16       0.2436      2.00000
     17       2.1136      2.00000
     18       2.1136      2.00000
     19       2.1136      2.00000
     20       2.1136      2.00000
     21       6.4770      0.00000
     22       6.4770      0.00000
     23       6.4770      0.00000
     24       6.4770      0.00000
     25       7.9306      0.00000
     26       7.9306      0.00000
     27       7.9306      0.00000
     28       7.9306      0.00000
     29       9.7159      0.00000
     30       9.7159      0.00000
     31       9.7159      0.00000
     32       9.7159      0.00000

 k-point    40 :       0.5000    0.5000    0.5000
  band No.  band energies     occupation 
      1      -8.9109      2.00000
      2      -8.9109      2.00000
      3      -8.9109      2.00000
      4      -8.9109      2.00000
      5      -4.0661      2.00000
      6      -4.0661      2.00000
      7      -4.0661      2.00000
      8      -4.0661      2.00000
      9      -1.1722      2.00000
     10      -1.1722      2.00000
     11      -1.1722      2.00000
     12      -1.1722      2.00000
     13      -0.2873      2.00000
     14      -0.2873      2.00000
     15      -0.2873      2.00000
     16      -0.2873      2.00000
     17       2.1715      2.00000
     18       2.1715      2.00000
     19       2.1715      2.00000
     20       2.1715      2.00000
     21       6.2883      0.00000
     22       6.2883      0.00000
     23       6.2883      0.00000
     24       6.2883      0.00000
     25       9.0742      0.00000
     26       9.0742      0.00000
     27       9.0742      0.00000
     28       9.0742      0.00000
     29      10.6160      0.00000
     30      10.6160      0.00000
     31      10.6160      0.00000
     32      10.6160      0.00000


--------------------------------------------------------------------------------------------------------


 soft charge-density along one line, spin component            1
         0         1         2         3         4         5         6         7         8         9
 total charge-density along one line
 
 pseudopotential strength for first ion, spin component:            1
 14.360  17.911   0.000   0.044   0.040   0.000   0.080   0.071
 17.911  22.354   0.000   0.056   0.050   0.000   0.101   0.090
  0.000   0.000   3.200   0.000   0.000   5.445   0.000   0.000
  0.044   0.056   0.000   3.197  -0.003   0.000   5.441  -0.005
  0.040   0.050   0.000  -0.003   3.198   0.000  -0.005   5.443
  0.000   0.000   5.445   0.000   0.000   9.323   0.000   0.000
  0.080   0.101   0.000   5.441  -0.005   0.000   9.315  -0.008
  0.071   0.090   0.000  -0.005   5.443   0.000  -0.008   9.318
  0.000   0.000   0.007   0.000   0.000   0.013   0.000   0.000
  0.000   0.000   0.012   0.000   0.000   0.021   0.000   0.000
 -0.002  -0.003  -0.000   0.011  -0.004  -0.000   0.021  -0.007
 -0.006  -0.008   0.000   0.012   0.012   0.000   0.022   0.021
 -0.002  -0.002  -0.000   0.000   0.012  -0.000   0.000   0.021
 total augmentation occupancy for first ion, spin component:            1
  2.798  -0.757   0.000   0.358   0.348  -0.000  -0.066  -0.068   0.000   0.000  -0.013  -0.005  -0.009
 -0.757   0.710  -0.000  -0.466  -0.430   0.000   0.073   0.070  -0.000  -0.000   0.013   0.003   0.005
  0.000  -0.000   1.304  -0.000  -0.000  -0.229  -0.000   0.000   0.143   0.037  -0.000  -0.000   0.000
  0.358  -0.466  -0.000   1.289   0.088   0.000  -0.214  -0.005  -0.000   0.000   0.100  -0.010   0.003
  0.348  -0.430  -0.000   0.088   1.298   0.000  -0.005  -0.218   0.000  -0.000  -0.093   0.041   0.001
 -0.000   0.000  -0.229   0.000   0.000   0.045  -0.000  -0.000  -0.025  -0.006  -0.000   0.000  -0.000
 -0.066   0.073  -0.000  -0.214  -0.005  -0.000   0.040  -0.000  -0.000  -0.000  -0.018   0.001  -0.001
 -0.068   0.070   0.000  -0.005  -0.218  -0.000  -0.000   0.041  -0.000   0.000   0.016  -0.007  -0.000
  0.000  -0.000   0.143  -0.000   0.000  -0.025  -0.000  -0.000   0.036   0.004  -0.000  -0.000   0.000
  0.000  -0.000   0.037   0.000  -0.000  -0.006  -0.000   0.000   0.004   0.011   0.000  -0.000   0.000
 -0.013   0.013  -0.000   0.100  -0.093  -0.000  -0.018   0.016  -0.000   0.000   0.034  -0.007   0.002
 -0.005   0.003  -0.000  -0.010   0.041   0.000   0.001  -0.007  -0.000  -0.000  -0.007   0.012  -0.001
 -0.009   0.005   0.000   0.003   0.001  -0.000  -0.001  -0.000   0.000   0.000   0.002  -0.001   0.010


------------------------ aborting loop because EDIFF is reached ----------------------------------------


    CHARGE:  cpu time      0.0029: real time      0.0029
    FORLOC:  cpu time      0.0001: real time      0.0001
    FORNL :  cpu time      0.0201: real time      0.0202
    STRESS:  cpu time      0.1806: real time      0.1813
    FORCOR:  cpu time      0.0034: real time      0.0034
    FORHAR:  cpu time      0.0008: real time      0.0008
    MIXING:  cpu time      0.0020: real time      0.0021
    OFIELD:  cpu time      0.0000: real time      0.0000

  FORCE on cell =-STRESS in cart. coord.  units (eV):
  Direction    XX          YY          ZZ          XY          YZ          ZX
  --------------------------------------------------------------------------------------
  Alpha Z    93.06868    93.06868    93.06868
  Ewald    -481.87505  -448.84132  -526.22888    -0.00000    -0.00000     0.00000
  Hartree    42.08367    57.41294    22.86565     0.00000     0.00000     0.00000
  E(xc)    -141.75626  -141.79354  -142.07525    -0.00000     0.00000     0.00000
  Local    -136.38933  -180.05994   -77.74993    -0.00000    -0.00000     0.00000
  n-local   241.50124   241.95399   242.39710     0.00000     0.00000    -0.00000
  augment   -11.69220   -11.39038   -12.08503     0.00000    -0.00000     0.00000
  Kinetic   398.73131   394.57722   400.66662    -0.00000    -0.00000    -0.00000
  Fock        0.00000     0.00000     0.00000     0.00000     0.00000     0.00000
  -------------------------------------------------------------------------------------
  Total       3.67206     4.92766     0.85896    -0.00000    -0.00000    -0.00000
  in kB      32.31444    43.36379     7.55892    -0.00002    -0.00000    -0.00000
  external pressure =       27.75 kB  Pullay stress =        0.00 kB


 VOLUME and BASIS-vectors are now :
 -----------------------------------------------------------------------------
  energy-cutoff  :      360.00
  volume of cell :      182.06
      direct lattice vectors                 reciprocal lattice vectors
     4.300000000  0.000000000  0.000000000     0.232558140  0.000000000  0.000000000
     0.000000000  3.800000000  0.000000000     0.000000000  0.263157895  0.000000000
     0.000000000  0.000000000 11.142221000     0.000000000  0.000000000  0.089748713

  length of vectors
     4.300000000  3.800000000 11.142221000     0.232558140  0.263157895  0.089748713


 FORCES acting on ions
    electron-ion (+dipol)            ewald-force                    non-local-force                 convergence-correction
 -----------------------------------------------------------------------------------------------
   0.138E+02 0.115E-05 0.259E+02   -.162E+02 -.778E-15 -.287E+02   0.229E+01 -.397E-06 0.280E+01   0.101E-04 -.692E-06 -.109E-02
   0.138E+02 0.104E-05 -.259E+02   -.162E+02 0.413E-14 0.287E+02   0.229E+01 -.338E-06 -.280E+01   0.114E-04 -.698E-06 0.109E-02
   -.138E+02 -.130E-05 -.259E+02   0.162E+02 0.469E-14 0.287E+02   -.229E+01 0.510E-06 -.280E+01   -.983E-05 0.741E-06 0.109E-02
   -.138E+02 -.121E-05 0.259E+02   0.162E+02 -.118E-14 -.287E+02   -.229E+01 0.506E-06 0.280E+01   -.114E-04 0.693E-06 -.109E-02
   -.129E+02 -.247E-05 -.257E+02   0.143E+02 -.400E-14 0.272E+02   -.128E+01 0.711E-06 -.147E+01   0.853E-04 0.141E-05 0.203E-02
   -.129E+02 -.352E-05 0.257E+02   0.143E+02 0.107E-15 -.272E+02   -.128E+01 0.146E-05 0.147E+01   0.860E-04 0.151E-05 -.202E-02
   0.129E+02 0.186E-05 0.257E+02   -.143E+02 -.140E-15 -.272E+02   0.128E+01 -.594E-06 0.147E+01   -.853E-04 -.918E-06 -.203E-02
   0.129E+02 0.204E-05 -.257E+02   -.143E+02 -.347E-14 0.272E+02   0.128E+01 -.586E-06 -.147E+01   -.866E-04 -.876E-06 0.203E-02
 -----------------------------------------------------------------------------------------------
   0.211E-05 -.243E-05 -.398E-05   -.355E-14 -.627E-15 -.355E-14   -.129E-05 0.127E-05 0.163E-05   -.419E-06 0.117E-05 0.270E-05
 
 
 POSITION                                       TOTAL-FORCE (eV/Angst)
 -----------------------------------------------------------------------------------
      0.45417      0.95000      1.37829        -0.073076      0.000000      0.015135
      2.60417      2.85000      4.19282        -0.073076     -0.000000     -0.015138
      3.84583      2.85000      9.76393         0.073076     -0.000000     -0.015135
      1.69583      0.95000      6.94940         0.073076     -0.000000      0.015138
      0.02674      0.95000      3.94605         0.086054     -0.000000     -0.019878
      2.17674      2.85000      1.62506         0.086054     -0.000001      0.019881
      4.27326      2.85000      7.19617        -0.086054      0.000000      0.019878
      2.12326      0.95000      9.51716        -0.086054      0.000001     -0.019881
 -----------------------------------------------------------------------------------
    total drift:                                0.000000      0.000000      0.000000


--------------------------------------------------------------------------------------------------------



  FREE ENERGIE OF THE ION-ELECTRON SYSTEM (eV)
  ---------------------------------------------------
  free  energy   TOTEN  =       -33.69267475 eV

  energy  without entropy=      -33.69267368  energy(sigma->0) =      -33.69267422
 


--------------------------------------------------------------------------------------------------------


    POTLOK:  cpu time      0.1134: real time      0.1142


--------------------------------------------------------------------------------------------------------


     LOOP+:  cpu time      4.8007: real time      4.8445
    4ORBIT:  cpu time      0.0000: real time      0.0000

 total amount of memory used by VASP MPI-rank0    37764. kBytes
=======================================================================

   base      :      30000. kBytes
   nonl-proj :       6082. kBytes
   fftplans  :        288. kBytes
   grid      :        416. kBytes
   one-center:         16. kBytes
   wavefun   :        962. kBytes
 
  
  
 General timing and accounting informations for this job:
 ========================================================
  
                  Total CPU time used (sec):        5.588
                            User time (sec):        5.353
                          System time (sec):        0.236
                         Elapsed time (sec):        6.978
  
                   Maximum memory used (kb):      188776.
                   Average memory used (kb):          N/A
  
                          Minor page faults:        21284
                          Major page faults:           34
                 Voluntary context switches:         4632
