 vasp.6.4.2 20Jul23 (build Oct 12 2023 10:31:02) complex                         
 executed on              LinuxNV date 2024.11.02  00:17:37
 running  128 mpi-ranks, with    1 threads/rank, on    2 nodes
 distrk:  each k-point on   64 cores,    2 groups
 distr:  one band on NCORE=   8 cores,    8 groups


--------------------------------------------------------------------------------------------------------


 INCAR:
   ENCUT = 520.000000
   SIGMA = 0.050000
   EDIFF = 1.00e-06
   ALGO = N
   GGA = PE
   PREC = Accurate
   SYSTEM = 01_AOPT
   ICHARG = 0
   ISMEAR = 0
   ISPIN = 2
   ISTART = 1
   ISYM = -1
   KPAR = 2
   LORBIT = 11
   NBANDS = 220
   NELM = 100
   NELMIN = 5
   NPAR = 8
   LASPH = .TRUE.
   LCHARG = .FALSE.
   LWAVE = .FALSE.
   LREAL = .FALSE.

 POTCAR:    PAW_PBE Ge 05Jan2001                  
 POTCAR:    PAW_PBE Se 06Sep2000                  
 -----------------------------------------------------------------------------
|                                                                             |
|           W    W    AA    RRRRR   N    N  II  N    N   GGGG   !!!           |
|           W    W   A  A   R    R  NN   N  II  NN   N  G    G  !!!           |
|           W    W  A    A  R    R  N N  N  II  N N  N  G       !!!           |
|           W WW W  AAAAAA  RRRRR   N  N N  II  N  N N  G  GGG   !            |
|           WW  WW  A    A  R   R   N   NN  II  N   NN  G    G                |
|           W    W  A    A  R    R  N    N  II  N    N   GGGG   !!!           |
|                                                                             |
|     You use a magnetic or noncollinear calculation, but did not specify     |
|     the initial magnetic moment with the MAGMOM tag. Note that a            |
|     default of 1 will be used for all atoms. This ferromagnetic setup       |
|     may break the symmetry of the crystal, in particular it may rule        |
|     out finding an antiferromagnetic solution. Thence, we recommend         |
|     setting the initial magnetic moment manually or verifying carefully     |
|     that this magnetic setup is desired.                                    |
|                                                                             |
 -----------------------------------------------------------------------------

 POTCAR:    PAW_PBE Ge 05Jan2001                  
   VRHFIN =Ge: s2p2                                                                                 
   LEXCH  = PE                                                                                      
   EATOM  =   104.9960 eV,    7.7170 Ry                                                             
                                                                                                    
   TITEL  = PAW_PBE Ge 05Jan2001                                                                    
   LULTRA =        F    use ultrasoft PP ?                                                          
   IUNSCR =        1    unscreen: 0-lin 1-nonlin 2-no                                               
   RPACOR =    2.170    partial core radius                                                         
   POMASS =   72.610; ZVAL   =    4.000    mass and valenz                                          
   RCORE  =    2.300    outmost cutoff radius                                                       
   RWIGS  =    2.300; RWIGS  =    1.217    wigner-seitz radius (au A)                               
   ENMAX  =  173.807; ENMIN  =  130.355 eV                                                          
   ICORE  =        3    local potential                                                             
   LCOR   =        T    correct aug charges                                                         
   LPAW   =        T    paw PP                                                                      
   EAUG   =  385.843                                                                                
   DEXC   =    0.000                                                                                
   RMAX   =    2.342    core radius for proj-oper                                                   
   RAUG   =    1.300    factor for augmentation sphere                                              
   RDEP   =    2.318    radius for radial grids                                                     
   RDEPT  =    2.103    core radius for aug-charge                                                  
                                                                                                    
   Atomic configuration                                                                             
   10 entries                                                                                       
     n  l   j            E        occ.                                                              
     1  0  0.50    -10959.8463   2.0000                                                             
     2  0  0.50     -1371.6056   2.0000                                                             
     2  1  1.50     -1198.4791   6.0000                                                             
     3  0  0.50      -168.4733   2.0000                                                             
     3  1  1.50      -115.6019   6.0000                                                             
     3  2  2.50       -29.3106  10.0000                                                             
     4  0  0.50       -11.7309   2.0000                                                             
     4  1  0.50        -3.8952   2.0000                                                             
     4  2  1.50        -4.0817   0.0000                                                             
     4  3  2.50        -4.0817   0.0000                                                             
   Description                                                                                      
     l       E           TYP  RCUT    TYP  RCUT                                                     
     0    -11.7309493     23  2.300                                                                 
     0     -7.4578696     23  2.300                                                                 
     1     -3.8952261     23  2.300                                                                 
     1      6.1178114     23  2.300                                                                 
     2     -4.0817478     23  2.300                                                                 
     3     -1.3605826      7  2.300                                                                 
  local pseudopotential read in
  partial core-charges read in
  partial kinetic energy density read in
  atomic valenz-charges read in
  non local Contribution for L=            0  read in
    real space projection operators read in
  non local Contribution for L=            0  read in
    real space projection operators read in
  non local Contribution for L=            1  read in
    real space projection operators read in
  non local Contribution for L=            1  read in
    real space projection operators read in
  non local Contribution for L=            2  read in
    real space projection operators read in
    PAW grid and wavefunctions read in
 
   number of l-projection  operators is LMAX  =            5
   number of lm-projection operators is LMMAX =           13
 
 POTCAR:    PAW_PBE Se 06Sep2000                  
   VRHFIN =Se: s2p4                                                                                 
   LEXCH  = PE                                                                                      
   EATOM  =   257.1286 eV,   18.8984 Ry                                                             
                                                                                                    
   TITEL  = PAW_PBE Se 06Sep2000                                                                    
   LULTRA =        F    use ultrasoft PP ?                                                          
   IUNSCR =        1    unscreen: 0-lin 1-nonlin 2-no                                               
   RPACOR =    1.900    partial core radius                                                         
   POMASS =   78.960; ZVAL   =    6.000    mass and valenz                                          
   RCORE  =    2.100    outmost cutoff radius                                                       
   RWIGS  =    2.200; RWIGS  =    1.164    wigner-seitz radius (au A)                               
   ENMAX  =  211.555; ENMIN  =  158.666 eV                                                          
   ICORE  =        3    local potential                                                             
   LCOR   =        T    correct aug charges                                                         
   LPAW   =        T    paw PP                                                                      
   EAUG   =  446.842                                                                                
   DEXC   =    0.000                                                                                
   RMAX   =    2.147    core radius for proj-oper                                                   
   RAUG   =    1.300    factor for augmentation sphere                                              
   RDEP   =    2.177    radius for radial grids                                                     
   RDEPT  =    1.928    core radius for aug-charge                                                  
                                                                                                    
   Atomic configuration                                                                             
   10 entries                                                                                       
     n  l   j            E        occ.                                                              
     1  0  0.50    -12503.4787   2.0000                                                             
     2  0  0.50     -1606.9547   2.0000                                                             
     2  1  1.50     -1413.3140   6.0000                                                             
     3  0  0.50      -213.4885   2.0000                                                             
     3  1  1.50      -152.9538   6.0000                                                             
     3  2  2.50       -53.1221  10.0000                                                             
     4  0  0.50       -17.2865   2.0000                                                             
     4  1  0.50        -6.5110   4.0000                                                             
     4  2  2.50        -6.8029   0.0000                                                             
     4  3  2.50        -6.8029   0.0000                                                             
   Description                                                                                      
     l       E           TYP  RCUT    TYP  RCUT                                                     
     0    -17.2865377     23  2.100                                                                 
     0    -15.3094411     23  2.100                                                                 
     1     -6.5110275     23  2.100                                                                 
     1     -0.0695192     23  2.100                                                                 
     2     -6.8029130     23  2.100                                                                 
     3     -1.3605826      7  2.100                                                                 
  local pseudopotential read in
  partial core-charges read in
  partial kinetic energy density read in
  atomic valenz-charges read in
  non local Contribution for L=            0  read in
    real space projection operators read in
  non local Contribution for L=            0  read in
    real space projection operators read in
  non local Contribution for L=            1  read in
    real space projection operators read in
  non local Contribution for L=            1  read in
    real space projection operators read in
  non local Contribution for L=            2  read in
    real space projection operators read in
    PAW grid and wavefunctions read in
 
   number of l-projection  operators is LMAX  =            5
   number of lm-projection operators is LMMAX =           13
 
 -----------------------------------------------------------------------------
|                                                                             |
|               ----> ADVICE to this user running VASP <----                  |
|                                                                             |
|     You have a (more or less) 'large supercell' and for larger cells it     |
|     might be more efficient to use real-space projection operators.         |
|     Therefore, try LREAL= Auto in the INCAR file.                           |
|     Mind: For very accurate calculation, you might also keep the            |
|     reciprocal projection scheme (i.e. LREAL=.FALSE.).                      |
|                                                                             |
 -----------------------------------------------------------------------------

  PAW_PBE Ge 05Jan2001                  :
 energy of atom  1       EATOM= -104.9960
 kinetic energy error for atom=    0.0002 (will be added to EATOM!!)
  PAW_PBE Se 06Sep2000                  :
 energy of atom  2       EATOM= -257.1286
 kinetic energy error for atom=    0.0007 (will be added to EATOM!!)
 
 
 POSCAR: Ge Se
  positions in cartesian coordinates
  No initial velocities read in
 exchange correlation table for  LEXCH =        8
   RHO(1)=    0.500       N(1)  =     2000
   RHO(2)=  100.500       N(2)  =     4000
 


--------------------------------------------------------------------------------------------------------


 ion  position               nearest neighbor table
   1  0.076  0.048  0.138-  45 2.50  55 2.58  54 2.84
   2  0.253  0.881  0.379-  48 2.53  67 2.61  45 2.80
   3  0.568  0.221  0.364-  56 2.47  68 2.56  49 2.65
   4  0.564  0.538  0.359-  69 2.64  50 2.67
   5  0.576  0.883  0.369-  44 2.52  70 2.66  48 2.66
   6  0.910  0.192  0.350-  55 2.47  46 2.49
   7  0.890  0.527  0.378-  72 2.42  71 2.61
   8  0.915  0.873  0.356-  53 2.47  45 2.63  44 2.77
   9  0.082  0.159  0.630-  57 2.45  51 2.47
  10  0.063  0.482  0.643-  58 2.51  43 2.66  38 2.68
  11  0.082  0.816  0.642-  59 2.43  39 2.73  52 2.74
  12  0.406  0.156  0.628-  60 2.57  51 2.61  40 2.67
  13  0.438  0.491  0.635-  41 2.53  61 2.56  42 2.72
  14  0.399  0.805  0.626-  62 2.57  42 2.61  39 2.67
  15  0.741  0.137  0.623-  63 2.59  37 2.59  40 2.68
  16  0.748  0.507  0.645-  64 2.56  43 2.76  41 2.81
  17  0.241  0.554  0.376-  50 2.57  47 2.66  66 2.73
  18  0.237  0.220  0.361-  54 2.54  46 2.56  49 2.82
  19  0.750  0.822  0.631-  65 2.55  52 2.66  37 2.73
  20  0.909  0.665  0.873-  52 2.57  64 2.71  58 2.79
  21  0.941  0.002  0.872-  37 2.58  59 2.62  57 2.69
  22  0.078  0.362  0.116-  46 2.61  66 2.64  71 2.78
  23  0.067  0.717  0.133-  47 2.58  67 2.64  53 2.70
  24  0.418  0.030  0.118-  48 2.58  68 2.60  54 2.83
  25  0.394  0.399  0.128-  66 2.46  49 2.64  69 2.76
  26  0.720  0.033  0.126-  68 2.56  44 2.70  55 2.86
  27  0.727  0.380  0.126-  56 2.49  69 2.71  71 2.85
  28  0.403  0.710  0.122-  67 2.69  70 2.71  50 2.79
  29  0.247  0.324  0.858-  38 2.48  61 2.67  60 2.73
  30  0.233  0.645  0.862-  39 2.52  58 2.66  61 2.71
  31  0.251  0.989  0.873-  51 2.58  59 2.62  62 2.62
  32  0.572  0.310  0.883-  41 2.55  60 2.60  63 2.64
  33  0.591  0.664  0.864-  65 2.56  42 2.62  64 2.65
  34  0.560  0.979  0.868-  40 2.43  62 2.62  65 2.83
  35  0.881  0.320  0.867-  43 2.61  63 2.62  57 2.85
  36  0.751  0.698  0.137-  72 2.59  53 2.61
  37  0.888  0.992  0.648-  21 2.58  15 2.59  19 2.73
  38  0.225  0.340  0.636-  29 2.48  10 2.68
  39  0.238  0.663  0.635-  30 2.52  14 2.67  11 2.73
  40  0.566  0.014  0.652-  34 2.43  12 2.67  15 2.68
  41  0.584  0.352  0.658-  13 2.53  32 2.55  16 2.81
  42  0.561  0.671  0.630-  14 2.61  33 2.62  13 2.72
  43  0.899  0.345  0.634-  35 2.61  10 2.66  16 2.76
  44  0.736  0.007  0.367-   5 2.52  26 2.70   8 2.77
  45  0.072  0.014  0.361-   1 2.50   8 2.63   2 2.80
  46  0.060  0.323  0.346-   6 2.49  18 2.56  22 2.61
  47  0.069  0.681  0.363-  23 2.58  17 2.66
  48  0.406  0.012  0.349-   2 2.53  24 2.58   5 2.66
  49  0.411  0.365  0.362-  25 2.64   3 2.65  18 2.82
  50  0.404  0.680  0.371-  17 2.57   4 2.67  28 2.79
  51  0.236  0.035  0.646-   9 2.47  31 2.58  12 2.61
  52  0.909  0.680  0.641-  20 2.57  19 2.66  11 2.74
  53  0.895  0.849  0.136-   8 2.47  36 2.61  23 2.70
  54  0.256  0.188  0.135-  18 2.54  24 2.83   1 2.84
  55  0.906  0.167  0.130-   6 2.47   1 2.58  26 2.86
  56  0.724  0.344  0.347-   3 2.47  27 2.49
  57  0.062  0.180  0.849-   9 2.45  21 2.69  35 2.85
  58  0.069  0.508  0.867-  10 2.51  30 2.66  20 2.79
  59  0.090  0.855  0.857-  11 2.43  21 2.62  31 2.62
  60  0.411  0.178  0.859-  12 2.57  32 2.60  29 2.73
  61  0.383  0.489  0.858-  13 2.56  29 2.67  30 2.71
  62  0.401  0.842  0.854-  14 2.57  34 2.62  31 2.62
  63  0.731  0.174  0.853-  15 2.59  35 2.62  32 2.64
  64  0.747  0.520  0.876-  16 2.56  33 2.65  20 2.71
  65  0.723  0.821  0.859-  19 2.55  33 2.56  34 2.83
  66  0.230  0.509  0.135-  25 2.46  22 2.64  17 2.73
  67  0.236  0.844  0.148-   2 2.61  23 2.64  28 2.69
  68  0.570  0.173  0.139-   3 2.56  26 2.56  24 2.60
  69  0.571  0.532  0.121-   4 2.64  27 2.71  25 2.76
  70  0.572  0.848  0.133-   5 2.66  28 2.71
  71  0.914  0.510  0.145-   7 2.61  22 2.78  27 2.85
  72  0.764  0.674  0.369-   7 2.42  36 2.59
 

IMPORTANT INFORMATION: All symmetrisations will be switched off!
NOSYMM: (Re-)initialisation of all symmetry stuff for point group C_1.


----------------------------------------------------------------------------------------

                                     Primitive cell                                     

  volume of cell :    1720.1565

  direct lattice vectors                    reciprocal lattice vectors
    12.411129981  0.000005952 -0.000002488     0.080572841 -0.000000039  0.000000021
     0.000006003 12.516028284 -0.000002519    -0.000000038  0.079897550  0.000000021
    -0.000002858 -0.000002869 11.073632512     0.000000018  0.000000018  0.090304604

  length of vectors
    12.411129981 12.516028284 11.073632512     0.080572841  0.079897550  0.090304604

  position of ions in fractional coordinates (direct lattice)
     0.076149009  0.047642771  0.138060240
     0.253331722  0.881178438  0.378564492
     0.568278100  0.220772930  0.363855285
     0.564033613  0.538134858  0.358763761
     0.576047214  0.883214746  0.369081307
     0.909618656  0.191718023  0.350487038
     0.890064502  0.526857409  0.378481476
     0.914560147  0.873123226  0.356391194
     0.082048538  0.159065554  0.630001208
     0.062562903  0.481501184  0.642503776
     0.082299728  0.815701116  0.642268119
     0.406463165  0.155590236  0.628162310
     0.437636468  0.491071846  0.634862412
     0.399209824  0.804529215  0.626026761
     0.740809338  0.136543557  0.622865449
     0.747635432  0.506994074  0.645395170
     0.240751662  0.554186733  0.375940560
     0.237266285  0.219844819  0.360938250
     0.749647851  0.821989866  0.630969761
     0.909364271  0.664690438  0.872934073
     0.940843186  0.002397859  0.872365322
     0.078427092  0.362091624  0.115530412
     0.066888876  0.716609524  0.133415277
     0.418174120  0.030312066  0.117808583
     0.393889346  0.398838564  0.127530244
     0.720268026  0.032894267  0.125736656
     0.726660116  0.379870247  0.125530351
     0.403451137  0.710448169  0.121892002
     0.247099991  0.324155318  0.857746223
     0.232555055  0.645410360  0.861669372
     0.251041660  0.989145343  0.872791253
     0.571510988  0.309734760  0.883328549
     0.591019512  0.664289878  0.864195334
     0.559769130  0.978984281  0.867839715
     0.881133898  0.320231054  0.866877090
     0.750851775  0.697962558  0.137210713
     0.887765327  0.991553422  0.647833726
     0.225258545  0.340270704  0.636046319
     0.238431188  0.662744480  0.635391905
     0.565817577  0.013646018  0.651997684
     0.584136994  0.352166849  0.658169832
     0.560864721  0.670832282  0.630473260
     0.898511365  0.344841832  0.634085123
     0.736413540  0.006662844  0.366688398
     0.072431382  0.013785701  0.360733106
     0.059514662  0.323384311  0.345833682
     0.069028132  0.681399444  0.363320230
     0.406457817  0.011997407  0.349196340
     0.411408352  0.364979180  0.361920680
     0.403739419  0.680419268  0.371377677
     0.235980745  0.034783010  0.646467673
     0.908841315  0.680057299  0.641213371
     0.895295239  0.849437400  0.135751084
     0.255792309  0.187919826  0.135388287
     0.906383577  0.166973487  0.129523402
     0.723506436  0.343563203  0.346631631
     0.061536047  0.179893492  0.849149831
     0.068971733  0.508350663  0.867436749
     0.089634742  0.854832297  0.857394516
     0.410675958  0.177865934  0.859213017
     0.383451760  0.488950609  0.858133517
     0.400875916  0.842180278  0.854246902
     0.731327961  0.173514128  0.852516424
     0.746844469  0.520230677  0.875636935
     0.723224828  0.821175850  0.858884539
     0.229783786  0.509495606  0.134641386
     0.235662711  0.844464218  0.147506691
     0.569904642  0.172810564  0.139118144
     0.570988295  0.531625266  0.120879876
     0.571962304  0.848150569  0.132522486
     0.913836526  0.510092314  0.145180227
     0.763729153  0.674313438  0.369017747

  ion indices of the primitive-cell ions
   primitive index   ion index
                 1           1
                 2           2
                 3           3
                 4           4
                 5           5
                 6           6
                 7           7
                 8           8
                 9           9
                10          10
                11          11
                12          12
                13          13
                14          14
                15          15
                16          16
                17          17
                18          18
                19          19
                20          20
                21          21
                22          22
                23          23
                24          24
                25          25
                26          26
                27          27
                28          28
                29          29
                30          30
                31          31
                32          32
                33          33
                34          34
                35          35
                36          36
                37          37
                38          38
                39          39
                40          40
                41          41
                42          42
                43          43
                44          44
                45          45
                46          46
                47          47
                48          48
                49          49
                50          50
                51          51
                52          52
                53          53
                54          54
                55          55
                56          56
                57          57
                58          58
                59          59
                60          60
                61          61
                62          62
                63          63
                64          64
                65          65
                66          66
                67          67
                68          68
                69          69
                70          70
                71          71
                72          72

----------------------------------------------------------------------------------------

 
 
 KPOINTS: KPOINTS created by Atomic Simulation Env

Automatic generation of k-mesh.
 Grid dimensions read from file:
 generate k-points for:    2    2    2

 Generating k-lattice:

  Cartesian coordinates                     Fractional coordinates (reciprocal lattice)
     0.040286420 -0.000000019  0.000000010     0.500000000 -0.000000000  0.000000000
    -0.000000019  0.039948775  0.000000010     0.000000000  0.500000000 -0.000000000
     0.000000009  0.000000009  0.045152302    -0.000000000  0.000000000  0.500000000

  Length of vectors
     0.040286420  0.039948775  0.045152302

  Shift w.r.t. Gamma in fractional coordinates (k-lattice)
     0.000000000  0.000000000  0.000000000

 
 Subroutine IBZKPT returns following result:
 ===========================================
 
 Found      8 irreducible k-points:
 
 Following reciprocal coordinates:
            Coordinates               Weight
  0.000000  0.000000  0.000000      1.000000
  0.500000  0.000000  0.000000      1.000000
  0.000000  0.500000  0.000000      1.000000
  0.500000  0.500000  0.000000      1.000000
  0.000000  0.000000  0.500000      1.000000
  0.500000  0.000000  0.500000      1.000000
  0.000000  0.500000  0.500000      1.000000
  0.500000  0.500000  0.500000      1.000000
 
 Following cartesian coordinates:
            Coordinates               Weight
  0.000000  0.000000  0.000000      1.000000
  0.040286 -0.000000  0.000000      1.000000
 -0.000000  0.039949  0.000000      1.000000
  0.040286  0.039949  0.000000      1.000000
  0.000000  0.000000  0.045152      1.000000
  0.040286 -0.000000  0.045152      1.000000
 -0.000000  0.039949  0.045152      1.000000
  0.040286  0.039949  0.045152      1.000000
 
 -----------------------------------------------------------------------------
|                                                                             |
|           W    W    AA    RRRRR   N    N  II  N    N   GGGG   !!!           |
|           W    W   A  A   R    R  NN   N  II  NN   N  G    G  !!!           |
|           W    W  A    A  R    R  N N  N  II  N N  N  G       !!!           |
|           W WW W  AAAAAA  RRRRR   N  N N  II  N  N N  G  GGG   !            |
|           WW  WW  A    A  R   R   N   NN  II  N   NN  G    G                |
|           W    W  A    A  R    R  N    N  II  N    N   GGGG   !!!           |
|                                                                             |
|     The number of bands has been changed from the values supplied in        |
|     the INCAR file. This is a result of running the parallel version.       |
|     The orbitals not found in the WAVECAR file will be initialized with     |
|     random numbers, which is usually adequate. For correlated               |
|     calculations, however, you should redo the groundstate calculation.     |
|     I found NBANDS = 220. Now, NBANDS = 224.                                |
|                                                                             |
 -----------------------------------------------------------------------------



--------------------------------------------------------------------------------------------------------




 Dimension of arrays:
   k-points           NKPTS =      8   k-points in BZ     NKDIM =      8   number of bands    NBANDS=    224
   number of dos      NEDOS =    301   number of ions     NIONS =     72
   non local maximal  LDIM  =      5   non local SUM 2l+1 LMDIM =     13
   total plane-waves  NPLWV = 774144
   max r-space proj   IRMAX =      1   max aug-charges    IRDMAX=  24657
   dimension x,y,z NGX =    96 NGY =   96 NGZ =   84
   dimension x,y,z NGXF=   192 NGYF=  192 NGZF=  168
   support grid    NGXF=   192 NGYF=  192 NGZF=  168
   ions per type =              36  36
   NGX,Y,Z   is equivalent  to a cutoff of  12.86, 12.75, 12.61 a.u.
   NGXF,Y,Z  is equivalent  to a cutoff of  25.72, 25.50, 25.22 a.u.

 SYSTEM =  01_AOPT                                 
 POSCAR =  Ge Se                                   

 Startparameter for this run:
   NWRITE =      2    write-flag & timer
   PREC   = accura    normal or accurate (medium, high low for compatibility)
   ISTART =      0    job   : 0-new  1-cont  2-samecut
   ICHARG =      2    charge: 1-file 2-atom 10-const
   ISPIN  =      2    spin polarized calculation?
   LNONCOLLINEAR =      F non collinear calculations
   LSORBIT =      F    spin-orbit coupling
   INIWAV =      1    electr: 0-lowe 1-rand  2-diag
   LASPH  =      T    aspherical Exc in radial PAW
 Electronic Relaxation 1
   ENCUT  =  520.0 eV  38.22 Ry    6.18 a.u.  23.08 23.27 20.59*2*pi/ulx,y,z
   ENINI  =  520.0     initial cutoff
   ENAUG  =  446.8 eV  augmentation charge cutoff
   NELM   =    100;   NELMIN=  5; NELMDL=  0     # of ELM steps 
   EDIFF  = 0.1E-05   stopping-criterion for ELM
   LREAL  =      F    real-space projection
   NLSPLINE    = F    spline interpolate recip. space projectors
   LCOMPAT=      F    compatible to vasp.4.4
   GGA_COMPAT  = T    GGA compatible to vasp.4.4-vasp.4.6
   LMAXPAW     = -100 max onsite density
   LMAXMIX     =    2 max onsite mixed and CHGCAR
   VOSKOWN=      0    Vosko Wilk Nusair interpolation
   ROPT   =    0.00000   0.00000
 Ionic relaxation
   EDIFFG = 0.1E-04   stopping-criterion for IOM
   NSW    =      0    number of steps for IOM
   NBLOCK =      1;   KBLOCK =      1    inner block; outer block 
   IBRION =     -1    ionic relax: 0-MD 1-quasi-New 2-CG
   NFREE  =      0    steps in history (QN), initial steepest desc. (CG)
   ISIF   =      2    stress and relaxation
   IWAVPR =     10    prediction:  0-non 1-charg 2-wave 3-comb
   ISYM   =     -1    0-nonsym 1-usesym 2-fastsym
   LCORR  =      T    Harris-Foulkes like correction to forces

   POTIM  = 0.5000    time-step for ionic-motion
   TEIN   =    0.0    initial temperature
   TEBEG  =    0.0;   TEEND  =   0.0 temperature during run
   SMASS  =  -3.00    Nose mass-parameter (am)
   estimated Nose-frequenzy (Omega)   =  0.10E-29 period in steps = 0.13E+47 mass=  -0.352E-26a.u.
   SCALEE = 1.0000    scale energy and forces
   NPACO  =    256;   APACO  = 10.0  distance and # of slots for P.C.
   PSTRESS=    0.0 pullay stress

  Mass of Ions in am
   POMASS =  72.61 78.96
  Ionic Valenz
   ZVAL   =   4.00  6.00
  Atomic Wigner-Seitz radii
   RWIGS  =  -1.00 -1.00
  virtual crystal weights 
   VCA    =   1.00  1.00
   NELECT =     360.0000    total number of electrons
   NUPDOWN=      -1.0000    fix difference up-down

 DOS related values:
   EMIN   =  10.00;   EMAX   =-10.00  energy-range for DOS
   EFERMI =   0.00;   METHOD = LEGACY      
   ISMEAR =     0;   SIGMA  =   0.05  broadening in eV -4-tet -1-fermi 0-gaus

 Electronic relaxation 2 (details)
   IALGO  =     38    algorithm
   LDIAG  =      T    sub-space diagonalisation (order eigenvalues)
   LSUBROT=      F    optimize rotation matrix (better conditioning)
   TURBO    =      0    0=normal 1=particle mesh
   IRESTART =      0    0=no restart 2=restart with 2 vectors
   NREBOOT  =      0    no. of reboots
   NMIN     =      0    reboot dimension
   EREF     =   0.00    reference energy to select bands
   IMIX   =      4    mixing-type and parameters
     AMIX     =   0.40;   BMIX     =  1.00
     AMIX_MAG =   1.60;   BMIX_MAG =  1.00
     AMIN     =   0.10
     WC   =   100.;   INIMIX=   1;  MIXPRE=   1;  MAXMIX= -45

 Intra band minimization:
   WEIMIN = 0.0000     energy-eigenvalue tresh-hold
   EBREAK =  0.11E-08  absolut break condition
   DEPER  =   0.30     relativ break condition  

   TIME   =   0.40     timestep for ELM

  volume/ion in A,a.u.               =      23.89       161.22
  Fermi-wavevector in a.u.,A,eV,Ry     =   0.971970  1.836758 12.853782  0.944726
  Thomas-Fermi vector in A             =   2.102231
 
 Write flags
   LWAVE        =      F    write WAVECAR
   LDOWNSAMPLE  =      F    k-point downsampling of WAVECAR
   LCHARG       =      F    write CHGCAR
   LVTOT        =      F    write LOCPOT, total local potential
   LVHAR        =      F    write LOCPOT, Hartree potential only
   LELF         =      F    write electronic localiz. function (ELF)
   LORBIT       =     11    0 simple, 1 ext, 2 COOP (PROOUT), +10 PAW based schemes


 Dipole corrections
   LMONO  =      F    monopole corrections only (constant potential shift)
   LDIPOL =      F    correct potential (dipole corrections)
   IDIPOL =      0    1-x, 2-y, 3-z, 4-all directions 
   EPSILON=  1.0000000 bulk dielectric constant

 Exchange correlation treatment:
   GGA     =    PE    GGA type
   LEXCH   =     8    internal setting for exchange type
   LIBXC   =     F    Libxc                    
   VOSKOWN =     0    Vosko Wilk Nusair interpolation
   LHFCALC =     F    Hartree Fock is set to
   LHFONE  =     F    Hartree Fock one center treatment
   AEXX    =    0.0000 exact exchange contribution

 Linear response parameters
   LEPSILON=     F    determine dielectric tensor
   LRPA    =     F    only Hartree local field effects (RPA)
   LNABLA  =     F    use nabla operator in PAW spheres
   LVEL    =     F    velocity operator in full k-point grid
   CSHIFT  =0.1000    complex shift for real part using Kramers Kronig
   OMEGAMAX=  -1.0    maximum frequency
   DEG_THRESHOLD= 0.2000000E-02 threshold for treating states as degnerate
   RTIME   =   -0.100 relaxation time in fs
  (WPLASMAI=    0.000 imaginary part of plasma frequency in eV, 0.658/RTIME)
   DFIELD  = 0.0000000 0.0000000 0.0000000 field for delta impulse in time
 
  Optional k-point grid parameters
   LKPOINTS_OPT  =     F    use optional k-point grid
   KPOINTS_OPT_MODE=     1    mode for optional k-point grid
 
 Orbital magnetization related:
   ORBITALMAG=     F  switch on orbital magnetization
   LCHIMAG   =     F  perturbation theory with respect to B field
   DQ        =  0.001000  dq finite difference perturbation B field
   LLRAUG    =     F  two centre corrections for induced B field
   LBONE     =     F  B-component reconstruction in AE one-centre
   LVGVCALC  =     T  calculate vGv susceptibility
   LVGVAPPL  =     F  apply vGv susceptibility instead of pGv for G=0

 Random number generation:
   RANDOM_GENERATOR = DEFAULT
   PCG_SEED         = not used


--------------------------------------------------------------------------------------------------------


 Static calculation
 charge density and potential will be updated during run
 spin polarized calculation
 Variant of blocked Davidson
 Davidson routine will perform the subspace rotation
 perform sub-space diagonalisation
    after iterative eigenvector-optimisation
 modified Broyden-mixing scheme, WC =      100.0
 initial mixing is a Kerker type mixing with AMIX =  0.4000 and BMIX =      1.0000
 Hartree-type preconditioning will be used
 using additional bands            44
 reciprocal scheme for non local part
 use partial core corrections
 calculate Harris-corrections to forces 
   (improved forces if not selfconsistent)
 use gradient corrections 
 use of overlap-Matrix (Vanderbilt PP)
 Gauss-broadening in eV      SIGMA  =   0.05


--------------------------------------------------------------------------------------------------------


  energy-cutoff  :      520.00
  volume of cell :     1720.16
      direct lattice vectors                 reciprocal lattice vectors
    12.411129981  0.000005952 -0.000002488     0.080572841 -0.000000039  0.000000021
     0.000006003 12.516028284 -0.000002519    -0.000000038  0.079897550  0.000000021
    -0.000002858 -0.000002869 11.073632512     0.000000018  0.000000018  0.090304604

  length of vectors
    12.411129981 12.516028284 11.073632512     0.080572841  0.079897550  0.090304604


 
 k-points in units of 2pi/SCALE and weight: KPOINTS created by Atomic Simulation Env
   0.00000000  0.00000000  0.00000000       0.125
   0.04028642 -0.00000002  0.00000001       0.125
  -0.00000002  0.03994878  0.00000001       0.125
   0.04028640  0.03994876  0.00000002       0.125
   0.00000001  0.00000001  0.04515230       0.125
   0.04028643 -0.00000001  0.04515231       0.125
  -0.00000001  0.03994878  0.04515231       0.125
   0.04028641  0.03994876  0.04515232       0.125
 
 k-points in reciprocal lattice and weights: KPOINTS created by Atomic Simulation Env
   0.00000000  0.00000000  0.00000000       0.125
   0.50000000  0.00000000  0.00000000       0.125
   0.00000000  0.50000000  0.00000000       0.125
   0.50000000  0.50000000  0.00000000       0.125
   0.00000000  0.00000000  0.50000000       0.125
   0.50000000  0.00000000  0.50000000       0.125
   0.00000000  0.50000000  0.50000000       0.125
   0.50000000  0.50000000  0.50000000       0.125
 
 position of ions in fractional coordinates (direct lattice) 
   0.07614901  0.04764277  0.13806024
   0.25333172  0.88117844  0.37856449
   0.56827810  0.22077293  0.36385529
   0.56403361  0.53813486  0.35876376
   0.57604721  0.88321475  0.36908131
   0.90961866  0.19171802  0.35048704
   0.89006450  0.52685741  0.37848148
   0.91456015  0.87312323  0.35639119
   0.08204854  0.15906555  0.63000121
   0.06256290  0.48150118  0.64250378
   0.08229973  0.81570112  0.64226812
   0.40646317  0.15559024  0.62816231
   0.43763647  0.49107185  0.63486241
   0.39920982  0.80452922  0.62602676
   0.74080934  0.13654356  0.62286545
   0.74763543  0.50699407  0.64539517
   0.24075166  0.55418673  0.37594056
   0.23726629  0.21984482  0.36093825
   0.74964785  0.82198987  0.63096976
   0.90936427  0.66469044  0.87293407
   0.94084319  0.00239786  0.87236532
   0.07842709  0.36209162  0.11553041
   0.06688888  0.71660952  0.13341528
   0.41817412  0.03031207  0.11780858
   0.39388935  0.39883856  0.12753024
   0.72026803  0.03289427  0.12573666
   0.72666012  0.37987025  0.12553035
   0.40345114  0.71044817  0.12189200
   0.24709999  0.32415532  0.85774622
   0.23255506  0.64541036  0.86166937
   0.25104166  0.98914534  0.87279125
   0.57151099  0.30973476  0.88332855
   0.59101951  0.66428988  0.86419533
   0.55976913  0.97898428  0.86783971
   0.88113390  0.32023105  0.86687709
   0.75085178  0.69796256  0.13721071
   0.88776533  0.99155342  0.64783373
   0.22525855  0.34027070  0.63604632
   0.23843119  0.66274448  0.63539191
   0.56581758  0.01364602  0.65199768
   0.58413699  0.35216685  0.65816983
   0.56086472  0.67083228  0.63047326
   0.89851136  0.34484183  0.63408512
   0.73641354  0.00666284  0.36668840
   0.07243138  0.01378570  0.36073311
   0.05951466  0.32338431  0.34583368
   0.06902813  0.68139944  0.36332023
   0.40645782  0.01199741  0.34919634
   0.41140835  0.36497918  0.36192068
   0.40373942  0.68041927  0.37137768
   0.23598074  0.03478301  0.64646767
   0.90884132  0.68005730  0.64121337
   0.89529524  0.84943740  0.13575108
   0.25579231  0.18791983  0.13538829
   0.90638358  0.16697349  0.12952340
   0.72350644  0.34356320  0.34663163
   0.06153605  0.17989349  0.84914983
   0.06897173  0.50835066  0.86743675
   0.08963474  0.85483230  0.85739452
   0.41067596  0.17786593  0.85921302
   0.38345176  0.48895061  0.85813352
   0.40087592  0.84218028  0.85424690
   0.73132796  0.17351413  0.85251642
   0.74684447  0.52023068  0.87563694
   0.72322483  0.82117585  0.85888454
   0.22978379  0.50949561  0.13464139
   0.23566271  0.84446422  0.14750669
   0.56990464  0.17281056  0.13911814
   0.57098829  0.53162527  0.12087988
   0.57196230  0.84815057  0.13252249
   0.91383653  0.51009231  0.14518023
   0.76372915  0.67431344  0.36901775
 
 position of ions in cartesian coordinates  (Angst):
   0.94509514  0.59629832  1.52882805
   3.14413713 11.02885468  4.19208122
   7.05297365  2.76320258  4.02919775
   7.00029669  6.73531344  3.97281529
   7.14940109 11.05434312  4.08706710
  11.28939552  2.39955260  3.88116192
  11.04670831  6.59416644  4.19116124
  11.35072908 10.92803942  3.94654064
   1.01831422  1.99086765  6.97640125
   0.77647738  6.02648096  7.11484933
   1.02143568 10.20933688  7.11223887
   5.04466632  1.94737241  6.95603717
   5.43156422  6.14626990  7.03023072
   4.95464805 10.06951100  6.93238727
   9.19428003  1.70898565  6.89738090
   9.27900172  6.34555476  7.14686580
   2.98800243  6.93621718  4.16302561
   2.94474299  2.75158436  3.99689639
   9.30398005 10.28805106  6.98712333
  11.28623967  8.31928723  9.66654720
  11.67692459  0.03001477  9.66025064
   0.97337068  4.53194914  1.27934022
   0.83017046  8.96910508  1.47738978
   5.19001321  0.37938882  1.30456783
   4.88861390  4.99187673  1.41222107
   8.93933993  0.41170951  1.39235965
   9.01867508  4.75447072  1.39007421
   5.00728841  8.89199143  1.34978444
   3.06678960  4.05713614  9.49836503
   2.88627243  8.07797324  9.54180777
   3.11571411 12.38017008  9.66496648
   7.09309649  3.87664989  9.78165354
   7.33522150  8.31427194  9.56977840
   6.94737083 12.25299579  9.61013422
  10.93586678  4.00802368  9.59947533
   9.31892277  8.73572320  1.51941739
  11.01817497 12.41031410  7.17386791
   2.79571331  4.25883727  7.04334178
   2.95920263  8.29492825  7.03609420
   7.02243371  0.17079545  7.21998131
   7.24980039  4.40773183  7.28832851
   6.96096718  8.39615734  6.98162611
  11.15154159  4.31605365  7.02162253
   9.13972315  0.08339567  4.06057072
   0.89895435  0.17254162  3.99462564
   0.73864516  4.04748655  3.82963414
   0.85672017  8.52841409  4.02327282
   5.04459987  0.15016130  3.86687090
   5.10604368  4.56809115  4.00777466
   5.01086543  8.51614814  4.11249719
   2.92878606  0.43534469  7.15874477
  11.27974995  8.51161996  7.10055726
  11.11163030 10.63158746  1.50325325
   3.17467233  2.35201099  1.49923903
  11.24924502  2.08984991  1.43429187
   8.97953350  4.30005008  3.83846863
   0.76373054  2.25154997  9.40317256
   0.85601772  6.36252920  9.60567434
   1.11247111 10.69910328  9.49446941
   5.09695131  2.22617504  9.51460773
   4.75907012  6.11971947  9.50265303
   4.97532571 10.54075211  9.45961315
   9.07660498  2.17170964  9.44045133
   9.26918440  6.51122380  9.69647847
   8.97603983 10.27786200  9.51096788
   2.85187911  6.37686239  1.49096738
   2.92484518 10.56933902  1.63343218
   7.07316123  2.16290490  1.54054135
   7.08661279  6.65383992  1.33857656
   7.09870321 10.61547954  1.46750175
  11.34174655  6.38433486  1.60766892
   9.47874478  8.43972955  4.08636333
 


--------------------------------------------------------------------------------------------------------


 k-point   1 :   0.0000 0.0000 0.0000  plane waves:   46317
 k-point   2 :   0.5000 0.0000 0.0000  plane waves:   46342
 k-point   3 :   0.0000 0.5000 0.0000  plane waves:   46306
 k-point   4 :   0.5000 0.5000 0.0000  plane waves:   46412
 k-point   5 :   0.0000 0.0000 0.5000  plane waves:   46310
 k-point   6 :   0.5000 0.0000 0.5000  plane waves:   46300
 k-point   7 :   0.0000 0.5000 0.5000  plane waves:   46292
 k-point   8 :   0.5000 0.5000 0.5000  plane waves:   46304

 maximum and minimum number of plane-waves per node :      5834     5751

 maximum number of plane-waves:     46412
 maximum index in each direction: 
   IXMAX=   23   IYMAX=   23   IZMAX=   20
   IXMIN=  -23   IYMIN=  -23   IZMIN=  -21


 parallel 3D FFT for wavefunctions:
    minimum data exchange during FFTs selected (reduces bandwidth)
 parallel 3D FFT for charge:
    minimum data exchange during FFTs selected (reduces bandwidth)


 total amount of memory used by VASP MPI-rank0   110684. kBytes
=======================================================================

   base      :      30000. kBytes
   nonl-proj :      16332. kBytes
   fftplans  :       6179. kBytes
   grid      :      15593. kBytes
   one-center:        146. kBytes
   wavefun   :      42434. kBytes
 
     INWAV:  cpu time      0.0000: real time      0.0001
 Broyden mixing: mesh for mixing (old mesh)
   NGX = 47   NGY = 47   NGZ = 41
  (NGX  =192   NGY  =192   NGZ  =168)
  gives a total of  90569 points

 initial charge density was supplied:
 charge density of overlapping atoms calculated
 number of electron     360.0000000 magnetization      72.0000000
 keeping initial charge density in first step


--------------------------------------------------------------------------------------------------------


 Maximum index for augmentation-charges           667 (set IRDMAX)


--------------------------------------------------------------------------------------------------------


 First call to EWALD:  gamma=   0.148
 Maximum number of real-space cells 3x 3x 3
 Maximum number of reciprocal cells 3x 3x 3

    FEWALD:  cpu time      0.0043: real time      0.0044


--------------------------------------- Ionic step        1  -------------------------------------------




--------------------------------------- Iteration      1(   1)  ---------------------------------------


    POTLOK:  cpu time      0.1397: real time      0.1408
    SETDIJ:  cpu time      0.6076: real time      0.6089
     EDDAV:  cpu time      8.7068: real time      8.7620
       DOS:  cpu time      0.0020: real time      0.0020
    --------------------------------------------
      LOOP:  cpu time      9.4561: real time      9.5138

 eigenvalue-minimisations  :  7168
 total energy-change (2. order) : 0.1818329E+04  (-0.1419077E+05)
 number of electron     360.0000000 magnetization      72.0000000
 augmentation part      360.0000000 magnetization      72.0000000

 Free energy of the ion-electron system (eV)
  ---------------------------------------------------
  alpha Z        PSCENC =       797.89255314
  Ewald energy   TEWEN  =    -12872.61941397
  -Hartree energ DENC   =     -1106.71846154
  -exchange      EXHF   =         0.00000000
  -V(xc)+E(xc)   XCENC  =      -293.59862415
  PAW double counting   =     10738.42099860    -9719.93139476
  entropy T*S    EENTRO =        -0.02038198
  eigenvalues    EBANDS =      1238.45259299
  atomic energy  EATOM  =     13036.45147835
  Solvation  Ediel_sol  =         0.00000000
  ---------------------------------------------------
  free energy    TOTEN  =      1818.32934669 eV

  energy without entropy =     1818.34972866  energy(sigma->0) =     1818.33953768


--------------------------------------------------------------------------------------------------------




--------------------------------------- Iteration      1(   2)  ---------------------------------------


     EDDAV:  cpu time      9.9290: real time      9.9799
       DOS:  cpu time      0.0012: real time      0.0012
    --------------------------------------------
      LOOP:  cpu time      9.9302: real time      9.9811

 eigenvalue-minimisations  :  8496
 total energy-change (2. order) :-0.1882842E+04  (-0.1807978E+04)
 number of electron     360.0000000 magnetization      72.0000000
 augmentation part      360.0000000 magnetization      72.0000000

 Free energy of the ion-electron system (eV)
  ---------------------------------------------------
  alpha Z        PSCENC =       797.89255314
  Ewald energy   TEWEN  =    -12872.61941397
  -Hartree energ DENC   =     -1106.71846154
  -exchange      EXHF   =         0.00000000
  -V(xc)+E(xc)   XCENC  =      -293.59862415
  PAW double counting   =     10738.42099860    -9719.93139476
  entropy T*S    EENTRO =        -0.01983595
  eigenvalues    EBANDS =      -644.38986212
  atomic energy  EATOM  =     13036.45147835
  Solvation  Ediel_sol  =         0.00000000
  ---------------------------------------------------
  free energy    TOTEN  =       -64.51256239 eV

  energy without entropy =      -64.49272644  energy(sigma->0) =      -64.50264442


--------------------------------------------------------------------------------------------------------




--------------------------------------- Iteration      1(   3)  ---------------------------------------


     EDDAV:  cpu time      9.9719: real time     10.0196
       DOS:  cpu time      0.0012: real time      0.0012
    --------------------------------------------
      LOOP:  cpu time      9.9731: real time     10.0208

 eigenvalue-minimisations  :  8584
 total energy-change (2. order) :-0.2175264E+03  (-0.2114957E+03)
 number of electron     360.0000000 magnetization      72.0000000
 augmentation part      360.0000000 magnetization      72.0000000

 Free energy of the ion-electron system (eV)
  ---------------------------------------------------
  alpha Z        PSCENC =       797.89255314
  Ewald energy   TEWEN  =    -12872.61941397
  -Hartree energ DENC   =     -1106.71846154
  -exchange      EXHF   =         0.00000000
  -V(xc)+E(xc)   XCENC  =      -293.59862415
  PAW double counting   =     10738.42099860    -9719.93139476
  entropy T*S    EENTRO =        -0.00000224
  eigenvalues    EBANDS =      -861.93607293
  atomic energy  EATOM  =     13036.45147835
  Solvation  Ediel_sol  =         0.00000000
  ---------------------------------------------------
  free energy    TOTEN  =      -282.03893950 eV

  energy without entropy =     -282.03893726  energy(sigma->0) =     -282.03893838


--------------------------------------------------------------------------------------------------------




--------------------------------------- Iteration      1(   4)  ---------------------------------------


     EDDAV:  cpu time     10.0426: real time     10.0897
       DOS:  cpu time      0.0013: real time      0.0013
    --------------------------------------------
      LOOP:  cpu time     10.0439: real time     10.0910

 eigenvalue-minimisations  :  8696
 total energy-change (2. order) :-0.7797886E+01  (-0.7708074E+01)
 number of electron     360.0000000 magnetization      72.0000000
 augmentation part      360.0000000 magnetization      72.0000000

 Free energy of the ion-electron system (eV)
  ---------------------------------------------------
  alpha Z        PSCENC =       797.89255314
  Ewald energy   TEWEN  =    -12872.61941397
  -Hartree energ DENC   =     -1106.71846154
  -exchange      EXHF   =         0.00000000
  -V(xc)+E(xc)   XCENC  =      -293.59862415
  PAW double counting   =     10738.42099860    -9719.93139476
  entropy T*S    EENTRO =        -0.00000010
  eigenvalues    EBANDS =      -869.73396122
  atomic energy  EATOM  =     13036.45147835
  Solvation  Ediel_sol  =         0.00000000
  ---------------------------------------------------
  free energy    TOTEN  =      -289.83682565 eV

  energy without entropy =     -289.83682555  energy(sigma->0) =     -289.83682560


--------------------------------------------------------------------------------------------------------




--------------------------------------- Iteration      1(   5)  ---------------------------------------


     EDDAV:  cpu time     10.4738: real time     10.5234
       DOS:  cpu time      0.0011: real time      0.0011
    CHARGE:  cpu time      0.4189: real time      0.4207
    MIXING:  cpu time      0.0071: real time      0.0072
    --------------------------------------------
      LOOP:  cpu time     10.9010: real time     10.9525

 eigenvalue-minimisations  :  9088
 total energy-change (2. order) :-0.2986499E+00  (-0.2978836E+00)
 number of electron     359.9999995 magnetization      48.8116657
 augmentation part      -66.8723768 magnetization      49.0240161

 Broyden mixing:
  rms(total) = 0.29211E+01    rms(broyden)= 0.29211E+01
  rms(prec ) = 0.30736E+01
  weight for this iteration     100.00

 Free energy of the ion-electron system (eV)
  ---------------------------------------------------
  alpha Z        PSCENC =       797.89255314
  Ewald energy   TEWEN  =    -12872.61941397
  -Hartree energ DENC   =     -1106.71846154
  -exchange      EXHF   =         0.00000000
  -V(xc)+E(xc)   XCENC  =      -293.59862415
  PAW double counting   =     10738.42099860    -9719.93139476
  entropy T*S    EENTRO =        -0.00000011
  eigenvalues    EBANDS =      -870.03261115
  atomic energy  EATOM  =     13036.45147835
  Solvation  Ediel_sol  =         0.00000000
  ---------------------------------------------------
  free energy    TOTEN  =      -290.13547559 eV

  energy without entropy =     -290.13547548  energy(sigma->0) =     -290.13547554


--------------------------------------------------------------------------------------------------------




--------------------------------------- Iteration      1(   6)  ---------------------------------------


    POTLOK:  cpu time      0.1355: real time      0.1370
    SETDIJ:  cpu time      0.6050: real time      0.6070
     EDDAV:  cpu time      9.2949: real time      9.3398
       DOS:  cpu time      0.0007: real time      0.0007
    CHARGE:  cpu time      0.4224: real time      0.4239
    MIXING:  cpu time      0.0079: real time      0.0079
    --------------------------------------------
      LOOP:  cpu time     10.4663: real time     10.5162

 eigenvalue-minimisations  :  7912
 total energy-change (2. order) : 0.3323327E+00  (-0.2655975E+01)
 number of electron     359.9999995 magnetization      27.8584143
 augmentation part      -66.2600467 magnetization      29.0398440

 Broyden mixing:
  rms(total) = 0.17326E+01    rms(broyden)= 0.17326E+01
  rms(prec ) = 0.17689E+01
  weight for this iteration     100.00

 eigenvalues of (default mixing * dielectric matrix)
  average eigenvalue GAMMA=   1.0097
  1.0097

 Free energy of the ion-electron system (eV)
  ---------------------------------------------------
  alpha Z        PSCENC =       797.89255314
  Ewald energy   TEWEN  =    -12872.61941397
  -Hartree energ DENC   =     -1160.03933818
  -exchange      EXHF   =         0.00000000
  -V(xc)+E(xc)   XCENC  =      -287.10464413
  PAW double counting   =     13028.80099767   -12013.82122489
  entropy T*S    EENTRO =        -0.00000003
  eigenvalues    EBANDS =      -819.36355082
  atomic energy  EATOM  =     13036.45147835
  Solvation  Ediel_sol  =         0.00000000
  ---------------------------------------------------
  free energy    TOTEN  =      -289.80314285 eV

  energy without entropy =     -289.80314283  energy(sigma->0) =     -289.80314284


--------------------------------------------------------------------------------------------------------




--------------------------------------- Iteration      1(   7)  ---------------------------------------


    POTLOK:  cpu time      0.1308: real time      0.1316
    SETDIJ:  cpu time      0.6057: real time      0.6074
     EDDAV:  cpu time      9.4077: real time      9.4532
       DOS:  cpu time      0.0007: real time      0.0007
    CHARGE:  cpu time      0.4234: real time      0.4250
    MIXING:  cpu time      0.0075: real time      0.0075
    --------------------------------------------
      LOOP:  cpu time     10.5757: real time     10.6253

 eigenvalue-minimisations  :  8016
 total energy-change (2. order) :-0.7343277E+01  (-0.8656780E+00)
 number of electron     359.9999995 magnetization       9.1737095
 augmentation part      -66.2390615 magnetization       9.8505764

 Broyden mixing:
  rms(total) = 0.90929E+00    rms(broyden)= 0.90929E+00
  rms(prec ) = 0.92500E+00
  weight for this iteration     100.00

 eigenvalues of (default mixing * dielectric matrix)
  average eigenvalue GAMMA=   1.4546
  0.8621  2.0471

 Free energy of the ion-electron system (eV)
  ---------------------------------------------------
  alpha Z        PSCENC =       797.89255314
  Ewald energy   TEWEN  =    -12872.61941397
  -Hartree energ DENC   =     -1177.37324148
  -exchange      EXHF   =         0.00000000
  -V(xc)+E(xc)   XCENC  =      -290.01850799
  PAW double counting   =     15137.64151186   -14124.29070604
  entropy T*S    EENTRO =        -0.00000000
  eigenvalues    EBANDS =      -804.83009372
  atomic energy  EATOM  =     13036.45147835
  Solvation  Ediel_sol  =         0.00000000
  ---------------------------------------------------
  free energy    TOTEN  =      -297.14641984 eV

  energy without entropy =     -297.14641984  energy(sigma->0) =     -297.14641984


--------------------------------------------------------------------------------------------------------




--------------------------------------- Iteration      1(   8)  ---------------------------------------


    POTLOK:  cpu time      0.1326: real time      0.1332
    SETDIJ:  cpu time      0.6034: real time      0.6052
     EDDAV:  cpu time      9.5524: real time      9.6022
       DOS:  cpu time      0.0008: real time      0.0008
    CHARGE:  cpu time      0.4204: real time      0.4222
    MIXING:  cpu time      0.0079: real time      0.0079
    --------------------------------------------
      LOOP:  cpu time     10.7175: real time     10.7716

 eigenvalue-minimisations  :  8176
 total energy-change (2. order) :-0.3216608E+01  (-0.1742869E+00)
 number of electron     359.9999995 magnetization       4.4079841
 augmentation part      -66.2452233 magnetization       4.7157036

 Broyden mixing:
  rms(total) = 0.33092E+00    rms(broyden)= 0.33092E+00
  rms(prec ) = 0.33647E+00
  weight for this iteration     100.00

 eigenvalues of (default mixing * dielectric matrix)
  average eigenvalue GAMMA=   1.3586
  2.4988  0.9251  0.6519

 Free energy of the ion-electron system (eV)
  ---------------------------------------------------
  alpha Z        PSCENC =       797.89255314
  Ewald energy   TEWEN  =    -12872.61941397
  -Hartree energ DENC   =     -1182.12837537
  -exchange      EXHF   =         0.00000000
  -V(xc)+E(xc)   XCENC  =      -289.71670307
  PAW double counting   =     16917.30197896   -15904.89055200
  entropy T*S    EENTRO =        -0.00000000
  eigenvalues    EBANDS =      -802.65399415
  atomic energy  EATOM  =     13036.45147835
  Solvation  Ediel_sol  =         0.00000000
  ---------------------------------------------------
  free energy    TOTEN  =      -300.36302810 eV

  energy without entropy =     -300.36302810  energy(sigma->0) =     -300.36302810


--------------------------------------------------------------------------------------------------------




--------------------------------------- Iteration      1(   9)  ---------------------------------------


    POTLOK:  cpu time      0.1304: real time      0.1311
    SETDIJ:  cpu time      0.6050: real time      0.6070
     EDDAV:  cpu time     10.4230: real time     10.4774
       DOS:  cpu time      0.0011: real time      0.0011
    CHARGE:  cpu time      0.4183: real time      0.4197
    MIXING:  cpu time      0.0076: real time      0.0076
    --------------------------------------------
      LOOP:  cpu time     11.5854: real time     11.6439

 eigenvalue-minimisations  :  9080
 total energy-change (2. order) :-0.3723734E+00  (-0.4200274E-01)
 number of electron     359.9999995 magnetization       2.2811590
 augmentation part      -66.2854471 magnetization       2.4355416

 Broyden mixing:
  rms(total) = 0.14851E+00    rms(broyden)= 0.14851E+00
  rms(prec ) = 0.15007E+00
  weight for this iteration     100.00

 eigenvalues of (default mixing * dielectric matrix)
  average eigenvalue GAMMA=   1.3304
  2.6323  1.2382  0.8325  0.6188

 Free energy of the ion-electron system (eV)
  ---------------------------------------------------
  alpha Z        PSCENC =       797.89255314
  Ewald energy   TEWEN  =    -12872.61941397
  -Hartree energ DENC   =     -1180.96298201
  -exchange      EXHF   =         0.00000000
  -V(xc)+E(xc)   XCENC  =      -289.76966167
  PAW double counting   =     17198.95531762   -16186.87574510
  entropy T*S    EENTRO =        -0.00000000
  eigenvalues    EBANDS =      -803.80694787
  atomic energy  EATOM  =     13036.45147835
  Solvation  Ediel_sol  =         0.00000000
  ---------------------------------------------------
  free energy    TOTEN  =      -300.73540151 eV

  energy without entropy =     -300.73540151  energy(sigma->0) =     -300.73540151


--------------------------------------------------------------------------------------------------------




--------------------------------------- Iteration      1(  10)  ---------------------------------------


    POTLOK:  cpu time      0.1298: real time      0.1307
    SETDIJ:  cpu time      0.6073: real time      0.6092
     EDDAV:  cpu time      9.4753: real time      9.5213
       DOS:  cpu time      0.0009: real time      0.0009
    CHARGE:  cpu time      0.4201: real time      0.4216
    MIXING:  cpu time      0.0076: real time      0.0076
    --------------------------------------------
      LOOP:  cpu time     10.6410: real time     10.6912

 eigenvalue-minimisations  :  8120
 total energy-change (2. order) :-0.1079451E+00  (-0.9940240E-02)
 number of electron     359.9999995 magnetization       0.7523907
 augmentation part      -66.2893075 magnetization       0.8198232

 Broyden mixing:
  rms(total) = 0.72969E-01    rms(broyden)= 0.72969E-01
  rms(prec ) = 0.74027E-01
  weight for this iteration     100.00

 eigenvalues of (default mixing * dielectric matrix)
  average eigenvalue GAMMA=   1.3766
  2.6998  1.7636  0.9722  0.8218  0.6257

 Free energy of the ion-electron system (eV)
  ---------------------------------------------------
  alpha Z        PSCENC =       797.89255314
  Ewald energy   TEWEN  =    -12872.61941397
  -Hartree energ DENC   =     -1181.05047085
  -exchange      EXHF   =         0.00000000
  -V(xc)+E(xc)   XCENC  =      -289.77205385
  PAW double counting   =     17208.90330695   -16196.83336408
  entropy T*S    EENTRO =        -0.00000000
  eigenvalues    EBANDS =      -803.81538234
  atomic energy  EATOM  =     13036.45147835
  Solvation  Ediel_sol  =         0.00000000
  ---------------------------------------------------
  free energy    TOTEN  =      -300.84334664 eV

  energy without entropy =     -300.84334664  energy(sigma->0) =     -300.84334664


--------------------------------------------------------------------------------------------------------




--------------------------------------- Iteration      1(  11)  ---------------------------------------


    POTLOK:  cpu time      0.1324: real time      0.1331
    SETDIJ:  cpu time      0.6033: real time      0.6053
     EDDAV:  cpu time     10.3259: real time     10.3768
       DOS:  cpu time      0.0031: real time      0.0032
    CHARGE:  cpu time      0.4179: real time      0.4197
    MIXING:  cpu time      0.0078: real time      0.0078
    --------------------------------------------
      LOOP:  cpu time     11.4905: real time     11.5459

 eigenvalue-minimisations  :  8912
 total energy-change (2. order) :-0.3090237E-01  (-0.3440795E-02)
 number of electron     359.9999995 magnetization       0.1783449
 augmentation part      -66.2742996 magnetization       0.1979307

 Broyden mixing:
  rms(total) = 0.28556E-01    rms(broyden)= 0.28556E-01
  rms(prec ) = 0.28946E-01
  weight for this iteration     100.00

 eigenvalues of (default mixing * dielectric matrix)
  average eigenvalue GAMMA=   1.4064
  2.9056  2.1722  1.1791  0.8563  0.7000  0.6254

 Free energy of the ion-electron system (eV)
  ---------------------------------------------------
  alpha Z        PSCENC =       797.89255314
  Ewald energy   TEWEN  =    -12872.61941397
  -Hartree energ DENC   =     -1182.18390556
  -exchange      EXHF   =         0.00000000
  -V(xc)+E(xc)   XCENC  =      -289.72848269
  PAW double counting   =     17132.71325624   -16120.61734666
  entropy T*S    EENTRO =        -0.00000000
  eigenvalues    EBANDS =      -802.78238786
  atomic energy  EATOM  =     13036.45147835
  Solvation  Ediel_sol  =         0.00000000
  ---------------------------------------------------
  free energy    TOTEN  =      -300.87424901 eV

  energy without entropy =     -300.87424901  energy(sigma->0) =     -300.87424901


--------------------------------------------------------------------------------------------------------




--------------------------------------- Iteration      1(  12)  ---------------------------------------


    POTLOK:  cpu time      0.1308: real time      0.1333
    SETDIJ:  cpu time      0.6041: real time      0.6058
     EDDAV:  cpu time      9.9082: real time      9.9584
       DOS:  cpu time      0.0008: real time      0.0008
    CHARGE:  cpu time      0.4213: real time      0.4231
    MIXING:  cpu time      0.0079: real time      0.0079
    --------------------------------------------
      LOOP:  cpu time     11.0731: real time     11.1293

 eigenvalue-minimisations  :  8544
 total energy-change (2. order) :-0.3439235E-02  (-0.4601031E-03)
 number of electron     359.9999995 magnetization       0.0547268
 augmentation part      -66.2735472 magnetization       0.0591620

 Broyden mixing:
  rms(total) = 0.10370E-01    rms(broyden)= 0.10370E-01
  rms(prec ) = 0.10931E-01
  weight for this iteration     100.00

 eigenvalues of (default mixing * dielectric matrix)
  average eigenvalue GAMMA=   1.3730
  3.0153  2.3331  1.2189  0.8902  0.8902  0.6102  0.6533

 Free energy of the ion-electron system (eV)
  ---------------------------------------------------
  alpha Z        PSCENC =       797.89255314
  Ewald energy   TEWEN  =    -12872.61941397
  -Hartree energ DENC   =     -1182.30166670
  -exchange      EXHF   =         0.00000000
  -V(xc)+E(xc)   XCENC  =      -289.72928745
  PAW double counting   =     17096.68954857   -16084.57112940
  entropy T*S    EENTRO =        -0.00000000
  eigenvalues    EBANDS =      -802.68977079
  atomic energy  EATOM  =     13036.45147835
  Solvation  Ediel_sol  =         0.00000000
  ---------------------------------------------------
  free energy    TOTEN  =      -300.87768825 eV

  energy without entropy =     -300.87768825  energy(sigma->0) =     -300.87768825


--------------------------------------------------------------------------------------------------------




--------------------------------------- Iteration      1(  13)  ---------------------------------------


    POTLOK:  cpu time      0.1299: real time      0.1306
    SETDIJ:  cpu time      0.6052: real time      0.6070
     EDDAV:  cpu time     11.0856: real time     11.1379
       DOS:  cpu time      0.0008: real time      0.0008
    CHARGE:  cpu time      0.4206: real time      0.4221
    MIXING:  cpu time      0.0093: real time      0.0093
    --------------------------------------------
      LOOP:  cpu time     12.2513: real time     12.3077

 eigenvalue-minimisations  :  9824
 total energy-change (2. order) :-0.1217607E-03  (-0.5652347E-04)
 number of electron     359.9999995 magnetization       0.0136223
 augmentation part      -66.2751727 magnetization       0.0144067

 Broyden mixing:
  rms(total) = 0.40593E-02    rms(broyden)= 0.40593E-02
  rms(prec ) = 0.42475E-02
  weight for this iteration     100.00

 eigenvalues of (default mixing * dielectric matrix)
  average eigenvalue GAMMA=   1.3495
  3.0629  2.4327  1.1064  1.1064  0.9739  0.8568  0.6483  0.6082

 Free energy of the ion-electron system (eV)
  ---------------------------------------------------
  alpha Z        PSCENC =       797.89255314
  Ewald energy   TEWEN  =    -12872.61941397
  -Hartree energ DENC   =     -1182.19222788
  -exchange      EXHF   =         0.00000000
  -V(xc)+E(xc)   XCENC  =      -289.74003725
  PAW double counting   =     17082.92315172   -16070.79331494
  entropy T*S    EENTRO =        -0.00000000
  eigenvalues    EBANDS =      -802.79999918
  atomic energy  EATOM  =     13036.45147835
  Solvation  Ediel_sol  =         0.00000000
  ---------------------------------------------------
  free energy    TOTEN  =      -300.87781001 eV

  energy without entropy =     -300.87781001  energy(sigma->0) =     -300.87781001


--------------------------------------------------------------------------------------------------------




--------------------------------------- Iteration      1(  14)  ---------------------------------------


    POTLOK:  cpu time      0.1302: real time      0.1309
    SETDIJ:  cpu time      0.6050: real time      0.6069
     EDDAV:  cpu time      9.7295: real time      9.7756
       DOS:  cpu time      0.0009: real time      0.0009
    CHARGE:  cpu time      0.4165: real time      0.4179
    MIXING:  cpu time      0.0082: real time      0.0083
    --------------------------------------------
      LOOP:  cpu time     10.8904: real time     10.9405

 eigenvalue-minimisations  :  8280
 total energy-change (2. order) :-0.1418692E-04  (-0.8187693E-05)
 number of electron     359.9999995 magnetization       0.0045831
 augmentation part      -66.2748530 magnetization       0.0048889

 Broyden mixing:
  rms(total) = 0.15776E-02    rms(broyden)= 0.15776E-02
  rms(prec ) = 0.16807E-02
  weight for this iteration     100.00

 eigenvalues of (default mixing * dielectric matrix)
  average eigenvalue GAMMA=   1.3345
  3.0853  2.4639  1.4689  1.2031  0.8837  0.8837  0.7688  0.6105  0.6431

 Free energy of the ion-electron system (eV)
  ---------------------------------------------------
  alpha Z        PSCENC =       797.89255314
  Ewald energy   TEWEN  =    -12872.61941397
  -Hartree energ DENC   =     -1182.19150783
  -exchange      EXHF   =         0.00000000
  -V(xc)+E(xc)   XCENC  =      -289.74104462
  PAW double counting   =     17078.51623636   -16066.38345606
  entropy T*S    EENTRO =        -0.00000000
  eigenvalues    EBANDS =      -802.80266957
  atomic energy  EATOM  =     13036.45147835
  Solvation  Ediel_sol  =         0.00000000
  ---------------------------------------------------
  free energy    TOTEN  =      -300.87782419 eV

  energy without entropy =     -300.87782419  energy(sigma->0) =     -300.87782419


--------------------------------------------------------------------------------------------------------




--------------------------------------- Iteration      1(  15)  ---------------------------------------


    POTLOK:  cpu time      0.1297: real time      0.1303
    SETDIJ:  cpu time      0.6052: real time      0.6071
     EDDAV:  cpu time      9.9264: real time      9.9857
       DOS:  cpu time      0.0007: real time      0.0007
    CHARGE:  cpu time      0.4184: real time      0.4199
    MIXING:  cpu time      0.0087: real time      0.0087
    --------------------------------------------
      LOOP:  cpu time     11.0890: real time     11.1525

 eigenvalue-minimisations  :  8592
 total energy-change (2. order) :-0.2750187E-05  (-0.1327377E-05)
 number of electron     359.9999995 magnetization       0.0018210
 augmentation part      -66.2749749 magnetization       0.0020254

 Broyden mixing:
  rms(total) = 0.76472E-03    rms(broyden)= 0.76472E-03
  rms(prec ) = 0.80854E-03
  weight for this iteration     100.00

 eigenvalues of (default mixing * dielectric matrix)
  average eigenvalue GAMMA=   1.3015
  3.0933  2.4372  1.6927  1.1287  0.9485  0.9485  0.8189  0.7075  0.6200  0.6200

 Free energy of the ion-electron system (eV)
  ---------------------------------------------------
  alpha Z        PSCENC =       797.89255314
  Ewald energy   TEWEN  =    -12872.61941397
  -Hartree energ DENC   =     -1182.17987178
  -exchange      EXHF   =         0.00000000
  -V(xc)+E(xc)   XCENC  =      -289.74136343
  PAW double counting   =     17078.21237069   -16066.07893996
  entropy T*S    EENTRO =        -0.00000000
  eigenvalues    EBANDS =      -802.81463999
  atomic energy  EATOM  =     13036.45147835
  Solvation  Ediel_sol  =         0.00000000
  ---------------------------------------------------
  free energy    TOTEN  =      -300.87782694 eV

  energy without entropy =     -300.87782694  energy(sigma->0) =     -300.87782694


--------------------------------------------------------------------------------------------------------




--------------------------------------- Iteration      1(  16)  ---------------------------------------


    POTLOK:  cpu time      0.1302: real time      0.1309
    SETDIJ:  cpu time      0.6057: real time      0.6076
     EDDAV:  cpu time      6.6406: real time      6.6728
       DOS:  cpu time      0.0009: real time      0.0009
    --------------------------------------------
      LOOP:  cpu time      7.3775: real time      7.4123

 eigenvalue-minimisations  :  4784
 total energy-change (2. order) :-0.7014276E-06  (-0.1363928E-06)
 number of electron     359.9999995 magnetization       0.0018210
 augmentation part      -66.2749749 magnetization       0.0020254

 Free energy of the ion-electron system (eV)
  ---------------------------------------------------
  alpha Z        PSCENC =       797.89255314
  Ewald energy   TEWEN  =    -12872.61941397
  -Hartree energ DENC   =     -1182.17406064
  -exchange      EXHF   =         0.00000000
  -V(xc)+E(xc)   XCENC  =      -289.74157406
  PAW double counting   =     17078.23631775   -16066.10268748
  entropy T*S    EENTRO =        -0.00000000
  eigenvalues    EBANDS =      -802.82044074
  atomic energy  EATOM  =     13036.45147835
  Solvation  Ediel_sol  =         0.00000000
  ---------------------------------------------------
  free energy    TOTEN  =      -300.87782764 eV

  energy without entropy =     -300.87782764  energy(sigma->0) =     -300.87782764


--------------------------------------------------------------------------------------------------------




 average (electrostatic) potential at core
  the test charge radii are     1.1631  1.0808
  (the norm of the test charge is              1.0000)
       1 -33.4283       2 -33.4845       3 -33.3203       4 -33.5789       5 -33.4125
       6 -33.3814       7 -33.3446       8 -33.3491       9 -33.2801      10 -33.3129
      11 -33.5131      12 -33.5074      13 -33.2540      14 -33.5266      15 -33.4191
      16 -33.5895      17 -33.4241      18 -33.4205      19 -33.4735      20 -33.5947
      21 -33.4921      22 -33.5395      23 -33.3842      24 -33.5561      25 -33.3413
      26 -33.5857      27 -33.5165      28 -33.7252      29 -33.3038      30 -33.4193
      31 -33.5497      32 -33.3820      33 -33.4068      34 -33.4680      35 -33.5071
      36 -33.5564      37 -54.8054      38 -54.6333      39 -54.9700      40 -54.8622
      41 -54.7077      42 -54.9240      43 -54.7054      44 -54.7761      45 -54.9061
      46 -54.7891      47 -54.5627      48 -54.8893      49 -54.8037      50 -54.8782
      51 -54.9241      52 -55.0069      53 -54.8862      54 -54.6848      55 -54.7856
      56 -54.8530      57 -54.7893      58 -54.8137      59 -55.0655      60 -54.9176
      61 -54.6632      62 -55.0157      63 -54.7994      64 -55.0036      65 -54.8078
      66 -54.8554      67 -54.7618      68 -54.9438      69 -54.8721      70 -54.8618
      71 -54.6522      72 -54.7402
 
 
 
 E-fermi :   3.4913     XC(G=0):  -9.3794     alpha+bet : -8.8320

 Fermi energy:         3.4912802797

 spin component 1

 k-point     1 :       0.0000    0.0000    0.0000
  band No.  band energies     occupation 
      1     -10.8936      1.00000
      2     -10.5283      1.00000
      3     -10.4127      1.00000
      4     -10.3508      1.00000
      5     -10.2944      1.00000
      6     -10.2558      1.00000
      7     -10.1128      1.00000
      8     -10.0255      1.00000
      9     -10.0031      1.00000
     10      -9.9398      1.00000
     11      -9.9169      1.00000
     12      -9.8571      1.00000
     13      -9.8147      1.00000
     14      -9.7455      1.00000
     15      -9.7151      1.00000
     16      -9.6473      1.00000
     17      -9.5832      1.00000
     18      -9.5551      1.00000
     19      -9.5176      1.00000
     20      -9.4768      1.00000
     21      -9.4627      1.00000
     22      -9.4525      1.00000
     23      -9.3948      1.00000
     24      -9.3432      1.00000
     25      -9.3204      1.00000
     26      -9.2576      1.00000
     27      -9.2277      1.00000
     28      -9.2042      1.00000
     29      -9.1458      1.00000
     30      -9.1441      1.00000
     31      -9.0860      1.00000
     32      -9.0706      1.00000
     33      -9.0533      1.00000
     34      -8.9848      1.00000
     35      -8.9516      1.00000
     36      -8.8777      1.00000
     37      -5.4021      1.00000
     38      -5.3095      1.00000
     39      -5.2675      1.00000
     40      -5.2290      1.00000
     41      -5.0316      1.00000
     42      -5.0040      1.00000
     43      -4.9663      1.00000
     44      -4.9411      1.00000
     45      -4.7903      1.00000
     46      -4.7694      1.00000
     47      -4.5581      1.00000
     48      -4.5131      1.00000
     49      -4.4531      1.00000
     50      -4.4422      1.00000
     51      -4.4232      1.00000
     52      -4.4048      1.00000
     53      -4.3505      1.00000
     54      -4.3288      1.00000
     55      -4.2963      1.00000
     56      -4.2562      1.00000
     57      -4.2406      1.00000
     58      -4.2223      1.00000
     59      -4.1752      1.00000
     60      -4.1409      1.00000
     61      -4.0900      1.00000
     62      -4.0253      1.00000
     63      -4.0047      1.00000
     64      -3.9382      1.00000
     65      -3.8215      1.00000
     66      -3.7901      1.00000
     67      -3.6876      1.00000
     68      -3.6595      1.00000
     69      -3.5295      1.00000
     70      -3.4923      1.00000
     71      -2.4819      1.00000
     72      -2.3677      1.00000
     73      -1.8371      1.00000
     74      -1.6251      1.00000
     75      -1.5946      1.00000
     76      -1.5526      1.00000
     77      -1.4630      1.00000
     78      -1.4226      1.00000
     79      -1.3549      1.00000
     80      -1.2435      1.00000
     81      -1.1996      1.00000
     82      -1.1632      1.00000
     83      -1.1026      1.00000
     84      -1.0862      1.00000
     85      -1.0595      1.00000
     86      -0.8341      1.00000
     87      -0.8016      1.00000
     88      -0.7926      1.00000
     89      -0.6965      1.00000
     90      -0.5863      1.00000
     91      -0.5653      1.00000
     92      -0.4599      1.00000
     93      -0.4241      1.00000
     94      -0.3062      1.00000
     95      -0.1804      1.00000
     96      -0.0904      1.00000
     97      -0.0761      1.00000
     98      -0.0168      1.00000
     99       0.0170      1.00000
    100       0.0537      1.00000
    101       0.1028      1.00000
    102       0.1379      1.00000
    103       0.1972      1.00000
    104       0.2330      1.00000
    105       0.2604      1.00000
    106       0.2957      1.00000
    107       0.3294      1.00000
    108       0.3699      1.00000
    109       0.3908      1.00000
    110       0.4203      1.00000
    111       0.4369      1.00000
    112       0.5138      1.00000
    113       0.5479      1.00000
    114       0.5988      1.00000
    115       0.6350      1.00000
    116       0.6774      1.00000
    117       0.6995      1.00000
    118       0.7550      1.00000
    119       0.7785      1.00000
    120       0.8208      1.00000
    121       0.8475      1.00000
    122       0.8630      1.00000
    123       0.8917      1.00000
    124       0.9407      1.00000
    125       0.9528      1.00000
    126       0.9779      1.00000
    127       1.0243      1.00000
    128       1.0766      1.00000
    129       1.1557      1.00000
    130       1.1825      1.00000
    131       1.2002      1.00000
    132       1.2334      1.00000
    133       1.2869      1.00000
    134       1.3047      1.00000
    135       1.3407      1.00000
    136       1.3486      1.00000
    137       1.3758      1.00000
    138       1.4358      1.00000
    139       1.4805      1.00000
    140       1.4981      1.00000
    141       1.5281      1.00000
    142       1.5841      1.00000
    143       1.6594      1.00000
    144       1.6979      1.00000
    145       1.7380      1.00000
    146       1.7607      1.00000
    147       1.8105      1.00000
    148       1.8352      1.00000
    149       1.8615      1.00000
[...]
   -.476E+01 -.451E+01 -.227E+02   0.554E+01 0.616E+01 0.251E+02   -.399E+00 -.195E+01 -.277E+01   0.384E-04 -.415E-05 -.899E-04
   0.583E+01 0.514E+01 0.137E+02   -.638E+01 -.647E+01 -.160E+02   0.423E+00 0.137E+01 0.264E+01   0.170E-03 -.563E-04 -.252E-04
   -.142E+02 -.236E+01 0.253E+02   0.152E+02 0.221E+01 -.273E+02   -.843E+00 0.156E+00 0.190E+01   0.353E-03 0.176E-03 -.930E-04
   -.940E+01 -.482E+01 0.446E+02   0.103E+02 0.517E+01 -.468E+02   -.119E+01 -.580E+00 0.175E+01   0.358E-04 0.909E-04 0.226E-03
   0.496E+01 0.702E+01 0.275E+02   -.520E+01 -.800E+01 -.293E+02   0.166E-01 0.144E+01 0.175E+01   -.174E-04 -.582E-04 0.109E-03
   0.640E+00 0.828E+01 0.418E+02   -.776E+00 -.946E+01 -.440E+02   0.144E+00 0.102E+01 0.118E+01   -.737E-04 0.905E-05 0.248E-04
   -.864E+01 0.155E+02 0.365E+02   0.928E+01 -.168E+02 -.381E+02   -.422E+00 0.132E+01 0.145E+01   -.474E-03 0.120E-03 -.713E-04
   -.104E+02 -.333E+01 0.283E+02   0.114E+02 0.338E+01 -.302E+02   -.813E+00 -.181E+00 0.224E+01   -.246E-03 -.143E-03 0.170E-03
   0.465E+01 0.167E+02 0.368E+02   -.493E+01 -.176E+02 -.386E+02   0.883E-02 0.131E+01 0.222E+01   0.254E-03 -.663E-04 0.249E-04
   -.464E+01 -.159E+02 -.249E+02   0.515E+01 0.170E+02 0.263E+02   -.360E+00 -.798E+00 -.197E+01   0.126E-03 0.851E-04 0.314E-03
   -.691E+01 -.218E+01 -.357E+02   0.709E+01 0.265E+01 0.379E+02   -.300E-01 -.332E+00 -.199E+01   -.160E-03 -.160E-04 0.127E-03
   -.269E+00 -.256E+02 -.314E+02   0.346E+00 0.276E+02 0.331E+02   0.486E+00 -.110E+01 -.173E+01   0.105E-03 -.652E-04 0.251E-03
   -.157E+01 0.247E+00 -.242E+02   0.123E+01 0.211E+00 0.260E+02   0.325E+00 -.613E+00 -.200E+01   -.650E-04 -.240E-04 -.533E-04
   0.138E+01 -.182E+02 -.342E+02   -.123E+01 0.198E+02 0.358E+02   0.132E+00 -.136E+01 -.151E+01   -.383E-04 0.125E-03 0.155E-03
   0.859E+01 0.400E+01 -.292E+02   -.903E+01 -.373E+01 0.310E+02   0.343E+00 -.438E+00 -.199E+01   0.138E-03 -.787E-04 0.435E-04
   -.650E+01 -.144E+02 -.848E+01   0.684E+01 0.155E+02 0.955E+01   -.334E+00 -.900E+00 -.198E+01   -.110E-03 -.748E-04 0.295E-03
   -.251E+01 0.223E+02 0.366E+02   0.273E+01 -.241E+02 -.385E+02   0.436E+00 0.752E+00 0.174E+01   -.383E-03 -.394E-06 -.131E-03
   -.986E+01 0.390E+01 0.273E+02   0.102E+02 -.465E+01 -.292E+02   -.155E+00 0.894E+00 0.215E+01   0.217E-03 0.424E-04 -.184E-04
   -.323E+01 -.152E+02 0.338E+02   0.314E+01 0.163E+02 -.361E+02   0.502E+00 -.104E+01 0.183E+01   0.476E-03 -.844E-04 -.956E-05
   -.357E+00 0.108E+01 0.207E+02   0.447E+00 -.807E+00 -.225E+02   -.498E+00 -.552E+00 0.186E+01   -.465E-04 -.120E-03 -.108E-03
   0.140E+02 -.107E+02 0.289E+02   -.144E+02 0.116E+02 -.310E+02   0.459E-01 -.762E+00 0.176E+01   0.375E-03 -.186E-03 0.138E-03
   -.153E+02 -.172E+01 -.346E+02   0.163E+02 0.239E+01 0.365E+02   -.355E+00 -.259E+00 -.160E+01   -.243E-03 -.149E-03 0.441E-04
   0.431E+00 -.508E+01 -.313E+02   0.189E+00 0.554E+01 0.333E+02   -.113E+01 -.686E+00 -.135E+01   0.202E-03 -.167E-03 -.318E-03
   0.786E+01 0.671E+01 -.259E+02   -.826E+01 -.759E+01 0.280E+02   0.156E+00 0.122E+01 -.208E+01   0.162E-03 0.107E-03 -.318E-03
   0.543E+01 0.117E+02 -.303E+02   -.551E+01 -.128E+02 0.327E+02   -.756E-01 0.935E+00 -.157E+01   -.131E-03 0.933E-04 0.182E-03
   0.470E+01 0.453E+01 -.218E+02   -.524E+01 -.529E+01 0.235E+02   0.309E+00 0.911E+00 -.182E+01   -.199E-03 0.135E-03 0.166E-03
   -.161E+02 -.114E+02 -.218E+02   0.171E+02 0.118E+02 0.236E+02   -.961E+00 0.108E+00 -.171E+01   0.727E-04 -.937E-04 -.228E-03
   0.623E+01 0.187E+02 -.203E+02   -.642E+01 -.199E+02 0.220E+02   0.706E-01 0.124E+01 -.166E+01   -.445E-04 0.763E-04 -.910E-04
   -.900E+01 0.157E+02 -.226E+02   0.910E+01 -.171E+02 0.241E+02   0.220E-01 0.142E+01 -.141E+01   -.359E-04 0.373E-04 -.768E-04
   0.867E+00 0.179E+02 -.225E+02   -.986E+00 -.188E+02 0.243E+02   0.309E+00 0.119E+01 -.217E+01   -.255E-03 0.407E-05 0.176E-03
   -.183E+02 -.230E+02 -.251E+02   0.193E+02 0.240E+02 0.269E+02   -.110E+01 -.473E+00 -.178E+01   0.218E-04 0.231E-04 -.177E-03
   0.100E+02 -.202E+02 0.589E+01   -.105E+02 0.217E+02 -.719E+01   0.197E+00 -.873E+00 0.179E+01   0.272E-03 -.523E-04 0.295E-04
   0.296E+01 -.618E+01 0.209E+02   -.298E+01 0.722E+01 -.224E+02   0.239E+00 -.957E+00 0.163E+01   -.483E-03 0.169E-03 0.427E-04
   -.138E+01 -.203E+02 0.140E+02   0.131E+01 0.216E+02 -.159E+02   -.161E-02 -.116E+01 0.166E+01   -.248E-03 0.309E-03 0.869E-04
   0.337E+01 -.627E+01 0.165E+02   -.351E+01 0.691E+01 -.182E+02   0.569E-01 -.940E+00 0.237E+01   -.836E-05 -.433E-03 -.124E-03
   -.327E+01 0.751E+01 0.101E+02   0.372E+01 -.750E+01 -.116E+02   -.451E+00 -.346E+00 0.195E+01   0.632E-05 0.178E-03 0.758E-04
   -.611E+01 0.142E+01 0.162E+02   0.623E+01 -.898E+00 -.178E+02   -.632E+00 -.807E+00 0.164E+01   -.237E-03 0.204E-03 0.186E-03
   0.218E+02 -.140E+02 -.233E+02   -.228E+02 0.151E+02 0.251E+02   -.173E+00 -.566E+00 -.214E+01   0.164E-03 -.764E-04 -.967E-04
 -----------------------------------------------------------------------------------------------
   -.521E+01 -.474E+01 0.110E-01   -.533E-13 0.782E-13 0.107E-12   0.521E+01 0.474E+01 -.123E-01   -.183E-03 -.208E-03 0.111E-02
 
 
 POSITION                                       TOTAL-FORCE (eV/Angst)
 -----------------------------------------------------------------------------------
      0.94510      0.59630      1.52883         0.410674     -0.048074     -0.405908
      3.14414     11.02885      4.19208        -0.384467     -0.313764     -0.263631
      7.05297      2.76320      4.02920        -0.478037     -0.408633      0.315692
      7.00030      6.73531      3.97282         0.133670      0.061762     -0.324568
      7.14940     11.05434      4.08707        -0.321194     -0.433677     -0.152647
     11.28940      2.39955      3.88116        -0.436056     -0.275643      0.430113
     11.04671      6.59417      4.19116         1.018918     -0.177758     -0.388276
     11.35073     10.92804      3.94654        -0.203706     -0.200277      0.577157
      1.01831      1.99087      6.97640        -0.271735      0.840388     -0.511128
      0.77648      6.02648      7.11485         0.068757     -0.292464     -0.283852
      1.02144     10.20934      7.11224         0.041559     -0.191789     -1.071991
      5.04467      1.94737      6.95604         0.191104      0.205497      0.064980
      5.43156      6.14627      7.03023        -0.430913      0.016124     -0.040393
      4.95465     10.06951      6.93239        -0.033616     -0.030980     -0.154632
      9.19428      1.70899      6.89738        -0.158002      0.136870      0.082639
      9.27900      6.34555      7.14687         0.044505     -0.743652      0.032289
      2.98800      6.93622      4.16303        -0.342330     -0.158408     -0.229625
      2.94474      2.75158      3.99690         0.332220     -0.287661     -0.005310
      9.30398     10.28805      6.98712         0.126335      0.106995      0.061015
     11.28624      8.31929      9.66655         0.083285     -0.464662     -0.041022
     11.67692      0.03001      9.66025        -0.181005      0.217189      0.000001
      0.97337      4.53195      1.27934        -0.259331      0.114133      0.225058
      0.83017      8.96911      1.47739         0.014835     -0.273620      0.258737
      5.19001      0.37939      1.30457        -0.285400      0.266048      0.259981
      4.88861      4.99188      1.41222         0.603318     -0.718732     -0.023072
      8.93934      0.41171      1.39236         0.423403     -0.011480      0.381414
      9.01868      4.75447      1.39007         0.317990      0.338866     -0.289915
      5.00729      8.89199      1.34978        -0.014014      0.256238      0.606952
      3.06679      4.05714      9.49837         0.185232      0.124444      0.280479
      2.88627      8.07797      9.54181         0.190474     -0.552031      0.273084
      3.11571     12.38017      9.66497         0.041323      0.115118      0.096371
      7.09310      3.87665      9.78165         0.151059      0.105107     -0.021704
      7.33522      8.31427      9.56978        -0.248778     -0.067271     -0.086300
      6.94737     12.25300      9.61013         0.257952     -0.223755      0.628339
     10.93587      4.00802      9.59948         0.377870     -0.292681     -0.374126
      9.31892      8.73572      1.51942        -0.123865      0.042296      0.304666
     11.01817     12.41031      7.17387         0.170511      0.004617     -0.067144
      2.79571      4.25884      7.04334        -0.263368     -0.221164     -0.414236
      2.95920      8.29493      7.03609        -0.223126      0.459813      0.028144
      7.02243      0.17080      7.21998         0.008547     -0.161163     -1.003480
      7.24980      4.40773      7.28833         0.216313      0.100294     -0.216121
      6.96097      8.39616      6.98163         0.130263     -0.133363      0.287509
     11.15154      4.31605      7.02162        -0.265497      0.399241      0.444387
      9.13972      0.08340      4.06057         0.157147      0.302433     -0.537444
      0.89895      0.17254      3.99463         0.153518      0.133772      0.187545
      0.73865      4.04749      3.82963         0.562822      0.918132     -0.044388
      0.85672      8.52841      4.02327        -0.014077     -0.153886     -0.181079
      5.04460      0.15016      3.86687         0.274740      0.284688      0.051345
      5.10604      4.56809      4.00777        -0.105583     -0.165966     -0.163533
      5.01087      8.51615      4.11250         0.010628      0.141178     -0.916578
      2.92879      0.43534      7.15874         0.659070     -1.029188     -0.139913
     11.27975      8.51162      7.10056         0.139834      0.149556      0.235548
     11.11163     10.63159      1.50325         0.417477      0.048711     -0.445460
      3.17467      2.35201      1.49924        -0.408096     -0.275669      0.021711
     11.24925      2.08985      1.43429        -0.357607      0.116661     -0.338172
      8.97953      4.30005      3.83847         0.735594      0.410443      0.282862
      0.76373      2.25155      9.40317        -0.512078     -0.221772      0.708704
      0.85602      6.36253      9.60567        -0.244517      0.342003      0.016317
      1.11247     10.69910      9.49447        -0.156052     -0.167063      0.787600
      5.09695      2.22618      9.51461        -0.229812      0.145327     -0.153200
      4.75907      6.11972      9.50265         0.069472      0.442309      0.092097
      4.97533     10.54075      9.45961        -0.120604     -0.020011      0.082364
      9.07660      2.17171      9.44045         0.119346      0.043405      0.150813
      9.26918      6.51122      9.69648         0.189478      0.208688     -0.365119
      8.97604     10.27786      9.51097        -0.036014      0.568861      0.024728
      2.85188      6.37686      1.49097        -0.290863      0.665550      0.484561
      2.92485     10.56934      1.63343         0.215724      0.088244      0.120165
      7.07316      2.16290      1.54054        -0.071653      0.159399     -0.156427
      7.08661      6.65384      1.33858        -0.075412     -0.295635      0.731532
      7.09870     10.61548      1.46750         0.003875     -0.333653      0.427895
     11.34175      6.38433      1.60767        -0.509298     -0.286196      0.126032
      9.47874      8.43973      4.08636        -1.192735      0.551343     -0.360434
 -----------------------------------------------------------------------------------
    total drift:                                0.000484      0.001354     -0.000229


--------------------------------------------------------------------------------------------------------



  FREE ENERGIE OF THE ION-ELECTRON SYSTEM (eV)
  ---------------------------------------------------
  free  energy   TOTEN  =      -300.87782764 eV

  energy  without entropy=     -300.87782764  energy(sigma->0) =     -300.87782764
 


--------------------------------------------------------------------------------------------------------


    POTLOK:  cpu time      0.7362: real time      0.7389


--------------------------------------------------------------------------------------------------------


     LOOP+:  cpu time    182.7800: real time    183.6880
    4ORBIT:  cpu time      0.0000: real time      0.0000



 total charge

# of ion       s       p       d       tot
------------------------------------------
    1        1.316   0.778   0.055   2.149
    2        1.322   0.756   0.054   2.132
    3        1.312   0.810   0.061   2.183
    4        1.339   0.711   0.049   2.099
    5        1.321   0.772   0.054   2.146
    6        1.320   0.791   0.063   2.175
    7        1.317   0.781   0.059   2.157
    8        1.329   0.771   0.059   2.159
    9        1.317   0.808   0.065   2.190
   10        1.319   0.777   0.056   2.153
   11        1.329   0.770   0.056   2.154
   12        1.328   0.752   0.055   2.135
   13        1.320   0.789   0.057   2.166
   14        1.322   0.767   0.055   2.144
   15        1.328   0.754   0.055   2.137
   16        1.330   0.733   0.053   2.116
   17        1.330   0.741   0.051   2.122
   18        1.321   0.766   0.054   2.140
   19        1.330   0.750   0.055   2.135
   20        1.330   0.733   0.052   2.115
   21        1.328   0.758   0.052   2.138
   22        1.337   0.716   0.053   2.106
   23        1.324   0.755   0.052   2.131
   24        1.323   0.747   0.057   2.127
   25        1.321   0.781   0.059   2.161
   26        1.337   0.718   0.052   2.108
   27        1.320   0.755   0.051   2.127
   28        1.339   0.692   0.045   2.077
   29        1.320   0.780   0.061   2.162
   30        1.321   0.771   0.056   2.148
   31        1.327   0.763   0.058   2.148
   32        1.318   0.777   0.059   2.153
   33        1.326   0.774   0.057   2.157
   34        1.312   0.797   0.062   2.171
   35        1.328   0.735   0.051   2.114
   36        1.331   0.733   0.053   2.118
   37        1.475   2.302   0.030   3.808
   38        1.476   2.296   0.030   3.803
   39        1.479   2.291   0.034   3.804
   40        1.472   2.326   0.033   3.832
   41        1.475   2.309   0.030   3.814
   42        1.480   2.289   0.034   3.803
   43        1.480   2.276   0.028   3.784
   44        1.478   2.293   0.030   3.801
   45        1.478   2.295   0.033   3.806
   46        1.474   2.331   0.034   3.840
   47        1.476   2.278   0.026   3.781
   48        1.475   2.312   0.033   3.820
   49        1.479   2.278   0.031   3.788
   50        1.478   2.285   0.030   3.793
   51        1.473   2.336   0.035   3.843
   52        1.479   2.287   0.034   3.800
   53        1.478   2.310   0.035   3.824
   54        1.479   2.272   0.027   3.779
   55        1.477   2.309   0.032   3.818
   56        1.475   2.321   0.034   3.830
   57        1.477   2.304   0.033   3.815
   58        1.478   2.293   0.032   3.803
   59        1.476   2.331   0.038   3.845
   60        1.477   2.300   0.033   3.811
   61        1.475   2.299   0.031   3.805
   62        1.475   2.306   0.033   3.815
   63        1.474   2.308   0.031   3.813
   64        1.480   2.289   0.035   3.804
   65        1.477   2.305   0.032   3.815
   66        1.475   2.311   0.032   3.819
   67        1.476   2.295   0.029   3.800
   68        1.475   2.317   0.034   3.826
   69        1.484   2.267   0.031   3.782
   70        1.477   2.275   0.029   3.780
   71        1.477   2.270   0.025   3.772
   72        1.477   2.312   0.033   3.822
--------------------------------------------------
tot        100.856 110.143   3.143 214.143



 magnetization (x)

# of ion       s       p       d       tot
------------------------------------------
    1       -0.000   0.000  -0.000   0.000
    2       -0.000   0.000   0.000   0.000
    3       -0.000   0.000  -0.000   0.000
    4       -0.000   0.000   0.000   0.000
    5       -0.000   0.000   0.000   0.000
    6       -0.000   0.000  -0.000   0.000
    7       -0.000  -0.000  -0.000  -0.000
    8       -0.000   0.000   0.000   0.000
    9       -0.000   0.000  -0.000  -0.000
   10       -0.000   0.000  -0.000  -0.000
   11       -0.000   0.000   0.000   0.000
   12       -0.000   0.000   0.000   0.000
   13       -0.000   0.000   0.000   0.000
   14       -0.000   0.000   0.000   0.000
   15       -0.000   0.000  -0.000   0.000
   16       -0.000   0.000  -0.000   0.000
   17       -0.000   0.000   0.000   0.000
   18       -0.000   0.000  -0.000   0.000
   19       -0.000   0.000   0.000   0.000
   20       -0.000   0.000   0.000   0.000
   21       -0.000   0.000   0.000   0.000
   22       -0.000  -0.000  -0.000  -0.000
   23       -0.000   0.000   0.000   0.000
   24       -0.000   0.000   0.000   0.000
   25       -0.000   0.000  -0.000   0.000
   26       -0.000   0.000   0.000   0.000
   27       -0.000  -0.000  -0.000  -0.000
   28       -0.000   0.000   0.000   0.000
   29       -0.000   0.000  -0.000   0.000
   30       -0.000   0.000   0.000   0.000
   31       -0.000   0.000   0.000   0.000
   32       -0.000   0.000  -0.000  -0.000
   33       -0.000   0.000   0.000   0.000
   34       -0.000   0.000   0.000   0.000
   35       -0.000  -0.000  -0.000  -0.000
   36       -0.000   0.000   0.000   0.000
   37       -0.000  -0.000   0.000  -0.000
   38       -0.000  -0.000  -0.000  -0.000
   39       -0.000  -0.000   0.000  -0.000
   40       -0.000  -0.000   0.000  -0.000
   41       -0.000  -0.000   0.000  -0.000
   42       -0.000  -0.000   0.000  -0.000
   43       -0.000  -0.000  -0.000  -0.000
   44       -0.000  -0.000   0.000  -0.000
   45       -0.000  -0.000   0.000  -0.000
   46       -0.000  -0.000  -0.000  -0.000
   47       -0.000  -0.000   0.000  -0.000
   48       -0.000  -0.000   0.000  -0.000
   49       -0.000  -0.000  -0.000  -0.000
   50       -0.000  -0.000   0.000  -0.000
   51       -0.000  -0.000   0.000  -0.000
   52       -0.000  -0.000   0.000  -0.000
   53       -0.000  -0.000   0.000  -0.000
   54       -0.000  -0.000   0.000  -0.000
   55       -0.000  -0.000  -0.000  -0.000
   56       -0.000  -0.000  -0.000  -0.000
   57       -0.000  -0.000  -0.000  -0.000
   58       -0.000  -0.000  -0.000  -0.000
   59       -0.000  -0.000   0.000  -0.000
   60       -0.000  -0.000   0.000  -0.000
   61       -0.000  -0.000   0.000  -0.000
   62       -0.000  -0.000   0.000  -0.000
   63       -0.000  -0.000  -0.000  -0.000
   64       -0.000  -0.000   0.000  -0.000
   65       -0.000  -0.000   0.000  -0.000
   66       -0.000  -0.000  -0.000  -0.000
   67       -0.000  -0.000   0.000  -0.000
   68       -0.000  -0.000   0.000  -0.000
   69       -0.000  -0.000   0.000  -0.000
   70       -0.000  -0.000   0.000  -0.000
   71       -0.000  -0.000  -0.000  -0.000
   72       -0.000  -0.000   0.000  -0.000
--------------------------------------------------
tot         -0.000  -0.000   0.000  -0.000
 

 total amount of memory used by VASP MPI-rank0   110684. kBytes
=======================================================================

   base      :      30000. kBytes
   nonl-proj :      16332. kBytes
   fftplans  :       6179. kBytes
   grid      :      15593. kBytes
   one-center:        146. kBytes
   wavefun   :      42434. kBytes
 
  
  
 General timing and accounting informations for this job:
 ========================================================
  
                  Total CPU time used (sec):      194.354
                            User time (sec):      188.643
                          System time (sec):        5.710
                         Elapsed time (sec):      196.807
  
                   Maximum memory used (kb):      309916.
                   Average memory used (kb):          N/A
  
                          Minor page faults:       104850
                          Major page faults:           61
                 Voluntary context switches:         9057
