 vasp.6.4.2 20Jul23 (build Oct 12 2023 10:31:02) complex                         
 executed on              LinuxNV date 2025.05.28  04:34:43
 running  128 mpi-ranks, with    1 threads/rank, on    2 nodes
 distrk:  each k-point on   64 cores,    2 groups
 distr:  one band on NCORE=   4 cores,   16 groups


--------------------------------------------------------------------------------------------------------


 INCAR:
   ENCUT = 360.000000
   SIGMA = 0.050000
   EDIFF = 1.00e-06
   ALGO = Normal
   GGA = PE
   PREC = Normal
   SYSTEM = ./
   ICHARG = 2
   ISMEAR = 0
   ISPIN = 1
   ISTART = 0
   ISYM = 0
   KPAR = 2
   LMAXMIX = 4
   NELM = 100
   NPAR = 16
   LASPH = .TRUE.
   LCHARG = .FALSE.
   LWAVE = .FALSE.

 POTCAR:    PAW_PBE Ge 05Jan2001                  
 POTCAR:    PAW_PBE Se 06Sep2000                  
 POTCAR:    PAW_PBE Ge 05Jan2001                  
   VRHFIN =Ge: s2p2                                                                                 
   LEXCH  = PE                                                                                      
   EATOM  =   104.9960 eV,    7.7170 Ry                                                             
                                                                                                    
   TITEL  = PAW_PBE Ge 05Jan2001                                                                    
   LULTRA =        F    use ultrasoft PP ?                                                          
   IUNSCR =        1    unscreen: 0-lin 1-nonlin 2-no                                               
   RPACOR =    2.170    partial core radius                                                         
   POMASS =   72.610; ZVAL   =    4.000    mass and valenz                                          
   RCORE  =    2.300    outmost cutoff radius                                                       
   RWIGS  =    2.300; RWIGS  =    1.217    wigner-seitz radius (au A)                               
   ENMAX  =  173.807; ENMIN  =  130.355 eV                                                          
   ICORE  =        3    local potential                                                             
   LCOR   =        T    correct aug charges                                                         
   LPAW   =        T    paw PP                                                                      
   EAUG   =  385.843                                                                                
   DEXC   =    0.000                                                                                
   RMAX   =    2.342    core radius for proj-oper                                                   
   RAUG   =    1.300    factor for augmentation sphere                                              
   RDEP   =    2.318    radius for radial grids                                                     
   RDEPT  =    2.103    core radius for aug-charge                                                  
                                                                                                    
   Atomic configuration                                                                             
   10 entries                                                                                       
     n  l   j            E        occ.                                                              
     1  0  0.50    -10959.8463   2.0000                                                             
     2  0  0.50     -1371.6056   2.0000                                                             
     2  1  1.50     -1198.4791   6.0000                                                             
     3  0  0.50      -168.4733   2.0000                                                             
     3  1  1.50      -115.6019   6.0000                                                             
     3  2  2.50       -29.3106  10.0000                                                             
     4  0  0.50       -11.7309   2.0000                                                             
     4  1  0.50        -3.8952   2.0000                                                             
     4  2  1.50        -4.0817   0.0000                                                             
     4  3  2.50        -4.0817   0.0000                                                             
   Description                                                                                      
     l       E           TYP  RCUT    TYP  RCUT                                                     
     0    -11.7309493     23  2.300                                                                 
     0     -7.4578696     23  2.300                                                                 
     1     -3.8952261     23  2.300                                                                 
     1      6.1178114     23  2.300                                                                 
     2     -4.0817478     23  2.300                                                                 
     3     -1.3605826      7  2.300                                                                 
  local pseudopotential read in
  partial core-charges read in
  partial kinetic energy density read in
  atomic valenz-charges read in
  non local Contribution for L=            0  read in
    real space projection operators read in
  non local Contribution for L=            0  read in
    real space projection operators read in
  non local Contribution for L=            1  read in
    real space projection operators read in
  non local Contribution for L=            1  read in
    real space projection operators read in
  non local Contribution for L=            2  read in
    real space projection operators read in
    PAW grid and wavefunctions read in
 
   number of l-projection  operators is LMAX  =            5
   number of lm-projection operators is LMMAX =           13
 
 POTCAR:    PAW_PBE Se 06Sep2000                  
   VRHFIN =Se: s2p4                                                                                 
   LEXCH  = PE                                                                                      
   EATOM  =   257.1286 eV,   18.8984 Ry                                                             
                                                                                                    
   TITEL  = PAW_PBE Se 06Sep2000                                                                    
   LULTRA =        F    use ultrasoft PP ?                                                          
   IUNSCR =        1    unscreen: 0-lin 1-nonlin 2-no                                               
   RPACOR =    1.900    partial core radius                                                         
   POMASS =   78.960; ZVAL   =    6.000    mass and valenz                                          
   RCORE  =    2.100    outmost cutoff radius                                                       
   RWIGS  =    2.200; RWIGS  =    1.164    wigner-seitz radius (au A)                               
   ENMAX  =  211.555; ENMIN  =  158.666 eV                                                          
   ICORE  =        3    local potential                                                             
   LCOR   =        T    correct aug charges                                                         
   LPAW   =        T    paw PP                                                                      
   EAUG   =  446.842                                                                                
   DEXC   =    0.000                                                                                
   RMAX   =    2.147    core radius for proj-oper                                                   
   RAUG   =    1.300    factor for augmentation sphere                                              
   RDEP   =    2.177    radius for radial grids                                                     
   RDEPT  =    1.928    core radius for aug-charge                                                  
                                                                                                    
   Atomic configuration                                                                             
   10 entries                                                                                       
     n  l   j            E        occ.                                                              
     1  0  0.50    -12503.4787   2.0000                                                             
     2  0  0.50     -1606.9547   2.0000                                                             
     2  1  1.50     -1413.3140   6.0000                                                             
     3  0  0.50      -213.4885   2.0000                                                             
     3  1  1.50      -152.9538   6.0000                                                             
     3  2  2.50       -53.1221  10.0000                                                             
     4  0  0.50       -17.2865   2.0000                                                             
     4  1  0.50        -6.5110   4.0000                                                             
     4  2  2.50        -6.8029   0.0000                                                             
     4  3  2.50        -6.8029   0.0000                                                             
   Description                                                                                      
     l       E           TYP  RCUT    TYP  RCUT                                                     
     0    -17.2865377     23  2.100                                                                 
     0    -15.3094411     23  2.100                                                                 
     1     -6.5110275     23  2.100                                                                 
     1     -0.0695192     23  2.100                                                                 
     2     -6.8029130     23  2.100                                                                 
     3     -1.3605826      7  2.100                                                                 
  local pseudopotential read in
  partial core-charges read in
  partial kinetic energy density read in
  atomic valenz-charges read in
  non local Contribution for L=            0  read in
    real space projection operators read in
  non local Contribution for L=            0  read in
    real space projection operators read in
  non local Contribution for L=            1  read in
    real space projection operators read in
  non local Contribution for L=            1  read in
    real space projection operators read in
  non local Contribution for L=            2  read in
    real space projection operators read in
    PAW grid and wavefunctions read in
 
   number of l-projection  operators is LMAX  =            5
   number of lm-projection operators is LMMAX =           13
 
  PAW_PBE Ge 05Jan2001                  :
 energy of atom  1       EATOM= -104.9960
 kinetic energy error for atom=    0.0005 (will be added to EATOM!!)
  PAW_PBE Se 06Sep2000                  :
 energy of atom  2       EATOM= -257.1286
 kinetic energy error for atom=    0.0030 (will be added to EATOM!!)
 
 
 POSCAR: Ge Se
  positions in cartesian coordinates
  No initial velocities read in
 exchange correlation table for  LEXCH =        8
   RHO(1)=    0.500       N(1)  =     2000
   RHO(2)=  100.500       N(2)  =     4000
 


--------------------------------------------------------------------------------------------------------


 ion  position               nearest neighbor table
   1  0.250  0.114  0.126-   5 2.59   6 2.63   6 2.63
   2  0.750  0.614  0.374-   6 2.59   5 2.63   5 2.63
   3  0.750  0.886  0.874-   7 2.59   8 2.63   8 2.63
   4  0.250  0.386  0.626-   8 2.59   7 2.63   7 2.63
   5  0.250  0.965  0.349-   1 2.59   2 2.63   2 2.63
   6  0.750  0.465  0.151-   2 2.59   1 2.63   1 2.63
   7  0.750  0.035  0.651-   3 2.59   4 2.63   4 2.63
   8  0.250  0.535  0.849-   4 2.59   3 2.63   3 2.63
 

IMPORTANT INFORMATION: All symmetrisations will be switched off!
NOSYMM: (Re-)initialisation of all symmetry stuff for point group C_1.


----------------------------------------------------------------------------------------

                                     Primitive cell                                     

  volume of cell :     213.9306

  direct lattice vectors                    reciprocal lattice vectors
     4.000000000  0.000000000  0.000000000     0.250000000  0.000000000  0.000000000
     0.000000000  4.800000000  0.000000000     0.000000000  0.208333333  0.000000000
     0.000000000  0.000000000 11.142221000     0.000000000  0.000000000  0.089748713

  length of vectors
     4.000000000  4.800000000 11.142221000     0.250000000  0.208333333  0.089748713

  position of ions in fractional coordinates (direct lattice)
     0.250000000  0.113741890  0.126261802
     0.750000000  0.613741890  0.373738198
     0.750000000  0.886258110  0.873738198
     0.250000000  0.386258110  0.626261802
     0.250000000  0.964999895  0.349322065
     0.750000000  0.464999895  0.150677935
     0.750000000  0.035000105  0.650677935
     0.250000000  0.535000105  0.849322065

  ion indices of the primitive-cell ions
   primitive index   ion index
                 1           1
                 2           2
                 3           3
                 4           4
                 5           5
                 6           6
                 7           7
                 8           8

----------------------------------------------------------------------------------------

 
 
 KPOINTS: KPOINTS created by Atomic Simulation Env

Automatic generation of k-mesh.
 Grid dimensions read from file:
 generate k-points for:    6    6    2

 Generating k-lattice:

  Cartesian coordinates                     Fractional coordinates (reciprocal lattice)
     0.041666667  0.000000000  0.000000000     0.166666667  0.000000000  0.000000000
     0.000000000  0.034722222  0.000000000     0.000000000  0.166666667  0.000000000
     0.000000000  0.000000000  0.044874357     0.000000000  0.000000000  0.500000000

  Length of vectors
     0.041666667  0.034722222  0.044874357

  Shift w.r.t. Gamma in fractional coordinates (k-lattice)
     0.000000000  0.000000000  0.000000000

 
 Subroutine IBZKPT returns following result:
 ===========================================
 
 Found     40 irreducible k-points:
 
 Following reciprocal coordinates:
            Coordinates               Weight
  0.000000  0.000000  0.000000      1.000000
  0.166667  0.000000  0.000000      2.000000
  0.333333  0.000000  0.000000      2.000000
  0.500000  0.000000  0.000000      1.000000
  0.000000  0.166667  0.000000      2.000000
  0.166667  0.166667  0.000000      2.000000
  0.166667 -0.166667  0.000000      2.000000
  0.333333  0.166667  0.000000      2.000000
  0.333333 -0.166667  0.000000      2.000000
  0.500000  0.166667  0.000000      2.000000
  0.000000  0.333333  0.000000      2.000000
  0.166667  0.333333  0.000000      2.000000
  0.166667 -0.333333  0.000000      2.000000
  0.333333  0.333333  0.000000      2.000000
  0.333333 -0.333333  0.000000      2.000000
  0.500000  0.333333  0.000000      2.000000
  0.000000  0.500000  0.000000      1.000000
  0.166667  0.500000  0.000000      2.000000
  0.333333  0.500000  0.000000      2.000000
  0.500000  0.500000  0.000000      1.000000
  0.000000  0.000000  0.500000      1.000000
  0.166667  0.000000  0.500000      2.000000
  0.333333  0.000000  0.500000      2.000000
  0.500000  0.000000  0.500000      1.000000
  0.000000  0.166667  0.500000      2.000000
  0.166667  0.166667  0.500000      2.000000
  0.166667 -0.166667  0.500000      2.000000
  0.333333  0.166667  0.500000      2.000000
  0.333333 -0.166667  0.500000      2.000000
  0.500000  0.166667  0.500000      2.000000
  0.000000  0.333333  0.500000      2.000000
  0.166667  0.333333  0.500000      2.000000
  0.166667 -0.333333  0.500000      2.000000
  0.333333  0.333333  0.500000      2.000000
  0.333333 -0.333333  0.500000      2.000000
  0.500000  0.333333  0.500000      2.000000
  0.000000  0.500000  0.500000      1.000000
  0.166667  0.500000  0.500000      2.000000
  0.333333  0.500000  0.500000      2.000000
  0.500000  0.500000  0.500000      1.000000
 
 Following cartesian coordinates:
            Coordinates               Weight
  0.000000  0.000000  0.000000      1.000000
  0.041667  0.000000  0.000000      2.000000
  0.083333  0.000000  0.000000      2.000000
  0.125000  0.000000  0.000000      1.000000
  0.000000  0.034722  0.000000      2.000000
  0.041667  0.034722  0.000000      2.000000
  0.041667 -0.034722  0.000000      2.000000
  0.083333  0.034722  0.000000      2.000000
  0.083333 -0.034722  0.000000      2.000000
  0.125000  0.034722  0.000000      2.000000
  0.000000  0.069444  0.000000      2.000000
  0.041667  0.069444  0.000000      2.000000
  0.041667 -0.069444  0.000000      2.000000
  0.083333  0.069444  0.000000      2.000000
  0.083333 -0.069444  0.000000      2.000000
  0.125000  0.069444  0.000000      2.000000
  0.000000  0.104167  0.000000      1.000000
  0.041667  0.104167  0.000000      2.000000
  0.083333  0.104167  0.000000      2.000000
  0.125000  0.104167  0.000000      1.000000
  0.000000  0.000000  0.044874      1.000000
  0.041667  0.000000  0.044874      2.000000
  0.083333  0.000000  0.044874      2.000000
  0.125000  0.000000  0.044874      1.000000
  0.000000  0.034722  0.044874      2.000000
  0.041667  0.034722  0.044874      2.000000
  0.041667 -0.034722  0.044874      2.000000
  0.083333  0.034722  0.044874      2.000000
  0.083333 -0.034722  0.044874      2.000000
  0.125000  0.034722  0.044874      2.000000
  0.000000  0.069444  0.044874      2.000000
  0.041667  0.069444  0.044874      2.000000
  0.041667 -0.069444  0.044874      2.000000
  0.083333  0.069444  0.044874      2.000000
  0.083333 -0.069444  0.044874      2.000000
  0.125000  0.069444  0.044874      2.000000
  0.000000  0.104167  0.044874      1.000000
  0.041667  0.104167  0.044874      2.000000
  0.083333  0.104167  0.044874      2.000000
  0.125000  0.104167  0.044874      1.000000
 


--------------------------------------------------------------------------------------------------------




 Dimension of arrays:
   k-points           NKPTS =     40   k-points in BZ     NKDIM =     40   number of bands    NBANDS=     32
   number of dos      NEDOS =    301   number of ions     NIONS =      8
   non local maximal  LDIM  =      5   non local SUM 2l+1 LMDIM =     13
   total plane-waves  NPLWV =  25920
   max r-space proj   IRMAX =      1   max aug-charges    IRDMAX=   6784
   dimension x,y,z NGX =    20 NGY =   24 NGZ =   54
   dimension x,y,z NGXF=    40 NGYF=   48 NGZF=  108
   support grid    NGXF=    40 NGYF=   48 NGZF=  108
   ions per type =               4   4
   NGX,Y,Z   is equivalent  to a cutoff of   8.31,  8.31,  8.06 a.u.
   NGXF,Y,Z  is equivalent  to a cutoff of  16.62, 16.62, 16.11 a.u.

 SYSTEM =  ./                                      
 POSCAR =  Ge Se                                   

 Startparameter for this run:
   NWRITE =      2    write-flag & timer
   PREC   = normal    normal or accurate (medium, high low for compatibility)
   ISTART =      0    job   : 0-new  1-cont  2-samecut
   ICHARG =      2    charge: 1-file 2-atom 10-const
   ISPIN  =      1    spin polarized calculation?
   LNONCOLLINEAR =      F non collinear calculations
   LSORBIT =      F    spin-orbit coupling
   INIWAV =      1    electr: 0-lowe 1-rand  2-diag
   LASPH  =      T    aspherical Exc in radial PAW
 Electronic Relaxation 1
   ENCUT  =  360.0 eV  26.46 Ry    5.14 a.u.   6.19  7.43 17.24*2*pi/ulx,y,z
   ENINI  =  360.0     initial cutoff
   ENAUG  =  446.8 eV  augmentation charge cutoff
   NELM   =    100;   NELMIN=  2; NELMDL= -5     # of ELM steps 
   EDIFF  = 0.1E-05   stopping-criterion for ELM
   LREAL  =      F    real-space projection
   NLSPLINE    = F    spline interpolate recip. space projectors
   LCOMPAT=      F    compatible to vasp.4.4
   GGA_COMPAT  = T    GGA compatible to vasp.4.4-vasp.4.6
   LMAXPAW     = -100 max onsite density
   LMAXMIX     =    4 max onsite mixed and CHGCAR
   VOSKOWN=      0    Vosko Wilk Nusair interpolation
   ROPT   =    0.00000   0.00000
 Ionic relaxation
   EDIFFG = 0.1E-04   stopping-criterion for IOM
   NSW    =      0    number of steps for IOM
   NBLOCK =      1;   KBLOCK =      1    inner block; outer block 
   IBRION =     -1    ionic relax: 0-MD 1-quasi-New 2-CG
   NFREE  =      0    steps in history (QN), initial steepest desc. (CG)
   ISIF   =      2    stress and relaxation
   IWAVPR =     10    prediction:  0-non 1-charg 2-wave 3-comb
   ISYM   =      0    0-nonsym 1-usesym 2-fastsym
   LCORR  =      T    Harris-Foulkes like correction to forces

   POTIM  = 0.5000    time-step for ionic-motion
   TEIN   =    0.0    initial temperature
   TEBEG  =    0.0;   TEEND  =   0.0 temperature during run
   SMASS  =  -3.00    Nose mass-parameter (am)
   estimated Nose-frequenzy (Omega)   =  0.10E-29 period in steps = 0.13E+47 mass=  -0.366E-27a.u.
   SCALEE = 1.0000    scale energy and forces
   NPACO  =    256;   APACO  = 10.0  distance and # of slots for P.C.
   PSTRESS=    0.0 pullay stress

  Mass of Ions in am
   POMASS =  72.61 78.96
  Ionic Valenz
   ZVAL   =   4.00  6.00
  Atomic Wigner-Seitz radii
   RWIGS  =  -1.00 -1.00
  virtual crystal weights 
   VCA    =   1.00  1.00
   NELECT =      40.0000    total number of electrons
   NUPDOWN=      -1.0000    fix difference up-down

 DOS related values:
   EMIN   =  10.00;   EMAX   =-10.00  energy-range for DOS
   EFERMI =   0.00;   METHOD = LEGACY      
   ISMEAR =     0;   SIGMA  =   0.05  broadening in eV -4-tet -1-fermi 0-gaus

 Electronic relaxation 2 (details)
   IALGO  =     38    algorithm
   LDIAG  =      T    sub-space diagonalisation (order eigenvalues)
   LSUBROT=      F    optimize rotation matrix (better conditioning)
   TURBO    =      0    0=normal 1=particle mesh
   IRESTART =      0    0=no restart 2=restart with 2 vectors
   NREBOOT  =      0    no. of reboots
   NMIN     =      0    reboot dimension
   EREF     =   0.00    reference energy to select bands
   IMIX   =      4    mixing-type and parameters
     AMIX     =   0.40;   BMIX     =  1.00
     AMIX_MAG =   1.60;   BMIX_MAG =  1.00
     AMIN     =   0.10
     WC   =   100.;   INIMIX=   1;  MIXPRE=   1;  MAXMIX= -45

 Intra band minimization:
   WEIMIN = 0.0000     energy-eigenvalue tresh-hold
   EBREAK =  0.78E-08  absolut break condition
   DEPER  =   0.30     relativ break condition  

   TIME   =   0.40     timestep for ELM

  volume/ion in A,a.u.               =      26.74       180.46
  Fermi-wavevector in a.u.,A,eV,Ry     =   0.936132  1.769033 11.923376  0.876343
  Thomas-Fermi vector in A             =   2.063110
 
 Write flags
   LWAVE        =      F    write WAVECAR
   LDOWNSAMPLE  =      F    k-point downsampling of WAVECAR
   LCHARG       =      F    write CHGCAR
   LVTOT        =      F    write LOCPOT, total local potential
   LVHAR        =      F    write LOCPOT, Hartree potential only
   LELF         =      F    write electronic localiz. function (ELF)
   LORBIT       =      0    0 simple, 1 ext, 2 COOP (PROOUT), +10 PAW based schemes


 Dipole corrections
   LMONO  =      F    monopole corrections only (constant potential shift)
   LDIPOL =      F    correct potential (dipole corrections)
   IDIPOL =      0    1-x, 2-y, 3-z, 4-all directions 
   EPSILON=  1.0000000 bulk dielectric constant

 Exchange correlation treatment:
   GGA     =    PE    GGA type
   LEXCH   =     8    internal setting for exchange type
   LIBXC   =     F    Libxc                    
   VOSKOWN =     0    Vosko Wilk Nusair interpolation
   LHFCALC =     F    Hartree Fock is set to
   LHFONE  =     F    Hartree Fock one center treatment
   AEXX    =    0.0000 exact exchange contribution

 Linear response parameters
   LEPSILON=     F    determine dielectric tensor
   LRPA    =     F    only Hartree local field effects (RPA)
   LNABLA  =     F    use nabla operator in PAW spheres
   LVEL    =     F    velocity operator in full k-point grid
   CSHIFT  =0.1000    complex shift for real part using Kramers Kronig
   OMEGAMAX=  -1.0    maximum frequency
   DEG_THRESHOLD= 0.2000000E-02 threshold for treating states as degnerate
   RTIME   =   -0.100 relaxation time in fs
  (WPLASMAI=    0.000 imaginary part of plasma frequency in eV, 0.658/RTIME)
   DFIELD  = 0.0000000 0.0000000 0.0000000 field for delta impulse in time
 
  Optional k-point grid parameters
   LKPOINTS_OPT  =     F    use optional k-point grid
   KPOINTS_OPT_MODE=     1    mode for optional k-point grid
 
 Orbital magnetization related:
   ORBITALMAG=     F  switch on orbital magnetization
   LCHIMAG   =     F  perturbation theory with respect to B field
   DQ        =  0.001000  dq finite difference perturbation B field
   LLRAUG    =     F  two centre corrections for induced B field
   LBONE     =     F  B-component reconstruction in AE one-centre
   LVGVCALC  =     T  calculate vGv susceptibility
   LVGVAPPL  =     F  apply vGv susceptibility instead of pGv for G=0

 Random number generation:
   RANDOM_GENERATOR = DEFAULT
   PCG_SEED         = not used


--------------------------------------------------------------------------------------------------------


 Static calculation
 charge density and potential will be updated during run
 non-spin polarized calculation
 Variant of blocked Davidson
 Davidson routine will perform the subspace rotation
 perform sub-space diagonalisation
    after iterative eigenvector-optimisation
 modified Broyden-mixing scheme, WC =      100.0
 initial mixing is a Kerker type mixing with AMIX =  0.4000 and BMIX =      1.0000
 Hartree-type preconditioning will be used
 using additional bands            12
 reciprocal scheme for non local part
 use partial core corrections
 calculate Harris-corrections to forces 
   (improved forces if not selfconsistent)
 use gradient corrections 
 use of overlap-Matrix (Vanderbilt PP)
 Gauss-broadening in eV      SIGMA  =   0.05


--------------------------------------------------------------------------------------------------------


  energy-cutoff  :      360.00
  volume of cell :      213.93
      direct lattice vectors                 reciprocal lattice vectors
     4.000000000  0.000000000  0.000000000     0.250000000  0.000000000  0.000000000
     0.000000000  4.800000000  0.000000000     0.000000000  0.208333333  0.000000000
     0.000000000  0.000000000 11.142221000     0.000000000  0.000000000  0.089748713

  length of vectors
     4.000000000  4.800000000 11.142221000     0.250000000  0.208333333  0.089748713


 
 k-points in units of 2pi/SCALE and weight: KPOINTS created by Atomic Simulation Env
   0.00000000  0.00000000  0.00000000       0.014
   0.04166667  0.00000000  0.00000000       0.028
   0.08333333  0.00000000  0.00000000       0.028
   0.12500000  0.00000000  0.00000000       0.014
   0.00000000  0.03472222  0.00000000       0.028
   0.04166667  0.03472222  0.00000000       0.028
   0.04166667 -0.03472222  0.00000000       0.028
   0.08333333  0.03472222  0.00000000       0.028
   0.08333333 -0.03472222  0.00000000       0.028
   0.12500000  0.03472222  0.00000000       0.028
   0.00000000  0.06944444  0.00000000       0.028
   0.04166667  0.06944444  0.00000000       0.028
   0.04166667 -0.06944444  0.00000000       0.028
   0.08333333  0.06944444  0.00000000       0.028
   0.08333333 -0.06944444  0.00000000       0.028
   0.12500000  0.06944444  0.00000000       0.028
   0.00000000  0.10416667  0.00000000       0.014
   0.04166667  0.10416667  0.00000000       0.028
   0.08333333  0.10416667  0.00000000       0.028
   0.12500000  0.10416667  0.00000000       0.014
   0.00000000  0.00000000  0.04487436       0.014
   0.04166667  0.00000000  0.04487436       0.028
   0.08333333  0.00000000  0.04487436       0.028
   0.12500000  0.00000000  0.04487436       0.014
   0.00000000  0.03472222  0.04487436       0.028
   0.04166667  0.03472222  0.04487436       0.028
   0.04166667 -0.03472222  0.04487436       0.028
   0.08333333  0.03472222  0.04487436       0.028
   0.08333333 -0.03472222  0.04487436       0.028
   0.12500000  0.03472222  0.04487436       0.028
   0.00000000  0.06944444  0.04487436       0.028
   0.04166667  0.06944444  0.04487436       0.028
   0.04166667 -0.06944444  0.04487436       0.028
   0.08333333  0.06944444  0.04487436       0.028
   0.08333333 -0.06944444  0.04487436       0.028
   0.12500000  0.06944444  0.04487436       0.028
   0.00000000  0.10416667  0.04487436       0.014
   0.04166667  0.10416667  0.04487436       0.028
   0.08333333  0.10416667  0.04487436       0.028
   0.12500000  0.10416667  0.04487436       0.014
 
 k-points in reciprocal lattice and weights: KPOINTS created by Atomic Simulation Env
   0.00000000  0.00000000  0.00000000       0.014
   0.16666667  0.00000000  0.00000000       0.028
   0.33333333  0.00000000  0.00000000       0.028
   0.50000000  0.00000000  0.00000000       0.014
   0.00000000  0.16666667  0.00000000       0.028
   0.16666667  0.16666667  0.00000000       0.028
   0.16666667 -0.16666667  0.00000000       0.028
   0.33333333  0.16666667  0.00000000       0.028
   0.33333333 -0.16666667  0.00000000       0.028
   0.50000000  0.16666667  0.00000000       0.028
   0.00000000  0.33333333  0.00000000       0.028
   0.16666667  0.33333333  0.00000000       0.028
   0.16666667 -0.33333333  0.00000000       0.028
   0.33333333  0.33333333  0.00000000       0.028
   0.33333333 -0.33333333  0.00000000       0.028
   0.50000000  0.33333333  0.00000000       0.028
   0.00000000  0.50000000  0.00000000       0.014
   0.16666667  0.50000000  0.00000000       0.028
   0.33333333  0.50000000  0.00000000       0.028
   0.50000000  0.50000000  0.00000000       0.014
   0.00000000  0.00000000  0.50000000       0.014
   0.16666667  0.00000000  0.50000000       0.028
   0.33333333  0.00000000  0.50000000       0.028
   0.50000000  0.00000000  0.50000000       0.014
   0.00000000  0.16666667  0.50000000       0.028
   0.16666667  0.16666667  0.50000000       0.028
   0.16666667 -0.16666667  0.50000000       0.028
   0.33333333  0.16666667  0.50000000       0.028
   0.33333333 -0.16666667  0.50000000       0.028
   0.50000000  0.16666667  0.50000000       0.028
   0.00000000  0.33333333  0.50000000       0.028
   0.16666667  0.33333333  0.50000000       0.028
   0.16666667 -0.33333333  0.50000000       0.028
   0.33333333  0.33333333  0.50000000       0.028
   0.33333333 -0.33333333  0.50000000       0.028
   0.50000000  0.33333333  0.50000000       0.028
   0.00000000  0.50000000  0.50000000       0.014
   0.16666667  0.50000000  0.50000000       0.028
   0.33333333  0.50000000  0.50000000       0.028
   0.50000000  0.50000000  0.50000000       0.014
 
 position of ions in fractional coordinates (direct lattice) 
   0.25000000  0.11374189  0.12626180
   0.75000000  0.61374189  0.37373820
   0.75000000  0.88625811  0.87373820
   0.25000000  0.38625811  0.62626180
   0.25000000  0.96499989  0.34932206
   0.75000000  0.46499989  0.15067794
   0.75000000  0.03500011  0.65067794
   0.25000000  0.53500011  0.84932206
 
 position of ions in cartesian coordinates  (Angst):
   1.00000000  0.54596107  1.40683690
   3.00000000  2.94596107  4.16427360
   3.00000000  4.25403893  9.73538410
   1.00000000  1.85403893  6.97794740
   1.00000000  4.63199950  3.89222364
   3.00000000  2.23199950  1.67888686
   3.00000000  0.16800050  7.24999736
   1.00000000  2.56800050  9.46333414
 


--------------------------------------------------------------------------------------------------------


 k-point   1 :   0.0000 0.0000 0.0000  plane waves:    3341
 k-point   2 :   0.1667 0.0000 0.0000  plane waves:    3323
 k-point   3 :   0.3333 0.0000 0.0000  plane waves:    3322
 k-point   4 :   0.5000 0.0000 0.0000  plane waves:    3348
 k-point   5 :   0.0000 0.1667 0.0000  plane waves:    3331
 k-point   6 :   0.1667 0.1667 0.0000  plane waves:    3318
 k-point   7 :   0.1667-0.1667 0.0000  plane waves:    3318
 k-point   8 :   0.3333 0.1667 0.0000  plane waves:    3319
 k-point   9 :   0.3333-0.1667 0.0000  plane waves:    3319
 k-point  10 :   0.5000 0.1667 0.0000  plane waves:    3324
 k-point  11 :   0.0000 0.3333 0.0000  plane waves:    3311
 k-point  12 :   0.1667 0.3333 0.0000  plane waves:    3312
 k-point  13 :   0.1667-0.3333 0.0000  plane waves:    3312
 k-point  14 :   0.3333 0.3333 0.0000  plane waves:    3316
 k-point  15 :   0.3333-0.3333 0.0000  plane waves:    3316
 k-point  16 :   0.5000 0.3333 0.0000  plane waves:    3316
 k-point  17 :   0.0000 0.5000 0.0000  plane waves:    3302
 k-point  18 :   0.1667 0.5000 0.0000  plane waves:    3302
 k-point  19 :   0.3333 0.5000 0.0000  plane waves:    3318
 k-point  20 :   0.5000 0.5000 0.0000  plane waves:    3316
 k-point  21 :   0.0000 0.0000 0.5000  plane waves:    3310
 k-point  22 :   0.1667 0.0000 0.5000  plane waves:    3330
 k-point  23 :   0.3333 0.0000 0.5000  plane waves:    3300
 k-point  24 :   0.5000 0.0000 0.5000  plane waves:    3352
 k-point  25 :   0.0000 0.1667 0.5000  plane waves:    3326
 k-point  26 :   0.1667 0.1667 0.5000  plane waves:    3310
 k-point  27 :   0.1667-0.1667 0.5000  plane waves:    3310
 k-point  28 :   0.3333 0.1667 0.5000  plane waves:    3326
 k-point  29 :   0.3333-0.1667 0.5000  plane waves:    3326
 k-point  30 :   0.5000 0.1667 0.5000  plane waves:    3340
 k-point  31 :   0.0000 0.3333 0.5000  plane waves:    3312
 k-point  32 :   0.1667 0.3333 0.5000  plane waves:    3308
 k-point  33 :   0.1667-0.3333 0.5000  plane waves:    3308
 k-point  34 :   0.3333 0.3333 0.5000  plane waves:    3322
 k-point  35 :   0.3333-0.3333 0.5000  plane waves:    3322
 k-point  36 :   0.5000 0.3333 0.5000  plane waves:    3320
 k-point  37 :   0.0000 0.5000 0.5000  plane waves:    3292
 k-point  38 :   0.1667 0.5000 0.5000  plane waves:    3296
 k-point  39 :   0.3333 0.5000 0.5000  plane waves:    3324
 k-point  40 :   0.5000 0.5000 0.5000  plane waves:    3328

 maximum and minimum number of plane-waves per node :       860      797

 maximum number of plane-waves:      3352
 maximum index in each direction: 
   IXMAX=    6   IYMAX=    7   IZMAX=   17
   IXMIN=   -6   IYMIN=   -7   IZMIN=  -17


 parallel 3D FFT for wavefunctions:
    minimum data exchange during FFTs selected (reduces bandwidth)
 parallel 3D FFT for charge:
    minimum data exchange during FFTs selected (reduces bandwidth)


 total amount of memory used by VASP MPI-rank0    39234. kBytes
=======================================================================

   base      :      30000. kBytes
   nonl-proj :       7163. kBytes
   fftplans  :        374. kBytes
   grid      :        555. kBytes
   one-center:         16. kBytes
   wavefun   :       1126. kBytes
 
     INWAV:  cpu time      0.0000: real time      0.0001
 Broyden mixing: mesh for mixing (old mesh)
   NGX = 13   NGY = 15   NGZ = 35
  (NGX  = 40   NGY  = 48   NGZ  =108)
  gives a total of   6825 points

 initial charge density was supplied:
 charge density of overlapping atoms calculated
 number of electron      40.0000000 magnetization 
 keeping initial charge density in first step


--------------------------------------------------------------------------------------------------------


 Maximum index for augmentation-charges           109 (set IRDMAX)


--------------------------------------------------------------------------------------------------------


 First call to EWALD:  gamma=   0.296
 Maximum number of real-space cells 4x 3x 2
 Maximum number of reciprocal cells 2x 2x 5

    FEWALD:  cpu time      0.0008: real time      0.0008


--------------------------------------- Ionic step        1  -------------------------------------------




--------------------------------------- Iteration      1(   1)  ---------------------------------------


    POTLOK:  cpu time      0.0073: real time      0.0076
    SETDIJ:  cpu time      0.1388: real time      0.1396
     EDDAV:  cpu time      0.2753: real time      0.2780
       DOS:  cpu time      0.0018: real time      0.0018
    --------------------------------------------
      LOOP:  cpu time      0.4232: real time      0.4271

 eigenvalue-minimisations  :  2560
 total energy-change (2. order) : 0.1321949E+03  (-0.1264477E+04)
 number of electron      40.0000000 magnetization 
 augmentation part       40.0000000 magnetization 

 Free energy of the ion-electron system (eV)
  ---------------------------------------------------
  alpha Z        PSCENC =        79.20532181
  Ewald energy   TEWEN  =     -1358.62726616
  -Hartree energ DENC   =      -151.65692549
  -exchange      EXHF   =         0.00000000
  -V(xc)+E(xc)   XCENC  =       -34.46898352
  PAW double counting   =      1193.78262552    -1080.73714043
  entropy T*S    EENTRO =        -0.00378350
  eigenvalues    EBANDS =        36.21642534
  atomic energy  EATOM  =      1448.48460880
  Solvation  Ediel_sol  =         0.00000000
  ---------------------------------------------------
  free energy    TOTEN  =       132.19488236 eV

  energy without entropy =      132.19866587  energy(sigma->0) =      132.19677412


--------------------------------------------------------------------------------------------------------




--------------------------------------- Iteration      1(   2)  ---------------------------------------


     EDDAV:  cpu time      0.3572: real time      0.3605
       DOS:  cpu time      0.0005: real time      0.0005
    --------------------------------------------
      LOOP:  cpu time      0.3577: real time      0.3610

 eigenvalue-minimisations  :  3760
 total energy-change (2. order) :-0.1571131E+03  (-0.1522681E+03)
 number of electron      40.0000000 magnetization 
 augmentation part       40.0000000 magnetization 

 Free energy of the ion-electron system (eV)
  ---------------------------------------------------
  alpha Z        PSCENC =        79.20532181
  Ewald energy   TEWEN  =     -1358.62726616
  -Hartree energ DENC   =      -151.65692549
  -exchange      EXHF   =         0.00000000
  -V(xc)+E(xc)   XCENC  =       -34.46898352
  PAW double counting   =      1193.78262552    -1080.73714043
  entropy T*S    EENTRO =        -0.00000000
  eigenvalues    EBANDS =      -120.90047567
  atomic energy  EATOM  =      1448.48460880
  Solvation  Ediel_sol  =         0.00000000
  ---------------------------------------------------
  free energy    TOTEN  =       -24.91823514 eV

  energy without entropy =      -24.91823514  energy(sigma->0) =      -24.91823514


--------------------------------------------------------------------------------------------------------




--------------------------------------- Iteration      1(   3)  ---------------------------------------


     EDDAV:  cpu time      0.3228: real time      0.3268
       DOS:  cpu time      0.0006: real time      0.0006
    --------------------------------------------
      LOOP:  cpu time      0.3234: real time      0.3274

 eigenvalue-minimisations  :  3248
 total energy-change (2. order) :-0.9185894E+01  (-0.9167286E+01)
 number of electron      40.0000000 magnetization 
 augmentation part       40.0000000 magnetization 

 Free energy of the ion-electron system (eV)
  ---------------------------------------------------
  alpha Z        PSCENC =        79.20532181
  Ewald energy   TEWEN  =     -1358.62726616
  -Hartree energ DENC   =      -151.65692549
  -exchange      EXHF   =         0.00000000
  -V(xc)+E(xc)   XCENC  =       -34.46898352
  PAW double counting   =      1193.78262552    -1080.73714043
  entropy T*S    EENTRO =        -0.00000000
  eigenvalues    EBANDS =      -130.08636945
  atomic energy  EATOM  =      1448.48460880
  Solvation  Ediel_sol  =         0.00000000
  ---------------------------------------------------
  free energy    TOTEN  =       -34.10412892 eV

  energy without entropy =      -34.10412892  energy(sigma->0) =      -34.10412892


--------------------------------------------------------------------------------------------------------




--------------------------------------- Iteration      1(   4)  ---------------------------------------


     EDDAV:  cpu time      0.3020: real time      0.3051
       DOS:  cpu time      0.0006: real time      0.0006
    --------------------------------------------
      LOOP:  cpu time      0.3025: real time      0.3056

 eigenvalue-minimisations  :  3184
 total energy-change (2. order) :-0.6606246E-01  (-0.6605615E-01)
 number of electron      40.0000000 magnetization 
 augmentation part       40.0000000 magnetization 

 Free energy of the ion-electron system (eV)
  ---------------------------------------------------
  alpha Z        PSCENC =        79.20532181
  Ewald energy   TEWEN  =     -1358.62726616
  -Hartree energ DENC   =      -151.65692549
  -exchange      EXHF   =         0.00000000
  -V(xc)+E(xc)   XCENC  =       -34.46898352
  PAW double counting   =      1193.78262552    -1080.73714043
  entropy T*S    EENTRO =        -0.00000000
  eigenvalues    EBANDS =      -130.15243191
  atomic energy  EATOM  =      1448.48460880
  Solvation  Ediel_sol  =         0.00000000
  ---------------------------------------------------
  free energy    TOTEN  =       -34.17019138 eV

  energy without entropy =      -34.17019138  energy(sigma->0) =      -34.17019138


--------------------------------------------------------------------------------------------------------




--------------------------------------- Iteration      1(   5)  ---------------------------------------


     EDDAV:  cpu time      0.3290: real time      0.3322
       DOS:  cpu time      0.0006: real time      0.0006
    CHARGE:  cpu time      0.0049: real time      0.0050
    MIXING:  cpu time      0.0007: real time      0.0007
    --------------------------------------------
      LOOP:  cpu time      0.3352: real time      0.3384

 eigenvalue-minimisations  :  3184
 total energy-change (2. order) :-0.4393534E-03  (-0.4393517E-03)
 number of electron      40.0000026 magnetization 
 augmentation part       -7.4027262 magnetization 

 Broyden mixing:
  rms(total) = 0.62156E+00    rms(broyden)= 0.62154E+00
  rms(prec ) = 0.72390E+00
  weight for this iteration     100.00

 Free energy of the ion-electron system (eV)
  ---------------------------------------------------
  alpha Z        PSCENC =        79.20532181
  Ewald energy   TEWEN  =     -1358.62726616
  -Hartree energ DENC   =      -151.65692549
  -exchange      EXHF   =         0.00000000
  -V(xc)+E(xc)   XCENC  =       -34.46898352
  PAW double counting   =      1193.78262552    -1080.73714043
  entropy T*S    EENTRO =        -0.00000000
  eigenvalues    EBANDS =      -130.15287126
  atomic energy  EATOM  =      1448.48460880
  Solvation  Ediel_sol  =         0.00000000
  ---------------------------------------------------
  free energy    TOTEN  =       -34.17063073 eV

  energy without entropy =      -34.17063073  energy(sigma->0) =      -34.17063073


--------------------------------------------------------------------------------------------------------




--------------------------------------- Iteration      1(   6)  ---------------------------------------


    POTLOK:  cpu time      0.0058: real time      0.0060
    SETDIJ:  cpu time      0.1375: real time      0.1381
     EDDAV:  cpu time      0.3188: real time      0.3220
       DOS:  cpu time      0.0006: real time      0.0006
    CHARGE:  cpu time      0.0049: real time      0.0049
    MIXING:  cpu time      0.0006: real time      0.0006
    --------------------------------------------
      LOOP:  cpu time      0.4681: real time      0.4721

 eigenvalue-minimisations  :  3008
 total energy-change (2. order) : 0.4609830E+00  (-0.1006953E+00)
 number of electron      40.0000026 magnetization 
 augmentation part       -7.3368233 magnetization 

 Broyden mixing:
  rms(total) = 0.38923E+00    rms(broyden)= 0.38923E+00
  rms(prec ) = 0.41414E+00
  weight for this iteration     100.00

 eigenvalues of (default mixing * dielectric matrix)
  average eigenvalue GAMMA=   2.0301
  2.0301

 Free energy of the ion-electron system (eV)
  ---------------------------------------------------
  alpha Z        PSCENC =        79.20532181
  Ewald energy   TEWEN  =     -1358.62726616
  -Hartree energ DENC   =      -158.34967031
  -exchange      EXHF   =         0.00000000
  -V(xc)+E(xc)   XCENC  =       -33.81620680
  PAW double counting   =      1438.29679028    -1325.55145358
  entropy T*S    EENTRO =        -0.00000000
  eigenvalues    EBANDS =      -123.35177177
  atomic energy  EATOM  =      1448.48460880
  Solvation  Ediel_sol  =         0.00000000
  ---------------------------------------------------
  free energy    TOTEN  =       -33.70964773 eV

  energy without entropy =      -33.70964773  energy(sigma->0) =      -33.70964773


--------------------------------------------------------------------------------------------------------




--------------------------------------- Iteration      1(   7)  ---------------------------------------


    POTLOK:  cpu time      0.0057: real time      0.0059
    SETDIJ:  cpu time      0.1376: real time      0.1383
     EDDAV:  cpu time      0.2716: real time      0.2742
       DOS:  cpu time      0.0006: real time      0.0006
    CHARGE:  cpu time      0.0046: real time      0.0046
    MIXING:  cpu time      0.0005: real time      0.0005
    --------------------------------------------
      LOOP:  cpu time      0.4206: real time      0.4241

 eigenvalue-minimisations  :  2800
 total energy-change (2. order) : 0.1120512E-01  (-0.2472852E-01)
 number of electron      40.0000026 magnetization 
 augmentation part       -7.3273827 magnetization 

 Broyden mixing:
  rms(total) = 0.14782E+00    rms(broyden)= 0.14782E+00
  rms(prec ) = 0.15795E+00
  weight for this iteration     100.00

 eigenvalues of (default mixing * dielectric matrix)
  average eigenvalue GAMMA=   1.7758
  1.1651  2.3866

 Free energy of the ion-electron system (eV)
  ---------------------------------------------------
  alpha Z        PSCENC =        79.20532181
  Ewald energy   TEWEN  =     -1358.62726616
  -Hartree energ DENC   =      -160.80903264
  -exchange      EXHF   =         0.00000000
  -V(xc)+E(xc)   XCENC  =       -33.37392560
  PAW double counting   =      1710.19028855    -1597.62926616
  entropy T*S    EENTRO =        -0.00000000
  eigenvalues    EBANDS =      -121.13917120
  atomic energy  EATOM  =      1448.48460880
  Solvation  Ediel_sol  =         0.00000000
  ---------------------------------------------------
  free energy    TOTEN  =       -33.69844261 eV

  energy without entropy =      -33.69844261  energy(sigma->0) =      -33.69844261


--------------------------------------------------------------------------------------------------------




--------------------------------------- Iteration      1(   8)  ---------------------------------------


    POTLOK:  cpu time      0.0057: real time      0.0059
    SETDIJ:  cpu time      0.1372: real time      0.1378
     EDDAV:  cpu time      0.2977: real time      0.3008
       DOS:  cpu time      0.0006: real time      0.0006
    CHARGE:  cpu time      0.0045: real time      0.0046
    MIXING:  cpu time      0.0006: real time      0.0006
    --------------------------------------------
      LOOP:  cpu time      0.4463: real time      0.4503

 eigenvalue-minimisations  :  3024
 total energy-change (2. order) : 0.3229296E-03  (-0.2379487E-02)
 number of electron      40.0000026 magnetization 
 augmentation part       -7.3362594 magnetization 

 Broyden mixing:
  rms(total) = 0.18326E-01    rms(broyden)= 0.18326E-01
  rms(prec ) = 0.23579E-01
  weight for this iteration     100.00

 eigenvalues of (default mixing * dielectric matrix)
  average eigenvalue GAMMA=   1.6463
  2.4603  1.2394  1.2394

 Free energy of the ion-electron system (eV)
  ---------------------------------------------------
  alpha Z        PSCENC =        79.20532181
  Ewald energy   TEWEN  =     -1358.62726616
  -Hartree energ DENC   =      -161.19172178
  -exchange      EXHF   =         0.00000000
  -V(xc)+E(xc)   XCENC  =       -33.18561880
  PAW double counting   =      1864.60122260    -1752.10412091
  entropy T*S    EENTRO =        -0.00000000
  eigenvalues    EBANDS =      -120.88054523
  atomic energy  EATOM  =      1448.48460880
  Solvation  Ediel_sol  =         0.00000000
  ---------------------------------------------------
  free energy    TOTEN  =       -33.69811968 eV

  energy without entropy =      -33.69811968  energy(sigma->0) =      -33.69811968


--------------------------------------------------------------------------------------------------------




--------------------------------------- Iteration      1(   9)  ---------------------------------------


    POTLOK:  cpu time      0.0056: real time      0.0058
    SETDIJ:  cpu time      0.1375: real time      0.1381
     EDDAV:  cpu time      0.2967: real time      0.2995
       DOS:  cpu time      0.0006: real time      0.0006
    CHARGE:  cpu time      0.0045: real time      0.0045
    MIXING:  cpu time      0.0006: real time      0.0006
    --------------------------------------------
      LOOP:  cpu time      0.4453: real time      0.4491

 eigenvalue-minimisations  :  3152
 total energy-change (2. order) :-0.1836110E-03  (-0.4358168E-03)
 number of electron      40.0000026 magnetization 
 augmentation part       -7.3332928 magnetization 

 Broyden mixing:
  rms(total) = 0.70680E-02    rms(broyden)= 0.70680E-02
  rms(prec ) = 0.82690E-02
  weight for this iteration     100.00

 eigenvalues of (default mixing * dielectric matrix)
  average eigenvalue GAMMA=   1.7612
  2.3755  2.3755  1.1469  1.1469

 Free energy of the ion-electron system (eV)
  ---------------------------------------------------
  alpha Z        PSCENC =        79.20532181
  Ewald energy   TEWEN  =     -1358.62726616
  -Hartree energ DENC   =      -161.62638351
  -exchange      EXHF   =         0.00000000
  -V(xc)+E(xc)   XCENC  =       -33.14415348
  PAW double counting   =      1875.23402071    -1762.74497876
  entropy T*S    EENTRO =        -0.00000000
  eigenvalues    EBANDS =      -120.47947271
  atomic energy  EATOM  =      1448.48460880
  Solvation  Ediel_sol  =         0.00000000
  ---------------------------------------------------
  free energy    TOTEN  =       -33.69830329 eV

  energy without entropy =      -33.69830329  energy(sigma->0) =      -33.69830329


--------------------------------------------------------------------------------------------------------




--------------------------------------- Iteration      1(  10)  ---------------------------------------


    POTLOK:  cpu time      0.0055: real time      0.0057
    SETDIJ:  cpu time      0.1367: real time      0.1372
     EDDAV:  cpu time      0.1940: real time      0.1948
       DOS:  cpu time      0.0003: real time      0.0003
    CHARGE:  cpu time      0.0035: real time      0.0035
    MIXING:  cpu time      0.0003: real time      0.0003
    --------------------------------------------
      LOOP:  cpu time      0.3403: real time      0.3418

 eigenvalue-minimisations  :  2928
 total energy-change (2. order) :-0.1702430E-03  (-0.4655414E-04)
 number of electron      40.0000026 magnetization 
 augmentation part       -7.3330188 magnetization 

 Broyden mixing:
  rms(total) = 0.23194E-02    rms(broyden)= 0.23194E-02
  rms(prec ) = 0.29347E-02
  weight for this iteration     100.00

 eigenvalues of (default mixing * dielectric matrix)
  average eigenvalue GAMMA=   1.7422
  2.7086  2.5487  1.0632  1.1952  1.1952

 Free energy of the ion-electron system (eV)
  ---------------------------------------------------
  alpha Z        PSCENC =        79.20532181
  Ewald energy   TEWEN  =     -1358.62726616
  -Hartree energ DENC   =      -161.69242914
  -exchange      EXHF   =         0.00000000
  -V(xc)+E(xc)   XCENC  =       -33.13705085
  PAW double counting   =      1869.94657111    -1757.45313612
  entropy T*S    EENTRO =        -0.00000000
  eigenvalues    EBANDS =      -120.42509298
  atomic energy  EATOM  =      1448.48460880
  Solvation  Ediel_sol  =         0.00000000
  ---------------------------------------------------
  free energy    TOTEN  =       -33.69847353 eV

  energy without entropy =      -33.69847353  energy(sigma->0) =      -33.69847353


--------------------------------------------------------------------------------------------------------




--------------------------------------- Iteration      1(  11)  ---------------------------------------


    POTLOK:  cpu time      0.0038: real time      0.0040
    SETDIJ:  cpu time      0.1367: real time      0.1371
     EDDAV:  cpu time      0.1826: real time      0.1837
       DOS:  cpu time      0.0003: real time      0.0003
    CHARGE:  cpu time      0.0036: real time      0.0036
    MIXING:  cpu time      0.0004: real time      0.0004
    --------------------------------------------
      LOOP:  cpu time      0.3275: real time      0.3291

 eigenvalue-minimisations  :  2864
 total energy-change (2. order) :-0.2680844E-04  (-0.4762112E-05)
 number of electron      40.0000026 magnetization 
 augmentation part       -7.3333453 magnetization 

 Broyden mixing:
  rms(total) = 0.13020E-02    rms(broyden)= 0.13020E-02
  rms(prec ) = 0.15136E-02
  weight for this iteration     100.00

 eigenvalues of (default mixing * dielectric matrix)
  average eigenvalue GAMMA=   1.7500
  2.6545  2.6545  1.9076  1.1276  1.1276  1.0283

 Free energy of the ion-electron system (eV)
  ---------------------------------------------------
  alpha Z        PSCENC =        79.20532181
  Ewald energy   TEWEN  =     -1358.62726616
  -Hartree energ DENC   =      -161.71392842
  -exchange      EXHF   =         0.00000000
  -V(xc)+E(xc)   XCENC  =       -33.13138164
  PAW double counting   =      1870.86577563    -1758.37237738
  entropy T*S    EENTRO =        -0.00000000
  eigenvalues    EBANDS =      -120.40925299
  atomic energy  EATOM  =      1448.48460880
  Solvation  Ediel_sol  =         0.00000000
  ---------------------------------------------------
  free energy    TOTEN  =       -33.69850034 eV

  energy without entropy =      -33.69850034  energy(sigma->0) =      -33.69850034


--------------------------------------------------------------------------------------------------------




--------------------------------------- Iteration      1(  12)  ---------------------------------------


    POTLOK:  cpu time      0.0038: real time      0.0039
    SETDIJ:  cpu time      0.1169: real time      0.1172
     EDDAV:  cpu time      0.1997: real time      0.2006
       DOS:  cpu time      0.0003: real time      0.0003
    --------------------------------------------
      LOOP:  cpu time      0.3207: real time      0.3221

 eigenvalue-minimisations  :  3248
 total energy-change (2. order) :-0.9825820E-06  (-0.9455757E-06)
 number of electron      40.0000026 magnetization 
 augmentation part       -7.3333453 magnetization 

 Free energy of the ion-electron system (eV)
  ---------------------------------------------------
  alpha Z        PSCENC =        79.20532181
  Ewald energy   TEWEN  =     -1358.62726616
  -Hartree energ DENC   =      -161.72974828
  -exchange      EXHF   =         0.00000000
  -V(xc)+E(xc)   XCENC  =       -33.12981870
  PAW double counting   =      1870.05491616    -1757.56124333
  entropy T*S    EENTRO =        -0.00000000
  eigenvalues    EBANDS =      -120.39527162
  atomic energy  EATOM  =      1448.48460880
  Solvation  Ediel_sol  =         0.00000000
  ---------------------------------------------------
  free energy    TOTEN  =       -33.69850132 eV

  energy without entropy =      -33.69850132  energy(sigma->0) =      -33.69850132


--------------------------------------------------------------------------------------------------------




 average (electrostatic) potential at core
  the test charge radii are     1.1631  1.0808
  (the norm of the test charge is              1.0000)
       1 -34.3015       2 -34.3015       3 -34.3015       4 -34.3015       5 -55.6860
       6 -55.6860       7 -55.6860       8 -55.6860
 
 
 
 E-fermi :   2.5732     XC(G=0):  -8.8297     alpha+bet : -7.8906

 Fermi energy:         2.5732372091

 k-point     1 :       0.0000    0.0000    0.0000
  band No.  band energies     occupation 
      1     -11.3887      2.00000
      2     -11.1458      2.00000
      3     -10.2018      2.00000
      4      -9.8684      2.00000
      5      -5.6253      2.00000
      6      -5.1337      2.00000
      7      -3.5406      2.00000
      8      -3.1365      2.00000
      9      -2.1504      2.00000
     10      -0.9075      2.00000
     11      -0.8802      2.00000
     12      -0.6245      2.00000
     13      -0.4065      2.00000
     14      -0.3092      2.00000
     15       0.5790      2.00000
     16       1.0342      2.00000
     17       1.0366      2.00000
     18       1.6894      2.00000
     19       1.9051      2.00000
     20       2.3657      2.00000
     21       3.7787      0.00000
     22       4.4785      0.00000
     23       4.5569      0.00000
     24       4.6225      0.00000
     25       4.9820      0.00000
     26       5.4427      0.00000
     27       5.4949      0.00000
     28       6.0627      0.00000
     29       6.9955      0.00000
     30       7.3723      0.00000
     31       7.7810      0.00000
     32       7.8582      0.00000

 k-point     2 :       0.1667    0.0000    0.0000
  band No.  band energies     occupation 
      1     -11.2246      2.00000
      2     -10.9949      2.00000
      3     -10.1211      2.00000
      4      -9.8347      2.00000
      5      -5.7393      2.00000
      6      -5.2921      2.00000
      7      -3.8049      2.00000
      8      -3.6896      2.00000
      9      -1.9745      2.00000
     10      -0.9721      2.00000
     11      -0.7876      2.00000
     12      -0.7682      2.00000
     13      -0.5653      2.00000
     14      -0.2149      2.00000
     15       0.5134      2.00000
     16       0.5574      2.00000
     17       1.1078      2.00000
     18       1.6812      2.00000
     19       1.9553      2.00000
     20       2.2022      2.00000
     21       3.8988      0.00000
     22       4.3946      0.00000
     23       4.7447      0.00000
     24       5.0789      0.00000
     25       5.2878      0.00000
     26       5.3337      0.00000
     27       5.6629      0.00000
     28       5.9119      0.00000
     29       6.0916      0.00000
     30       7.1804      0.00000
     31       7.1899      0.00000
     32       7.6286      0.00000

 k-point     3 :       0.3333    0.0000    0.0000
  band No.  band energies     occupation 
      1     -10.7790      2.00000
      2     -10.5994      2.00000
      3     -10.0082      2.00000
      4      -9.8728      2.00000
      5      -5.9399      2.00000
      6      -5.5420      2.00000
      7      -4.8185      2.00000
      8      -4.5586      2.00000
      9      -1.4789      2.00000
     10      -1.0725      2.00000
     11      -0.8943      2.00000
     12      -0.4608      2.00000
     13      -0.0901      2.00000
     14       0.0290      2.00000
     15       0.2014      2.00000
     16       0.6903      2.00000
     17       0.9641      2.00000
     18       1.4776      2.00000
     19       1.5144      2.00000
     20       1.5364      2.00000
     21       3.5807      0.00000
     22       3.9430      0.00000
     23       4.1527      0.00000
     24       4.6579      0.00000
     25       4.7551      0.00000
     26       5.3027      0.00000
     27       5.3366      0.00000
     28       5.7958      0.00000
     29       6.2029      0.00000
     30       6.3959      0.00000
     31       6.9866      0.00000
     32       7.2916      0.00000

 k-point     4 :       0.5000    0.0000    0.0000
  band No.  band energies     occupation 
      1     -10.2253      2.00000
      2     -10.2253      2.00000
      3     -10.1654      2.00000
      4     -10.1654      2.00000
      5      -5.7123      2.00000
      6      -5.7123      2.00000
      7      -5.3199      2.00000
      8      -5.3199      2.00000
      9      -0.9848      2.00000
     10      -0.9848      2.00000
     11      -0.5361      2.00000
     12      -0.5361      2.00000
     13       0.1039      2.00000
     14       0.1039      2.00000
     15       0.5502      2.00000
     16       0.5502      2.00000
     17       0.8871      2.00000
     18       0.8871      2.00000
     19       1.2123      2.00000
     20       1.2123      2.00000
     21       3.5246      0.00000
     22       3.5246      0.00000
     23       4.1622      0.00000
     24       4.1622      0.00000
     25       4.8526      0.00000
     26       4.8526      0.00000
     27       5.1534      0.00000
     28       5.1534      0.00000
     29       6.3207      0.00000
     30       6.3207      0.00000
     31       6.6499      0.00000
     32       6.6499      0.00000

 k-point     5 :       0.0000    0.1667    0.0000
  band No.  band energies     occupation 
      1     -11.2968      2.00000
      2     -11.0608      2.00000
      3     -10.2462      2.00000
      4      -9.9472      2.00000
      5      -5.7487      2.00000
      6      -5.1135      2.00000
      7      -4.0439      2.00000
      8      -3.4720      2.00000
      9      -1.9507      2.00000
     10      -0.6381      2.00000
     11      -0.5106      2.00000
     12      -0.4062      2.00000
     13      -0.2097      2.00000
     14      -0.0886      2.00000
     15       0.5764      2.00000
     16       0.9699      2.00000
     17       1.2682      2.00000
     18       1.2968      2.00000
     19       2.0683      2.00000
     20       2.2301      2.00000
     21       3.9093      0.00000
     22       4.0187      0.00000
     23       4.5235      0.00000
     24       4.6138      0.00000
     25       4.8810      0.00000
     26       5.2313      0.00000
     27       5.8122      0.00000
     28       5.9020      0.00000
     29       6.5209      0.00000
     30       7.1369      0.00000
     31       7.4526      0.00000
     32       7.6532      0.00000

 k-point     6 :       0.1667    0.1667    0.0000
  band No.  band energies     occupation 
      1     -11.1376      2.00000
      2     -10.9153      2.00000
      3     -10.1630      2.00000
      4      -9.9034      2.00000
      5      -5.8006      2.00000
      6      -5.2273      2.00000
      7      -4.1881      2.00000
      8      -3.8479      2.00000
      9      -1.8146      2.00000
     10      -1.3393      2.00000
     11      -1.0039      2.00000
     12      -0.5737      2.00000
     13       0.0948      2.00000
     14       0.1946      2.00000
     15       0.3170      2.00000
     16       0.4623      2.00000
     17       1.3263      2.00000
     18       1.3326      2.00000
     19       1.9853      2.00000
     20       2.1220      2.00000
     21       3.9821      0.00000
     22       4.3547      0.00000
     23       4.7133      0.00000
     24       4.7549      0.00000
     25       5.2296      0.00000
     26       5.2599      0.00000
     27       5.9437      0.00000
     28       5.9956      0.00000
     29       6.3336      0.00000
     30       6.8815      0.00000
     31       6.9293      0.00000
     32       7.7435      0.00000

 k-point     7 :       0.1667   -0.1667    0.0000
  band No.  band energies     occupation 
      1     -11.1376      2.00000
      2     -10.9153      2.00000
      3     -10.1630      2.00000
      4      -9.9034      2.00000
      5      -5.8006      2.00000
      6      -5.2273      2.00000
      7      -4.1881      2.00000
      8      -3.8479      2.00000
      9      -1.8146      2.00000
     10      -1.3393      2.00000
     11      -1.0039      2.00000
     12      -0.5737      2.00000
     13       0.0948      2.00000
     14       0.1946      2.00000
     15       0.3170      2.00000
     16       0.4623      2.00000
     17       1.3263      2.00000
     18       1.3326      2.00000
     19       1.9853      2.00000
     20       2.1220      2.00000
     21       3.9821      0.00000
     22       4.3547      0.00000
     23       4.7133      0.00000
     24       4.7549      0.00000
     25       5.2296      0.00000
     26       5.2599      0.00000
     27       5.9437      0.00000
     28       5.9956      0.00000
     29       6.3336      0.00000
     30       6.8815      0.00000
     31       6.9293      0.00000
     32       7.7435      0.00000

 k-point     8 :       0.3333    0.1667    0.0000
  band No.  band energies     occupation 
      1     -10.7105      2.00000
      2     -10.5394      2.00000
      3     -10.0332      2.00000
      4      -9.9038      2.00000
      5      -5.8949      2.00000
      6      -5.4602      2.00000
      7      -4.8474      2.00000
      8      -4.6680      2.00000
      9      -1.5945      2.00000
     10      -1.3935      2.00000
     11      -1.2707      2.00000
     12      -0.7319      2.00000
     13      -0.0616      2.00000
     14       0.2163      2.00000
     15       0.2239      2.00000
     16       0.4555      2.00000
     17       0.7408      2.00000
     18       1.4342      2.00000
     19       1.5387      2.00000
     20       1.5560      2.00000
     21       3.6162      0.00000
     22       4.2075      0.00000
     23       4.3645      0.00000
     24       4.6648      0.00000
     25       5.4503      0.00000
     26       5.5129      0.00000
     27       5.8665      0.00000
     28       6.0664      0.00000
     29       6.4596      0.00000
     30       6.6109      0.00000
     31       7.3235      0.00000
     32       7.3638      0.00000

 k-point     9 :       0.3333   -0.1667    0.0000
  band No.  band energies     occupation 
      1     -10.7105      2.00000
      2     -10.5394      2.00000
      3     -10.0332      2.00000
      4      -9.9038      2.00000
      5      -5.8949      2.00000
      6      -5.4602      2.00000
      7      -4.8474      2.00000
      8      -4.6680      2.00000
      9      -1.5945      2.00000
     10      -1.3935      2.00000
     11      -1.2707      2.00000
     12      -0.7319      2.00000
     13      -0.0616      2.00000
     14       0.2163      2.00000
     15       0.2239      2.00000
     16       0.4555      2.00000
     17       0.7408      2.00000
     18       1.4342      2.00000
     19       1.5387      2.00000
     20       1.5560      2.00000
     21       3.6162      0.00000
     22       4.2075      0.00000
     23       4.3645      0.00000
     24       4.6648      0.00000
     25       5.4503      0.00000
     26       5.5129      0.00000
     27       5.8665      0.00000
     28       6.0664      0.00000
     29       6.4596      0.00000
     30       6.6109      0.00000
     31       7.3235      0.00000
     32       7.3638      0.00000

 k-point    10 :       0.5000    0.1667    0.0000
  band No.  band energies     occupation 
      1     -10.1984      2.00000
      2     -10.1984      2.00000
      3     -10.1461      2.00000
      4     -10.1461      2.00000
      5      -5.6492      2.00000
      6      -5.6492      2.00000
      7      -5.3159      2.00000
      8      -5.3159      2.00000
      9      -1.2248      2.00000
     10      -1.2248      2.00000
     11      -0.8146      2.00000
     12      -0.8146      2.00000
     13      -0.3432      2.00000
     14      -0.3432      2.00000
     15       0.1882      2.00000
     16       0.1882      2.00000
     17       0.9439      2.00000
     18       0.9439      2.00000
     19       1.5249      2.00000
     20       1.5249      2.00000
     21       3.5292      0.00000
     22       3.5292      0.00000
     23       4.6719      0.00000
     24       4.6719      0.00000
     25       5.4794      0.00000
     26       5.4794      0.00000
     27       5.9335      0.00000
     28       5.9335      0.00000
     29       6.4399      0.00000
     30       6.4399      0.00000
     31       6.6733      0.00000
     32       6.6733      0.00000

 k-point    11 :       0.0000    0.3333    0.0000
  band No.  band energies     occupation 
      1     -11.0437      2.00000
      2     -10.8263      2.00000
      3     -10.4090      2.00000
      4     -10.1769      2.00000
      5      -5.8222      2.00000
      6      -5.0146      2.00000
      7      -4.8915      2.00000
      8      -4.1150      2.00000
      9      -1.4833      2.00000
     10      -0.2495      2.00000
     11      -0.1970      2.00000
     12       0.0582      2.00000
     13       0.4175      2.00000
     14       0.4940      2.00000
     15       0.4974      2.00000
     16       0.7476      2.00000
     17       0.8416      2.00000
     18       1.7723      2.00000
     19       1.8634      2.00000
     20       2.1317      2.00000
     21       3.4072      0.00000
     22       4.0200      0.00000
     23       4.1813      0.00000
     24       4.4173      0.00000
     25       4.9120      0.00000
     26       4.9360      0.00000
     27       5.6644      0.00000
     28       5.7327      0.00000
     29       6.2053      0.00000
     30       6.6412      0.00000
     31       6.7129      0.00000
     32       7.9151      0.00000

 k-point    12 :       0.1667    0.3333    0.0000
  band No.  band energies     occupation 
      1     -10.8999      2.00000
      2     -10.6970      2.00000
      3     -10.3136      2.00000
      4     -10.1061      2.00000
      5      -5.7916      2.00000
      6      -5.0576      2.00000
      7      -4.8953      2.00000
      8      -4.2762      2.00000
      9      -1.3921      2.00000
     10      -1.3792      2.00000
     11      -0.9998      2.00000
     12      -0.5461      2.00000
     13      -0.2285      2.00000
     14       0.2034      2.00000
     15       0.5436      2.00000
     16       0.9244      2.00000
     17       1.2800      2.00000
     18       1.3899      2.00000
     19       1.9134      2.00000
     20       1.9933      2.00000
     21       3.9523      0.00000
     22       4.4055      0.00000
     23       4.5778      0.00000
     24       4.6908      0.00000
     25       5.1867      0.00000
     26       5.4702      0.00000
     27       5.7092      0.00000
     28       6.2494      0.00000
     29       6.4254      0.00000
     30       6.7270      0.00000
     31       6.9310      0.00000
     32       7.7398      0.00000

 k-point    13 :       0.1667   -0.3333    0.0000
  band No.  band energies     occupation 
      1     -10.8999      2.00000
      2     -10.6970      2.00000
      3     -10.3136      2.00000
      4     -10.1061      2.00000
      5      -5.7916      2.00000
      6      -5.0576      2.00000
      7      -4.8953      2.00000
      8      -4.2762      2.00000
      9      -1.3921      2.00000
     10      -1.3792      2.00000
     11      -0.9998      2.00000
     12      -0.5461      2.00000
     13      -0.2285      2.00000
     14       0.2034      2.00000
     15       0.5436      2.00000
     16       0.9244      2.00000
     17       1.2800      2.00000
     18       1.3899      2.00000
     19       1.9134      2.00000
     20       1.9933      2.00000
     21       3.9523      0.00000
     22       4.4055      0.00000
     23       4.5778      0.00000
     24       4.6908      0.00000
     25       5.1867      0.00000
     26       5.4702      0.00000
     27       5.7092      0.00000
     28       6.2494      0.00000
     29       6.4254      0.00000
     30       6.7270      0.00000
     31       6.9310      0.00000
     32       7.7398      0.00000

 k-point    14 :       0.3333    0.3333    0.0000
  band No.  band energies     occupation 
      1     -10.5294      2.00000
      2     -10.3808      2.00000
      3     -10.1260      2.00000
      4     -10.0069      2.00000
      5      -5.7411      2.00000
      6      -5.2554      2.00000
      7      -5.0779      2.00000
      8      -4.8386      2.00000
      9      -2.0164      2.00000
     10      -1.5393      2.00000
     11      -1.4311      2.00000
     12      -1.1011      2.00000
     13      -0.6431      2.00000
     14      -0.1388      2.00000
     15      -0.1223      2.00000
     16       0.5387      2.00000
     17       0.5620      2.00000
     18       1.2220      2.00000
     19       1.6082      2.00000
     20       1.6627      2.00000
     21       3.6510      0.00000
     22       4.9488      0.00000
     23       5.3334      0.00000
     24       5.5907      0.00000
     25       5.8733      0.00000
     26       5.9147      0.00000
     27       6.3864      0.00000
     28       6.6291      0.00000
     29       6.7993      0.00000
     30       7.2915      0.00000
     31       7.3142      0.00000
     32       8.1086      0.00000

 k-point    15 :       0.3333   -0.3333    0.0000
  band No.  band energies     occupation 
      1     -10.5294      2.00000
      2     -10.3808      2.00000
      3     -10.1260      2.00000
      4     -10.0069      2.00000
      5      -5.7411      2.00000
      6      -5.2554      2.00000
      7      -5.0779      2.00000
      8      -4.8386      2.00000
      9      -2.0164      2.00000
     10      -1.5393      2.00000
     11      -1.4311      2.00000
     12      -1.1011      2.00000
     13      -0.6431      2.00000
     14      -0.1388      2.00000
     15      -0.1223      2.00000
     16       0.5387      2.00000
     17       0.5620      2.00000
     18       1.2220      2.00000
     19       1.6082      2.00000
     20       1.6627      2.00000
     21       3.6510      0.00000
     22       4.9488      0.00000
     23       5.3334      0.00000
     24       5.5907      0.00000
     25       5.8733      0.00000
     26       5.9147      0.00000
     27       6.3864      0.00000
     28       6.6291      0.00000
     29       6.7993      0.00000
     30       7.2915      0.00000
     31       7.3142      0.00000
     32       8.1086      0.00000

 k-point    16 :       0.5000    0.3333    0.0000
  band No.  band energies     occupation 
      1     -10.1405      2.00000
      2     -10.1405      2.00000
      3     -10.1092      2.00000
      4     -10.1092      2.00000
      5      -5.5055      2.00000
      6      -5.5055      2.00000
      7      -5.3230      2.00000
      8      -5.3230      2.00000
      9      -1.6687      2.00000
     10      -1.6687      2.00000
     11      -1.2846      2.00000
     12      -1.2846      2.00000
     13      -0.7966      2.00000
     14      -0.7966      2.00000
     15      -0.2396      2.00000
     16      -0.2396      2.00000
     17       0.8137      2.00000
     18       0.8137      2.00000
     19       1.4539      2.00000
     20       1.4539      2.00000
     21       4.3918      0.00000
     22       4.3918      0.00000
     23       5.6898      0.00000
     24       5.6898      0.00000
     25       6.1273      0.00000
     26       6.1273      0.00000
     27       6.5869      0.00000
     28       6.5869      0.00000
     29       6.9169      0.00000
     30       6.9169      0.00000
     31       7.8967      0.00000
     32       7.8967      0.00000

 k-point    17 :       0.0000    0.5000    0.0000
  band No.  band energies     occupation 
      1     -10.7055      2.00000
      2     -10.7055      2.00000
      3     -10.5022      2.00000
      4     -10.5022      2.00000
      5      -5.5438      2.00000
      6      -5.5438      2.00000
      7      -4.6868      2.00000
      8      -4.6868      2.00000
      9      -0.8133      2.00000
     10      -0.8133      2.00000
     11       0.2116      2.00000
     12       0.2116      2.00000
     13       0.4069      2.00000
     14       0.4069      2.00000
     15       1.0324      2.00000
     16       1.0324      2.00000
     17       1.2506      2.00000
     18       1.2506      2.00000
     19       1.7973      2.00000
     20       1.7973      2.00000
     21       3.5615      0.00000
     22       3.5615      0.00000
     23       4.3703      0.00000
     24       4.3703      0.00000
     25       5.0394      0.00000
     26       5.0394      0.00000
     27       5.2209      0.00000
     28       5.2209      0.00000
     29       5.9740      0.00000
     30       5.9740      0.00000
     31       7.6424      0.00000
     32       7.6424      0.00000

 k-point    18 :       0.1667    0.5000    0.0000
  band No.  band energies     occupation 
      1     -10.5860      2.00000
      2     -10.5860      2.00000
      3     -10.3992      2.00000
      4     -10.3992      2.00000
      5      -5.4933      2.00000
      6      -5.4933      2.00000
      7      -4.7356      2.00000
      8      -4.7356      2.00000
      9      -1.1210      2.00000
     10      -1.1210      2.00000
     11      -0.6853      2.00000
     12      -0.6853      2.00000
     13      -0.5194      2.00000
     14      -0.5194      2.00000
     15       0.8892      2.00000
     16       0.8892      2.00000
     17       1.5167      2.00000
     18       1.5167      2.00000
     19       1.9247      2.00000
     20       1.9247      2.00000
     21       4.0182      0.00000
     22       4.0182      0.00000
     23       4.6324      0.00000
     24       4.6324      0.00000
     25       5.5803      0.00000
     26       5.5803      0.00000
     27       5.9434      0.00000
     28       5.9434      0.00000
     29       6.4295      0.00000
     30       6.4295      0.00000
     31       7.4305      0.00000
     32       7.4305      0.00000

 k-point    19 :       0.3333    0.5000    0.0000
  band No.  band energies     occupation 
      1     -10.3053      2.00000
      2     -10.3053      2.00000
      3     -10.1807      2.00000
      4     -10.1807      2.00000
      5      -5.4518      2.00000
      6      -5.4518      2.00000
      7      -5.0201      2.00000
      8      -5.0201      2.00000
      9      -1.9363      2.00000
     10      -1.9363      2.00000
     11      -1.3099      2.00000
     12      -1.3099      2.00000
     13      -0.6988      2.00000
     14      -0.6988      2.00000
     15       0.1745      2.00000
     16       0.1745      2.00000
     17       0.7538      2.00000
     18       0.7538      2.00000
     19       1.6611      2.00000
     20       1.6611      2.00000
     21       4.5252      0.00000
     22       4.5252      0.00000
     23       5.8621      0.00000
     24       5.8621      0.00000
     25       6.3935      0.00000
     26       6.3935      0.00000
     27       6.7627      0.00000
     28       6.7627      0.00000
     29       7.1110      0.00000
     30       7.1110      0.00000
     31       7.8459      0.00000
     32       7.8459      0.00000

 k-point    20 :       0.5000    0.5000    0.0000
  band No.  band energies     occupation 
      1     -10.1049      2.00000
      2     -10.1049      2.00000
      3     -10.0961      2.00000
      4     -10.0961      2.00000
      5      -5.4039      2.00000
      6      -5.4039      2.00000
      7      -5.3548      2.00000
      8      -5.3548      2.00000
      9      -1.8092      2.00000
     10      -1.8092      2.00000
     11      -1.5916      2.00000
     12      -1.5916      2.00000
     13      -0.7919      2.00000
     14      -0.7919      2.00000
     15      -0.5993      2.00000
     16      -0.5993      2.00000
     17       0.9128      2.00000
     18       0.9128      2.00000
[...]
     32       7.1491      0.00000

 k-point    32 :       0.1667    0.3333    0.5000
  band No.  band energies     occupation 
      1     -10.8157      2.00000
      2     -10.8157      2.00000
      3     -10.1930      2.00000
      4     -10.1930      2.00000
      5      -5.5211      2.00000
      6      -5.5211      2.00000
      7      -4.5189      2.00000
      8      -4.5189      2.00000
      9      -1.2931      2.00000
     10      -1.2931      2.00000
     11      -0.7133      2.00000
     12      -0.7133      2.00000
     13      -0.1305      2.00000
     14      -0.1305      2.00000
     15       0.7270      2.00000
     16       0.7270      2.00000
     17       1.4031      2.00000
     18       1.4031      2.00000
     19       1.7163      2.00000
     20       1.7163      2.00000
     21       4.4069      0.00000
     22       4.4069      0.00000
     23       4.7226      0.00000
     24       4.7226      0.00000
     25       5.4651      0.00000
     26       5.4651      0.00000
     27       5.7593      0.00000
     28       5.7593      0.00000
     29       6.5731      0.00000
     30       6.5731      0.00000
     31       7.1119      0.00000
     32       7.1119      0.00000

 k-point    33 :       0.1667   -0.3333    0.5000
  band No.  band energies     occupation 
      1     -10.8157      2.00000
      2     -10.8157      2.00000
      3     -10.1930      2.00000
      4     -10.1930      2.00000
      5      -5.5211      2.00000
      6      -5.5211      2.00000
      7      -4.5189      2.00000
      8      -4.5189      2.00000
      9      -1.2931      2.00000
     10      -1.2931      2.00000
     11      -0.7133      2.00000
     12      -0.7133      2.00000
     13      -0.1305      2.00000
     14      -0.1305      2.00000
     15       0.7270      2.00000
     16       0.7270      2.00000
     17       1.4031      2.00000
     18       1.4031      2.00000
     19       1.7163      2.00000
     20       1.7163      2.00000
     21       4.4069      0.00000
     22       4.4069      0.00000
     23       4.7226      0.00000
     24       4.7226      0.00000
     25       5.4651      0.00000
     26       5.4651      0.00000
     27       5.7593      0.00000
     28       5.7593      0.00000
     29       6.5731      0.00000
     30       6.5731      0.00000
     31       7.1119      0.00000
     32       7.1119      0.00000

 k-point    34 :       0.3333    0.3333    0.5000
  band No.  band energies     occupation 
      1     -10.4666      2.00000
      2     -10.4666      2.00000
      3     -10.0552      2.00000
      4     -10.0552      2.00000
      5      -5.5450      2.00000
      6      -5.5450      2.00000
      7      -4.9211      2.00000
      8      -4.9211      2.00000
      9      -1.8209      2.00000
     10      -1.8209      2.00000
     11      -1.1588      2.00000
     12      -1.1588      2.00000
     13      -0.5115      2.00000
     14      -0.5115      2.00000
     15       0.1478      2.00000
     16       0.1478      2.00000
     17       0.9637      2.00000
     18       0.9637      2.00000
     19       1.6305      2.00000
     20       1.6305      2.00000
     21       4.6461      0.00000
     22       4.6461      0.00000
     23       5.3198      0.00000
     24       5.3198      0.00000
     25       5.5698      0.00000
     26       5.5698      0.00000
     27       6.5482      0.00000
     28       6.5482      0.00000
     29       6.6882      0.00000
     30       6.6882      0.00000
     31       7.9252      0.00000
     32       7.9252      0.00000

 k-point    35 :       0.3333   -0.3333    0.5000
  band No.  band energies     occupation 
      1     -10.4666      2.00000
      2     -10.4666      2.00000
      3     -10.0552      2.00000
      4     -10.0552      2.00000
      5      -5.5450      2.00000
      6      -5.5450      2.00000
      7      -4.9211      2.00000
      8      -4.9211      2.00000
      9      -1.8209      2.00000
     10      -1.8209      2.00000
     11      -1.1588      2.00000
     12      -1.1588      2.00000
     13      -0.5115      2.00000
     14      -0.5115      2.00000
     15       0.1478      2.00000
     16       0.1478      2.00000
     17       0.9637      2.00000
     18       0.9637      2.00000
     19       1.6305      2.00000
     20       1.6305      2.00000
     21       4.6461      0.00000
     22       4.6461      0.00000
     23       5.3198      0.00000
     24       5.3198      0.00000
     25       5.5698      0.00000
     26       5.5698      0.00000
     27       6.5482      0.00000
     28       6.5482      0.00000
     29       6.6882      0.00000
     30       6.6882      0.00000
     31       7.9252      0.00000
     32       7.9252      0.00000

 k-point    36 :       0.5000    0.3333    0.5000
  band No.  band energies     occupation 
      1     -10.1249      2.00000
      2     -10.1249      2.00000
      3     -10.1249      2.00000
      4     -10.1249      2.00000
      5      -5.4173      2.00000
      6      -5.4173      2.00000
      7      -5.4173      2.00000
      8      -5.4173      2.00000
      9      -1.4220      2.00000
     10      -1.4220      2.00000
     11      -1.4220      2.00000
     12      -1.4220      2.00000
     13      -0.6856      2.00000
     14      -0.6856      2.00000
     15      -0.6856      2.00000
     16      -0.6856      2.00000
     17       1.2780      2.00000
     18       1.2780      2.00000
     19       1.2780      2.00000
     20       1.2780      2.00000
     21       5.0073      0.00000
     22       5.0073      0.00000
     23       5.0073      0.00000
     24       5.0073      0.00000
     25       6.0252      0.00000
     26       6.0252      0.00000
     27       6.0252      0.00000
     28       6.0252      0.00000
     29       7.5195      0.00000
     30       7.5195      0.00000
     31       7.5195      0.00000
     32       7.5195      0.00000

 k-point    37 :       0.0000    0.5000    0.5000
  band No.  band energies     occupation 
      1     -10.7009      2.00000
      2     -10.7009      2.00000
      3     -10.5078      2.00000
      4     -10.5078      2.00000
      5      -5.4554      2.00000
      6      -5.4554      2.00000
      7      -4.8262      2.00000
      8      -4.8262      2.00000
      9      -0.2019      2.00000
     10      -0.2019      2.00000
     11       0.1192      2.00000
     12       0.1192      2.00000
     13       0.2189      2.00000
     14       0.2189      2.00000
     15       0.3982      2.00000
     16       0.3982      2.00000
     17       1.5583      2.00000
     18       1.5583      2.00000
     19       1.6933      2.00000
     20       1.6933      2.00000
     21       3.6474      0.00000
     22       3.6474      0.00000
     23       4.1896      0.00000
     24       4.1896      0.00000
     25       5.0968      0.00000
     26       5.0968      0.00000
     27       5.8896      0.00000
     28       5.8896      0.00000
     29       6.0142      0.00000
     30       6.0142      0.00000
     31       6.9938      0.00000
     32       6.9938      0.00000

 k-point    38 :       0.1667    0.5000    0.5000
  band No.  band energies     occupation 
      1     -10.5818      2.00000
      2     -10.5818      2.00000
      3     -10.4042      2.00000
      4     -10.4042      2.00000
      5      -5.4215      2.00000
      6      -5.4215      2.00000
      7      -4.8415      2.00000
      8      -4.8415      2.00000
      9      -1.0087      2.00000
     10      -1.0087      2.00000
     11      -0.8980      2.00000
     12      -0.8980      2.00000
     13       0.1861      2.00000
     14       0.1861      2.00000
     15       0.2613      2.00000
     16       0.2613      2.00000
     17       1.6132      2.00000
     18       1.6132      2.00000
     19       1.6427      2.00000
     20       1.6427      2.00000
     21       4.5122      0.00000
     22       4.5122      0.00000
     23       4.6248      0.00000
     24       4.6248      0.00000
     25       5.6927      0.00000
     26       5.6927      0.00000
     27       5.7783      0.00000
     28       5.7783      0.00000
     29       6.4416      0.00000
     30       6.4416      0.00000
     31       6.9675      0.00000
     32       6.9675      0.00000

 k-point    39 :       0.3333    0.5000    0.5000
  band No.  band energies     occupation 
      1     -10.3024      2.00000
      2     -10.3024      2.00000
      3     -10.1839      2.00000
      4     -10.1839      2.00000
      5      -5.4208      2.00000
      6      -5.4208      2.00000
      7      -5.0590      2.00000
      8      -5.0590      2.00000
      9      -1.6882      2.00000
     10      -1.6882      2.00000
     11      -1.6654      2.00000
     12      -1.6654      2.00000
     13      -0.3080      2.00000
     14      -0.3080      2.00000
     15      -0.2884      2.00000
     16      -0.2884      2.00000
     17       1.2110      2.00000
     18       1.2110      2.00000
     19       1.3707      2.00000
     20       1.3707      2.00000
     21       5.0730      0.00000
     22       5.0730      0.00000
     23       5.4719      0.00000
     24       5.4719      0.00000
     25       6.1103      0.00000
     26       6.1103      0.00000
     27       6.1777      0.00000
     28       6.1777      0.00000
     29       7.5465      0.00000
     30       7.5465      0.00000
     31       7.7832      0.00000
     32       7.7832      0.00000

 k-point    40 :       0.5000    0.5000    0.5000
  band No.  band energies     occupation 
      1     -10.1004      2.00000
      2     -10.1004      2.00000
      3     -10.1004      2.00000
      4     -10.1004      2.00000
      5      -5.3816      2.00000
      6      -5.3816      2.00000
      7      -5.3816      2.00000
      8      -5.3816      2.00000
      9      -1.5147      2.00000
     10      -1.5147      2.00000
     11      -1.5147      2.00000
     12      -1.5147      2.00000
     13      -1.0397      2.00000
     14      -1.0397      2.00000
     15      -1.0397      2.00000
     16      -1.0397      2.00000
     17       1.3517      2.00000
     18       1.3517      2.00000
     19       1.3517      2.00000
     20       1.3517      2.00000
     21       5.0475      0.00000
     22       5.0475      0.00000
     23       5.0475      0.00000
     24       5.0475      0.00000
     25       6.5853      0.00000
     26       6.5853      0.00000
     27       6.5853      0.00000
     28       6.5853      0.00000
     29       8.3426      0.00000
     30       8.3426      0.00000
     31       8.3426      0.00000
     32       8.3426      0.00000


--------------------------------------------------------------------------------------------------------


 soft charge-density along one line, spin component            1
         0         1         2         3         4         5         6         7         8         9
 total charge-density along one line
 
 pseudopotential strength for first ion, spin component:            1
 14.758  18.420   0.040   0.050   0.000   0.072   0.090   0.000
 18.420  23.005   0.050   0.063   0.000   0.091   0.114   0.000
  0.040   0.050   3.264  -0.002  -0.000   5.560  -0.004  -0.000
  0.050   0.063  -0.002   3.260  -0.000  -0.004   5.553  -0.000
  0.000   0.000  -0.000  -0.000   3.265  -0.000  -0.000   5.561
  0.072   0.091   5.560  -0.004  -0.000   9.528  -0.007  -0.000
  0.090   0.114  -0.004   5.553  -0.000  -0.007   9.517  -0.000
  0.000   0.000  -0.000  -0.000   5.561  -0.000  -0.000   9.530
  0.000  -0.000   0.000   0.000   0.006   0.000   0.000   0.011
 -0.005  -0.006   0.013   0.013   0.000   0.023   0.023   0.000
 -0.005  -0.006  -0.003   0.013  -0.000  -0.006   0.025  -0.000
 -0.000  -0.000   0.000  -0.000   0.013   0.000  -0.000   0.023
  0.001   0.001  -0.012   0.000  -0.000  -0.021   0.000  -0.000
 total augmentation occupancy for first ion, spin component:            1
  2.618  -0.615   0.289   0.390   0.000  -0.048  -0.068  -0.000  -0.000  -0.015  -0.000   0.000   0.013
 -0.615   0.597  -0.397  -0.515  -0.000   0.060   0.079   0.000   0.000   0.011  -0.001  -0.000  -0.010
  0.289  -0.397   1.148   0.037   0.000  -0.181   0.007  -0.000  -0.000   0.051  -0.100   0.000   0.010
  0.390  -0.515   0.037   1.311  -0.000   0.007  -0.204   0.000  -0.000  -0.035   0.099  -0.000  -0.005
  0.000  -0.000   0.000  -0.000   1.190  -0.000   0.000  -0.201   0.137   0.000  -0.000   0.041  -0.000
 -0.048   0.060  -0.181   0.007  -0.000   0.032  -0.003   0.000   0.000  -0.008   0.016  -0.000  -0.001
 -0.068   0.079   0.007  -0.204   0.000  -0.003   0.036  -0.000   0.000   0.006  -0.017   0.000   0.001
 -0.000   0.000  -0.000   0.000  -0.201   0.000  -0.000   0.038  -0.024  -0.000   0.000  -0.007  -0.000
 -0.000   0.000  -0.000  -0.000   0.137   0.000   0.000  -0.024   0.026   0.000  -0.000   0.003   0.000
 -0.015   0.011   0.051  -0.035   0.000  -0.008   0.006  -0.000   0.000   0.012  -0.008  -0.000   0.002
 -0.000  -0.001  -0.100   0.099  -0.000   0.016  -0.017   0.000  -0.000  -0.008   0.027   0.000  -0.003
  0.000  -0.000   0.000  -0.000   0.041  -0.000   0.000  -0.007   0.003  -0.000   0.000   0.010   0.000
  0.013  -0.010   0.010  -0.005  -0.000  -0.001   0.001  -0.000   0.000   0.002  -0.003   0.000   0.008


------------------------ aborting loop because EDIFF is reached ----------------------------------------


    CHARGE:  cpu time      0.0038: real time      0.0039
    FORLOC:  cpu time      0.0002: real time      0.0002
    FORNL :  cpu time      0.0199: real time      0.0200
    STRESS:  cpu time      0.2011: real time      0.2018
    FORCOR:  cpu time      0.0036: real time      0.0036
    FORHAR:  cpu time      0.0009: real time      0.0009
    MIXING:  cpu time      0.0008: real time      0.0008
    OFIELD:  cpu time      0.0000: real time      0.0000

  FORCE on cell =-STRESS in cart. coord.  units (eV):
  Direction    XX          YY          ZZ          XY          YZ          ZX
  --------------------------------------------------------------------------------------
  Alpha Z    79.20532    79.20532    79.20532
  Ewald    -399.31691  -473.50208  -485.81023    -0.00000    -0.00000     0.00000
  Hartree    79.60457    49.26962    32.86317    -0.00000    -0.00000     0.00000
  E(xc)    -140.19700  -140.39931  -140.66338    -0.00000    -0.00000    -0.00000
  Local    -234.68057  -137.90238  -113.11610     0.00000    -0.00000    -0.00000
  n-local   238.97525   238.31437   241.05543    -0.00000     0.00000     0.00000
  augment   -11.30310   -11.87769   -12.26600     0.00000    -0.00000     0.00000
  Kinetic   383.95039   395.03483   398.19546     0.00000     0.00000    -0.00000
  Fock        0.00000     0.00000     0.00000     0.00000     0.00000     0.00000
  -------------------------------------------------------------------------------------
  Total      -3.76204    -1.85733    -0.53633     0.00000    -0.00000    -0.00000
  in kB     -28.17482   -13.91001    -4.01668     0.00001    -0.00000    -0.00000
  external pressure =      -15.37 kB  Pullay stress =        0.00 kB


 VOLUME and BASIS-vectors are now :
 -----------------------------------------------------------------------------
  energy-cutoff  :      360.00
  volume of cell :      213.93
      direct lattice vectors                 reciprocal lattice vectors
     4.000000000  0.000000000  0.000000000     0.250000000  0.000000000  0.000000000
     0.000000000  4.800000000  0.000000000     0.000000000  0.208333333  0.000000000
     0.000000000  0.000000000 11.142221000     0.000000000  0.000000000  0.089748713

  length of vectors
     4.000000000  4.800000000 11.142221000     0.250000000  0.208333333  0.089748713


 FORCES acting on ions
    electron-ion (+dipol)            ewald-force                    non-local-force                 convergence-correction
 -----------------------------------------------------------------------------------------------
   -.142E-06 0.155E+02 0.288E+02   -.122E-14 -.182E+02 -.320E+02   0.356E-07 0.269E+01 0.322E+01   0.133E-06 0.203E-03 -.970E-03
   0.105E-05 0.155E+02 -.288E+02   0.841E-14 -.182E+02 0.320E+02   -.565E-06 0.269E+01 -.322E+01   -.528E-06 0.201E-03 0.971E-03
   -.885E-07 -.155E+02 -.288E+02   -.459E-14 0.182E+02 0.320E+02   0.138E-06 -.269E+01 -.322E+01   -.545E-07 -.201E-03 0.970E-03
   -.111E-05 -.155E+02 0.288E+02   -.116E-13 0.182E+02 -.320E+02   0.654E-06 -.269E+01 0.322E+01   0.612E-06 -.203E-03 -.972E-03
   -.144E-05 -.142E+02 -.272E+02   -.889E-14 0.159E+02 0.290E+02   0.320E-06 -.167E+01 -.181E+01   0.114E-05 0.476E-03 0.271E-02
   -.103E-06 -.142E+02 0.272E+02   0.521E-14 0.159E+02 -.290E+02   0.358E-07 -.167E+01 0.181E+01   0.613E-07 0.475E-03 -.270E-02
   0.656E-06 0.142E+02 0.272E+02   0.120E-13 -.159E+02 -.290E+02   0.555E-07 0.167E+01 0.181E+01   -.898E-06 -.475E-03 -.271E-02
   -.664E-06 0.142E+02 -.272E+02   -.817E-15 -.159E+02 0.290E+02   0.195E-06 0.167E+01 -.181E+01   0.336E-06 -.477E-03 0.270E-02
 -----------------------------------------------------------------------------------------------
   -.185E-05 0.213E-05 0.282E-05   -.148E-14 -.178E-14 -.355E-13   0.869E-06 -.129E-05 0.322E-06   0.802E-06 -.101E-05 -.142E-05
 
 
 POSITION                                       TOTAL-FORCE (eV/Angst)
 -----------------------------------------------------------------------------------
      1.00000      0.54596      1.40684         0.000000     -0.011876      0.013892
      3.00000      2.94596      4.16427        -0.000000     -0.011876     -0.013893
      3.00000      4.25404      9.73538         0.000000      0.011876     -0.013892
      1.00000      1.85404      6.97795         0.000000      0.011876      0.013892
      1.00000      4.63200      3.89222         0.000000      0.044294     -0.005949
      3.00000      2.23200      1.67889         0.000000      0.044293      0.005950
      3.00000      0.16800      7.25000        -0.000000     -0.044294      0.005949
      1.00000      2.56800      9.46333        -0.000000     -0.044293     -0.005950
 -----------------------------------------------------------------------------------
    total drift:                               -0.000000     -0.000000      0.000002


--------------------------------------------------------------------------------------------------------



  FREE ENERGIE OF THE ION-ELECTRON SYSTEM (eV)
  ---------------------------------------------------
  free  energy   TOTEN  =       -33.69850132 eV

  energy  without entropy=      -33.69850132  energy(sigma->0) =      -33.69850132
 


--------------------------------------------------------------------------------------------------------


    POTLOK:  cpu time      0.1141: real time      0.1147


--------------------------------------------------------------------------------------------------------


     LOOP+:  cpu time      4.9662: real time      5.0065
    4ORBIT:  cpu time      0.0000: real time      0.0000

 total amount of memory used by VASP MPI-rank0    39234. kBytes
=======================================================================

   base      :      30000. kBytes
   nonl-proj :       7163. kBytes
   fftplans  :        374. kBytes
   grid      :        555. kBytes
   one-center:         16. kBytes
   wavefun   :       1126. kBytes
 
  
  
 General timing and accounting informations for this job:
 ========================================================
  
                  Total CPU time used (sec):        5.832
                            User time (sec):        5.481
                          System time (sec):        0.351
                         Elapsed time (sec):        7.232
  
                   Maximum memory used (kb):      190472.
                   Average memory used (kb):          N/A
  
                          Minor page faults:        20828
                          Major page faults:           40
                 Voluntary context switches:         4602
