 running  128 mpi-ranks, with    1 threads/rank, on    2 nodes
 distrk:  each k-point on   64 cores,    2 groups
 distr:  one band on    8 cores,    8 groups
 vasp.6.4.2 20Jul23 (build Oct 12 2023 10:31:02) complex                         
 POSCAR found type information on POSCAR GeSe
 POSCAR found :  2 types and      72 ions
 Reading from existing POTCAR
 -----------------------------------------------------------------------------
|                                                                             |
|           W    W    AA    RRRRR   N    N  II  N    N   GGGG   !!!           |
|           W    W   A  A   R    R  NN   N  II  NN   N  G    G  !!!           |
|           W    W  A    A  R    R  N N  N  II  N N  N  G       !!!           |
|           W WW W  AAAAAA  RRRRR   N  N N  II  N  N N  G  GGG   !            |
|           WW  WW  A    A  R   R   N   NN  II  N   NN  G    G                |
|           W    W  A    A  R    R  N    N  II  N    N   GGGG   !!!           |
|                                                                             |
|     You use a magnetic or noncollinear calculation, but did not specify     |
|     the initial magnetic moment with the MAGMOM tag. Note that a            |
|     default of 1 will be used for all atoms. This ferromagnetic setup       |
|     may break the symmetry of the crystal, in particular it may rule        |
|     out finding an antiferromagnetic solution. Thence, we recommend         |
|     setting the initial magnetic moment manually or verifying carefully     |
|     that this magnetic setup is desired.                                    |
|                                                                             |
 -----------------------------------------------------------------------------

 scaLAPACK will be used
 Reading from existing POTCAR
 -----------------------------------------------------------------------------
|                                                                             |
|               ----> ADVICE to this user running VASP <----                  |
|                                                                             |
|     You have a (more or less) 'large supercell' and for larger cells it     |
|     might be more efficient to use real-space projection operators.         |
|     Therefore, try LREAL= Auto in the INCAR file.                           |
|     Mind: For very accurate calculation, you might also keep the            |
|     reciprocal projection scheme (i.e. LREAL=.FALSE.).                      |
|                                                                             |
 -----------------------------------------------------------------------------

 LDA part: xc-table for Pade appr. of Perdew
 -----------------------------------------------------------------------------
|                                                                             |
|           W    W    AA    RRRRR   N    N  II  N    N   GGGG   !!!           |
|           W    W   A  A   R    R  NN   N  II  NN   N  G    G  !!!           |
|           W    W  A    A  R    R  N N  N  II  N N  N  G       !!!           |
|           W WW W  AAAAAA  RRRRR   N  N N  II  N  N N  G  GGG   !            |
|           WW  WW  A    A  R   R   N   NN  II  N   NN  G    G                |
|           W    W  A    A  R    R  N    N  II  N    N   GGGG   !!!           |
|                                                                             |
|     The number of bands has been changed from the values supplied in        |
|     the INCAR file. This is a result of running the parallel version.       |
|     The orbitals not found in the WAVECAR file will be initialized with     |
|     random numbers, which is usually adequate. For correlated               |
|     calculations, however, you should redo the groundstate calculation.     |
|     I found NBANDS = 220. Now, NBANDS = 224.                                |
|                                                                             |
 -----------------------------------------------------------------------------

 POSCAR, INCAR and KPOINTS ok, starting setup
 FFT: planning ... GRIDC
 FFT: planning ... GRID_SOFT
 FFT: planning ... GRID
 WAVECAR not read
 WARNING: random wavefunctions but no delay for mixing, default for NELMDL
 entering main loop
       N       E                     dE             d eps       ncg     rms          rms(c)
DAV:   1     0.181933402455E+04    0.18193E+04   -0.14189E+05  7168   0.135E+03
DAV:   2    -0.593348595064E+02   -0.18787E+04   -0.18057E+04  8472   0.205E+02
DAV:   3    -0.276243833664E+03   -0.21691E+03   -0.21001E+03  8624   0.691E+01
DAV:   4    -0.284495407702E+03   -0.82516E+01   -0.81412E+01  8712   0.132E+01
DAV:   5    -0.284804196754E+03   -0.30879E+00   -0.30778E+00  9152   0.218E+00    0.294E+01
DAV:   6    -0.282958230030E+03    0.18460E+01   -0.28849E+01  7936   0.819E+00    0.173E+01
DAV:   7    -0.290899400436E+03   -0.79412E+01   -0.99617E+00  7976   0.482E+00    0.919E+00
DAV:   8    -0.294129092070E+03   -0.32297E+01   -0.18603E+00  8208   0.242E+00    0.364E+00
DAV:   9    -0.294581117090E+03   -0.45203E+00   -0.48466E-01  8872   0.109E+00    0.152E+00
DAV:  10    -0.294694978643E+03   -0.11386E+00   -0.10461E-01  8360   0.493E-01    0.752E-01
DAV:  11    -0.294728301424E+03   -0.33323E-01   -0.40625E-02  8832   0.304E-01    0.315E-01
DAV:  12    -0.294732107332E+03   -0.38059E-02   -0.47979E-03  8800   0.128E-01    0.137E-01
DAV:  13    -0.294732446768E+03   -0.33944E-03   -0.93894E-04  9328   0.477E-02    0.555E-02
DAV:  14    -0.294732490356E+03   -0.43588E-04   -0.12635E-04  8360   0.222E-02    0.206E-02
DAV:  15    -0.294732496603E+03   -0.62468E-05   -0.24985E-05  8376   0.104E-02    0.957E-03
DAV:  16    -0.294732497430E+03   -0.82650E-06   -0.26893E-06  5496   0.358E-03
   1 F= -.29473250E+03 E0= -.29473250E+03  d E =-.578936E-11  mag=     0.0002
