 running  128 mpi-ranks, with    1 threads/rank, on    2 nodes
 distrk:  each k-point on   64 cores,    2 groups
 distr:  one band on    4 cores,   16 groups
 vasp.6.4.2 20Jul23 (build Oct 12 2023 10:31:02) complex                         
 POSCAR found type information on POSCAR GeSe
 POSCAR found :  2 types and       8 ions
 Reading from existing POTCAR
 scaLAPACK will be used
 Reading from existing POTCAR
 LDA part: xc-table for Pade appr. of Perdew
 POSCAR, INCAR and KPOINTS ok, starting setup
 FFT: planning ... GRIDC
 FFT: planning ... GRID_SOFT
 FFT: planning ... GRID
 WAVECAR not read
 entering main loop
       N       E                     dE             d eps       ncg     rms          rms(c)
DAV:   1     0.130387509057E+03    0.13039E+03   -0.12697E+04  2560   0.768E+02
DAV:   2    -0.253307736110E+02   -0.15572E+03   -0.15110E+03  3744   0.137E+02
DAV:   3    -0.341428857799E+02   -0.88121E+01   -0.87927E+01  3184   0.380E+01
DAV:   4    -0.342035418643E+02   -0.60656E-01   -0.60650E-01  3200   0.363E+00
DAV:   5    -0.342039173162E+02   -0.37545E-03   -0.37545E-03  3168   0.279E-01    0.622E+00
DAV:   6    -0.337585128295E+02    0.44540E+00   -0.93893E-01  3040   0.322E+00    0.389E+00
DAV:   7    -0.337480219319E+02    0.10491E-01   -0.24607E-01  2960   0.175E+00    0.143E+00
DAV:   8    -0.337472330946E+02    0.78884E-03   -0.24165E-02  3056   0.595E-01    0.178E-01
DAV:   9    -0.337473662392E+02   -0.13314E-03   -0.39921E-03  3200   0.268E-01    0.679E-02
DAV:  10    -0.337474748980E+02   -0.10866E-03   -0.37689E-04  2944   0.850E-02    0.234E-02
DAV:  11    -0.337474970708E+02   -0.22173E-04   -0.40592E-05  2896   0.290E-02    0.129E-02
DAV:  12    -0.337474971507E+02   -0.79910E-07   -0.68303E-06  3312   0.110E-02
   1 F= -.33747497E+02 E0= -.33747497E+02  d E =-.661263E-12
