 running  160 mpi-ranks, with    1 threads/rank, on   10 nodes
 distrk:  each k-point on   80 cores,    2 groups
 distr:  one band on    5 cores,   16 groups
 vasp.6.4.2 20Jul23 (build Oct 12 2023 10:31:02) complex                         
 POSCAR found type information on POSCAR GeSe
 POSCAR found :  2 types and       8 ions
 Reading from existing POTCAR
 scaLAPACK will be used
 Reading from existing POTCAR
 LDA part: xc-table for Pade appr. of Perdew
 POSCAR, INCAR and KPOINTS ok, starting setup
 FFT: planning ... GRIDC
 FFT: planning ... GRID_SOFT
 FFT: planning ... GRID
 WAVECAR not read
 entering main loop
       N       E                     dE             d eps       ncg     rms          rms(c)
DAV:   1     0.163827821941E+03    0.16383E+03   -0.15905E+04  2560   0.104E+03
DAV:   2    -0.221195778251E+02   -0.18595E+03   -0.18056E+03  3648   0.156E+02
DAV:   3    -0.337029915430E+02   -0.11583E+02   -0.11550E+02  3440   0.446E+01
DAV:   4    -0.337929658071E+02   -0.89974E-01   -0.89963E-01  3120   0.446E+00
DAV:   5    -0.337935720387E+02   -0.60623E-03   -0.60622E-03  3408   0.373E-01    0.660E+00
DAV:   6    -0.333953300282E+02    0.39824E+00   -0.78283E-01  3072   0.299E+00    0.412E+00
DAV:   7    -0.333887877002E+02    0.65423E-02   -0.25660E-01  3296   0.177E+00    0.130E+00
DAV:   8    -0.333874141770E+02    0.13735E-02   -0.30139E-02  2768   0.655E-01    0.166E-01
DAV:   9    -0.333877476449E+02   -0.33347E-03   -0.37642E-03  3072   0.274E-01    0.637E-02
DAV:  10    -0.333879279325E+02   -0.18029E-03   -0.34258E-04  3168   0.811E-02    0.241E-02
DAV:  11    -0.333879782553E+02   -0.50323E-04   -0.58445E-05  3072   0.336E-02    0.115E-02
DAV:  12    -0.333879818949E+02   -0.36396E-05   -0.97658E-06  3360   0.126E-02    0.252E-03
DAV:  13    -0.333879826043E+02   -0.70935E-06   -0.14276E-06  2304   0.516E-03
   1 F= -.33387983E+02 E0= -.33387983E+02  d E =-.141430E-15
