 running  160 mpi-ranks, with    1 threads/rank, on   10 nodes
 distrk:  each k-point on   80 cores,    2 groups
 distr:  one band on    5 cores,   16 groups
 vasp.6.4.2 20Jul23 (build Oct 12 2023 10:31:02) complex                         
 POSCAR found type information on POSCAR GeSe
 POSCAR found :  2 types and       8 ions
 Reading from existing POTCAR
 scaLAPACK will be used
 Reading from existing POTCAR
 LDA part: xc-table for Pade appr. of Perdew
 POSCAR, INCAR and KPOINTS ok, starting setup
 FFT: planning ... GRIDC
 FFT: planning ... GRID_SOFT
 FFT: planning ... GRID
 WAVECAR not read
 entering main loop
       N       E                     dE             d eps       ncg     rms          rms(c)
DAV:   1     0.132083978597E+03    0.13208E+03   -0.12855E+04  2560   0.772E+02
DAV:   2    -0.249935479827E+02   -0.15708E+03   -0.15235E+03  3744   0.138E+02
DAV:   3    -0.339534402389E+02   -0.89599E+01   -0.89402E+01  3216   0.384E+01
DAV:   4    -0.340172140949E+02   -0.63774E-01   -0.63763E-01  3376   0.371E+00
DAV:   5    -0.340176640315E+02   -0.44994E-03   -0.44993E-03  3216   0.302E-01    0.656E+00
DAV:   6    -0.336468964577E+02    0.37077E+00   -0.83129E-01  3088   0.297E+00    0.412E+00
DAV:   7    -0.336381926092E+02    0.87038E-02   -0.20849E-01  3056   0.164E+00    0.130E+00
DAV:   8    -0.336385750751E+02   -0.38247E-03   -0.18451E-02  3232   0.521E-01    0.182E-01
DAV:   9    -0.336391318579E+02   -0.55678E-03   -0.32964E-03  3264   0.249E-01    0.693E-02
DAV:  10    -0.336393475032E+02   -0.21565E-03   -0.38466E-04  3360   0.807E-02    0.249E-02
DAV:  11    -0.336393979344E+02   -0.50431E-04   -0.59669E-05  3056   0.329E-02    0.122E-02
DAV:  12    -0.336394007212E+02   -0.27869E-05   -0.88382E-06  3488   0.124E-02    0.288E-03
DAV:  13    -0.336394019640E+02   -0.12428E-05   -0.14635E-06  2208   0.515E-03    0.116E-03
DAV:  14    -0.336394022342E+02   -0.27024E-06   -0.27845E-07  1664   0.226E-03
   1 F= -.33639402E+02 E0= -.33639220E+02  d E =-.364947E-03
