 vasp.6.4.2 20Jul23 (build Oct 12 2023 10:31:02) complex                         
 executed on              LinuxNV date 2025.05.17  03:52:10
 running  160 mpi-ranks, with    1 threads/rank, on   10 nodes
 distrk:  each k-point on   80 cores,    2 groups
 distr:  one band on NCORE=   5 cores,   16 groups


--------------------------------------------------------------------------------------------------------


 INCAR:
   ENCUT = 360.000000
   SIGMA = 0.050000
   EDIFF = 1.00e-06
   ALGO = Normal
   GGA = PE
   PREC = Normal
   SYSTEM = ./
   ICHARG = 2
   ISMEAR = 0
   ISPIN = 1
   ISTART = 0
   ISYM = 0
   KPAR = 2
   LMAXMIX = 4
   NELM = 100
   NPAR = 16
   LASPH = .TRUE.
   LCHARG = .FALSE.
   LWAVE = .FALSE.

 POTCAR:    PAW_PBE Ge 05Jan2001                  
 POTCAR:    PAW_PBE Se 06Sep2000                  
 POTCAR:    PAW_PBE Ge 05Jan2001                  
   VRHFIN =Ge: s2p2                                                                                 
   LEXCH  = PE                                                                                      
   EATOM  =   104.9960 eV,    7.7170 Ry                                                             
                                                                                                    
   TITEL  = PAW_PBE Ge 05Jan2001                                                                    
   LULTRA =        F    use ultrasoft PP ?                                                          
   IUNSCR =        1    unscreen: 0-lin 1-nonlin 2-no                                               
   RPACOR =    2.170    partial core radius                                                         
   POMASS =   72.610; ZVAL   =    4.000    mass and valenz                                          
   RCORE  =    2.300    outmost cutoff radius                                                       
   RWIGS  =    2.300; RWIGS  =    1.217    wigner-seitz radius (au A)                               
   ENMAX  =  173.807; ENMIN  =  130.355 eV                                                          
   ICORE  =        3    local potential                                                             
   LCOR   =        T    correct aug charges                                                         
   LPAW   =        T    paw PP                                                                      
   EAUG   =  385.843                                                                                
   DEXC   =    0.000                                                                                
   RMAX   =    2.342    core radius for proj-oper                                                   
   RAUG   =    1.300    factor for augmentation sphere                                              
   RDEP   =    2.318    radius for radial grids                                                     
   RDEPT  =    2.103    core radius for aug-charge                                                  
                                                                                                    
   Atomic configuration                                                                             
   10 entries                                                                                       
     n  l   j            E        occ.                                                              
     1  0  0.50    -10959.8463   2.0000                                                             
     2  0  0.50     -1371.6056   2.0000                                                             
     2  1  1.50     -1198.4791   6.0000                                                             
     3  0  0.50      -168.4733   2.0000                                                             
     3  1  1.50      -115.6019   6.0000                                                             
     3  2  2.50       -29.3106  10.0000                                                             
     4  0  0.50       -11.7309   2.0000                                                             
     4  1  0.50        -3.8952   2.0000                                                             
     4  2  1.50        -4.0817   0.0000                                                             
     4  3  2.50        -4.0817   0.0000                                                             
   Description                                                                                      
     l       E           TYP  RCUT    TYP  RCUT                                                     
     0    -11.7309493     23  2.300                                                                 
     0     -7.4578696     23  2.300                                                                 
     1     -3.8952261     23  2.300                                                                 
     1      6.1178114     23  2.300                                                                 
     2     -4.0817478     23  2.300                                                                 
     3     -1.3605826      7  2.300                                                                 
  local pseudopotential read in
  partial core-charges read in
  partial kinetic energy density read in
  atomic valenz-charges read in
  non local Contribution for L=            0  read in
    real space projection operators read in
  non local Contribution for L=            0  read in
    real space projection operators read in
  non local Contribution for L=            1  read in
    real space projection operators read in
  non local Contribution for L=            1  read in
    real space projection operators read in
  non local Contribution for L=            2  read in
    real space projection operators read in
    PAW grid and wavefunctions read in
 
   number of l-projection  operators is LMAX  =            5
   number of lm-projection operators is LMMAX =           13
 
 POTCAR:    PAW_PBE Se 06Sep2000                  
   VRHFIN =Se: s2p4                                                                                 
   LEXCH  = PE                                                                                      
   EATOM  =   257.1286 eV,   18.8984 Ry                                                             
                                                                                                    
   TITEL  = PAW_PBE Se 06Sep2000                                                                    
   LULTRA =        F    use ultrasoft PP ?                                                          
   IUNSCR =        1    unscreen: 0-lin 1-nonlin 2-no                                               
   RPACOR =    1.900    partial core radius                                                         
   POMASS =   78.960; ZVAL   =    6.000    mass and valenz                                          
   RCORE  =    2.100    outmost cutoff radius                                                       
   RWIGS  =    2.200; RWIGS  =    1.164    wigner-seitz radius (au A)                               
   ENMAX  =  211.555; ENMIN  =  158.666 eV                                                          
   ICORE  =        3    local potential                                                             
   LCOR   =        T    correct aug charges                                                         
   LPAW   =        T    paw PP                                                                      
   EAUG   =  446.842                                                                                
   DEXC   =    0.000                                                                                
   RMAX   =    2.147    core radius for proj-oper                                                   
   RAUG   =    1.300    factor for augmentation sphere                                              
   RDEP   =    2.177    radius for radial grids                                                     
   RDEPT  =    1.928    core radius for aug-charge                                                  
                                                                                                    
   Atomic configuration                                                                             
   10 entries                                                                                       
     n  l   j            E        occ.                                                              
     1  0  0.50    -12503.4787   2.0000                                                             
     2  0  0.50     -1606.9547   2.0000                                                             
     2  1  1.50     -1413.3140   6.0000                                                             
     3  0  0.50      -213.4885   2.0000                                                             
     3  1  1.50      -152.9538   6.0000                                                             
     3  2  2.50       -53.1221  10.0000                                                             
     4  0  0.50       -17.2865   2.0000                                                             
     4  1  0.50        -6.5110   4.0000                                                             
     4  2  2.50        -6.8029   0.0000                                                             
     4  3  2.50        -6.8029   0.0000                                                             
   Description                                                                                      
     l       E           TYP  RCUT    TYP  RCUT                                                     
     0    -17.2865377     23  2.100                                                                 
     0    -15.3094411     23  2.100                                                                 
     1     -6.5110275     23  2.100                                                                 
     1     -0.0695192     23  2.100                                                                 
     2     -6.8029130     23  2.100                                                                 
     3     -1.3605826      7  2.100                                                                 
  local pseudopotential read in
  partial core-charges read in
  partial kinetic energy density read in
  atomic valenz-charges read in
  non local Contribution for L=            0  read in
    real space projection operators read in
  non local Contribution for L=            0  read in
    real space projection operators read in
  non local Contribution for L=            1  read in
    real space projection operators read in
  non local Contribution for L=            1  read in
    real space projection operators read in
  non local Contribution for L=            2  read in
    real space projection operators read in
    PAW grid and wavefunctions read in
 
   number of l-projection  operators is LMAX  =            5
   number of lm-projection operators is LMMAX =           13
 
  PAW_PBE Ge 05Jan2001                  :
 energy of atom  1       EATOM= -104.9960
 kinetic energy error for atom=    0.0005 (will be added to EATOM!!)
  PAW_PBE Se 06Sep2000                  :
 energy of atom  2       EATOM= -257.1286
 kinetic energy error for atom=    0.0030 (will be added to EATOM!!)
 
 
 POSCAR: Ge Se
  positions in cartesian coordinates
  No initial velocities read in
 exchange correlation table for  LEXCH =        8
   RHO(1)=    0.500       N(1)  =     2000
   RHO(2)=  100.500       N(2)  =     4000
 


--------------------------------------------------------------------------------------------------------


 ion  position               nearest neighbor table
   1  0.424  0.351  0.116-   5 2.58   6 2.59   6 2.59
   2  0.924  0.851  0.384-   6 2.58   5 2.59   5 2.59
   3  0.750  0.881  0.884-   7 2.58   8 2.59   8 2.59
   4  0.250  0.381  0.616-   8 2.58   7 2.59   7 2.59
   5  0.424  0.227  0.355-   1 2.58   2 2.59   2 2.59
   6  0.924  0.727  0.145-   2 2.58   1 2.59   1 2.59
   7  0.750  0.005  0.645-   3 2.58   4 2.59   4 2.59
   8  0.250  0.505  0.855-   4 2.58   3 2.59   3 2.59
 

IMPORTANT INFORMATION: All symmetrisations will be switched off!
NOSYMM: (Re-)initialisation of all symmetry stuff for point group C_1.


----------------------------------------------------------------------------------------

                                     Primitive cell                                     

  volume of cell :     184.8593

  direct lattice vectors                    reciprocal lattice vectors
     3.858100176  0.000000000  0.000000000     0.259194929  0.000000000  0.000000000
     0.000000000  4.526575088  0.000000000     0.000000000  0.220917577  0.000000000
     0.000000000  0.000000000 10.585176468     0.000000000  0.000000000  0.094471736

  length of vectors
     3.858100176  4.526575088 10.585176468     0.259194929  0.220917577  0.094471736

  position of ions in fractional coordinates (direct lattice)
     0.423912752  0.351080181  0.116293234
     0.923912800  0.851080206  0.383706663
     0.749999529  0.880803548  0.883706698
     0.249998913  0.380803590  0.616293301
     0.423912824  0.226825268  0.354521754
     0.923912703  0.726825369  0.145478256
     0.749999119  0.005058363  0.645478205
     0.249999423  0.505058446  0.854521738

  ion indices of the primitive-cell ions
   primitive index   ion index
                 1           1
                 2           2
                 3           3
                 4           4
                 5           5
                 6           6
                 7           7
                 8           8

----------------------------------------------------------------------------------------

 
 
 KPOINTS: KPOINTS created by Atomic Simulation Env

Automatic generation of k-mesh.
 Grid dimensions read from file:
 generate k-points for:    6    6    2

 Generating k-lattice:

  Cartesian coordinates                     Fractional coordinates (reciprocal lattice)
     0.043199155  0.000000000  0.000000000     0.166666667  0.000000000  0.000000000
     0.000000000  0.036819596  0.000000000     0.000000000  0.166666667  0.000000000
     0.000000000  0.000000000  0.047235868     0.000000000  0.000000000  0.500000000

  Length of vectors
     0.043199155  0.036819596  0.047235868

  Shift w.r.t. Gamma in fractional coordinates (k-lattice)
     0.000000000  0.000000000  0.000000000

 
 Subroutine IBZKPT returns following result:
 ===========================================
 
 Found     40 irreducible k-points:
 
 Following reciprocal coordinates:
            Coordinates               Weight
  0.000000  0.000000  0.000000      1.000000
  0.166667  0.000000  0.000000      2.000000
  0.333333  0.000000  0.000000      2.000000
  0.500000  0.000000  0.000000      1.000000
  0.000000  0.166667  0.000000      2.000000
  0.166667  0.166667  0.000000      2.000000
  0.166667 -0.166667  0.000000      2.000000
  0.333333  0.166667  0.000000      2.000000
  0.333333 -0.166667  0.000000      2.000000
  0.500000  0.166667  0.000000      2.000000
  0.000000  0.333333  0.000000      2.000000
  0.166667  0.333333  0.000000      2.000000
  0.166667 -0.333333  0.000000      2.000000
  0.333333  0.333333  0.000000      2.000000
  0.333333 -0.333333  0.000000      2.000000
  0.500000  0.333333  0.000000      2.000000
  0.000000  0.500000  0.000000      1.000000
  0.166667  0.500000  0.000000      2.000000
  0.333333  0.500000  0.000000      2.000000
  0.500000  0.500000  0.000000      1.000000
  0.000000  0.000000  0.500000      1.000000
  0.166667  0.000000  0.500000      2.000000
  0.333333  0.000000  0.500000      2.000000
  0.500000  0.000000  0.500000      1.000000
  0.000000  0.166667  0.500000      2.000000
  0.166667  0.166667  0.500000      2.000000
  0.166667 -0.166667  0.500000      2.000000
  0.333333  0.166667  0.500000      2.000000
  0.333333 -0.166667  0.500000      2.000000
  0.500000  0.166667  0.500000      2.000000
  0.000000  0.333333  0.500000      2.000000
  0.166667  0.333333  0.500000      2.000000
  0.166667 -0.333333  0.500000      2.000000
  0.333333  0.333333  0.500000      2.000000
  0.333333 -0.333333  0.500000      2.000000
  0.500000  0.333333  0.500000      2.000000
  0.000000  0.500000  0.500000      1.000000
  0.166667  0.500000  0.500000      2.000000
  0.333333  0.500000  0.500000      2.000000
  0.500000  0.500000  0.500000      1.000000
 
 Following cartesian coordinates:
            Coordinates               Weight
  0.000000  0.000000  0.000000      1.000000
  0.043199  0.000000  0.000000      2.000000
  0.086398  0.000000  0.000000      2.000000
  0.129597  0.000000  0.000000      1.000000
  0.000000  0.036820  0.000000      2.000000
  0.043199  0.036820  0.000000      2.000000
  0.043199 -0.036820  0.000000      2.000000
  0.086398  0.036820  0.000000      2.000000
  0.086398 -0.036820  0.000000      2.000000
  0.129597  0.036820  0.000000      2.000000
  0.000000  0.073639  0.000000      2.000000
  0.043199  0.073639  0.000000      2.000000
  0.043199 -0.073639  0.000000      2.000000
  0.086398  0.073639  0.000000      2.000000
  0.086398 -0.073639  0.000000      2.000000
  0.129597  0.073639  0.000000      2.000000
  0.000000  0.110459  0.000000      1.000000
  0.043199  0.110459  0.000000      2.000000
  0.086398  0.110459  0.000000      2.000000
  0.129597  0.110459  0.000000      1.000000
  0.000000  0.000000  0.047236      1.000000
  0.043199  0.000000  0.047236      2.000000
  0.086398  0.000000  0.047236      2.000000
  0.129597  0.000000  0.047236      1.000000
  0.000000  0.036820  0.047236      2.000000
  0.043199  0.036820  0.047236      2.000000
  0.043199 -0.036820  0.047236      2.000000
  0.086398  0.036820  0.047236      2.000000
  0.086398 -0.036820  0.047236      2.000000
  0.129597  0.036820  0.047236      2.000000
  0.000000  0.073639  0.047236      2.000000
  0.043199  0.073639  0.047236      2.000000
  0.043199 -0.073639  0.047236      2.000000
  0.086398  0.073639  0.047236      2.000000
  0.086398 -0.073639  0.047236      2.000000
  0.129597  0.073639  0.047236      2.000000
  0.000000  0.110459  0.047236      1.000000
  0.043199  0.110459  0.047236      2.000000
  0.086398  0.110459  0.047236      2.000000
  0.129597  0.110459  0.047236      1.000000
 


--------------------------------------------------------------------------------------------------------




 Dimension of arrays:
   k-points           NKPTS =     40   k-points in BZ     NKDIM =     40   number of bands    NBANDS=     32
   number of dos      NEDOS =    301   number of ions     NIONS =      8
   non local maximal  LDIM  =      5   non local SUM 2l+1 LMDIM =     13
   total plane-waves  NPLWV =  21600
   max r-space proj   IRMAX =      1   max aug-charges    IRDMAX=   6549
   dimension x,y,z NGX =    18 NGY =   24 NGZ =   50
   dimension x,y,z NGXF=    36 NGYF=   48 NGZF=  100
   support grid    NGXF=    36 NGYF=   48 NGZF=  100
   ions per type =               4   4
   NGX,Y,Z   is equivalent  to a cutoff of   7.76,  8.81,  7.85 a.u.
   NGXF,Y,Z  is equivalent  to a cutoff of  15.51, 17.63, 15.71 a.u.

 SYSTEM =  ./                                      
 POSCAR =  Ge Se                                   

 Startparameter for this run:
   NWRITE =      2    write-flag & timer
   PREC   = normal    normal or accurate (medium, high low for compatibility)
   ISTART =      0    job   : 0-new  1-cont  2-samecut
   ICHARG =      2    charge: 1-file 2-atom 10-const
   ISPIN  =      1    spin polarized calculation?
   LNONCOLLINEAR =      F non collinear calculations
   LSORBIT =      F    spin-orbit coupling
   INIWAV =      1    electr: 0-lowe 1-rand  2-diag
   LASPH  =      T    aspherical Exc in radial PAW
 Electronic Relaxation 1
   ENCUT  =  360.0 eV  26.46 Ry    5.14 a.u.   5.97  7.00 16.38*2*pi/ulx,y,z
   ENINI  =  360.0     initial cutoff
   ENAUG  =  446.8 eV  augmentation charge cutoff
   NELM   =    100;   NELMIN=  2; NELMDL= -5     # of ELM steps 
   EDIFF  = 0.1E-05   stopping-criterion for ELM
   LREAL  =      F    real-space projection
   NLSPLINE    = F    spline interpolate recip. space projectors
   LCOMPAT=      F    compatible to vasp.4.4
   GGA_COMPAT  = T    GGA compatible to vasp.4.4-vasp.4.6
   LMAXPAW     = -100 max onsite density
   LMAXMIX     =    4 max onsite mixed and CHGCAR
   VOSKOWN=      0    Vosko Wilk Nusair interpolation
   ROPT   =    0.00000   0.00000
 Ionic relaxation
   EDIFFG = 0.1E-04   stopping-criterion for IOM
   NSW    =      0    number of steps for IOM
   NBLOCK =      1;   KBLOCK =      1    inner block; outer block 
   IBRION =     -1    ionic relax: 0-MD 1-quasi-New 2-CG
   NFREE  =      0    steps in history (QN), initial steepest desc. (CG)
   ISIF   =      2    stress and relaxation
   IWAVPR =     10    prediction:  0-non 1-charg 2-wave 3-comb
   ISYM   =      0    0-nonsym 1-usesym 2-fastsym
   LCORR  =      T    Harris-Foulkes like correction to forces

   POTIM  = 0.5000    time-step for ionic-motion
   TEIN   =    0.0    initial temperature
   TEBEG  =    0.0;   TEEND  =   0.0 temperature during run
   SMASS  =  -3.00    Nose mass-parameter (am)
   estimated Nose-frequenzy (Omega)   =  0.10E-29 period in steps = 0.13E+47 mass=  -0.340E-27a.u.
   SCALEE = 1.0000    scale energy and forces
   NPACO  =    256;   APACO  = 10.0  distance and # of slots for P.C.
   PSTRESS=    0.0 pullay stress

  Mass of Ions in am
   POMASS =  72.61 78.96
  Ionic Valenz
   ZVAL   =   4.00  6.00
  Atomic Wigner-Seitz radii
   RWIGS  =  -1.00 -1.00
  virtual crystal weights 
   VCA    =   1.00  1.00
   NELECT =      40.0000    total number of electrons
   NUPDOWN=      -1.0000    fix difference up-down

 DOS related values:
   EMIN   =  10.00;   EMAX   =-10.00  energy-range for DOS
   EFERMI =   0.00;   METHOD = LEGACY      
   ISMEAR =     0;   SIGMA  =   0.05  broadening in eV -4-tet -1-fermi 0-gaus

 Electronic relaxation 2 (details)
   IALGO  =     38    algorithm
   LDIAG  =      T    sub-space diagonalisation (order eigenvalues)
   LSUBROT=      F    optimize rotation matrix (better conditioning)
   TURBO    =      0    0=normal 1=particle mesh
   IRESTART =      0    0=no restart 2=restart with 2 vectors
   NREBOOT  =      0    no. of reboots
   NMIN     =      0    reboot dimension
   EREF     =   0.00    reference energy to select bands
   IMIX   =      4    mixing-type and parameters
     AMIX     =   0.40;   BMIX     =  1.00
     AMIX_MAG =   1.60;   BMIX_MAG =  1.00
     AMIN     =   0.10
     WC   =   100.;   INIMIX=   1;  MIXPRE=   1;  MAXMIX= -45

 Intra band minimization:
   WEIMIN = 0.0000     energy-eigenvalue tresh-hold
   EBREAK =  0.78E-08  absolut break condition
   DEPER  =   0.30     relativ break condition  

   TIME   =   0.40     timestep for ELM

  volume/ion in A,a.u.               =      23.11       155.94
  Fermi-wavevector in a.u.,A,eV,Ry     =   0.982836  1.857291 13.142773  0.965967
  Thomas-Fermi vector in A             =   2.113949
 
 Write flags
   LWAVE        =      F    write WAVECAR
   LDOWNSAMPLE  =      F    k-point downsampling of WAVECAR
   LCHARG       =      F    write CHGCAR
   LVTOT        =      F    write LOCPOT, total local potential
   LVHAR        =      F    write LOCPOT, Hartree potential only
   LELF         =      F    write electronic localiz. function (ELF)
   LORBIT       =      0    0 simple, 1 ext, 2 COOP (PROOUT), +10 PAW based schemes


 Dipole corrections
   LMONO  =      F    monopole corrections only (constant potential shift)
   LDIPOL =      F    correct potential (dipole corrections)
   IDIPOL =      0    1-x, 2-y, 3-z, 4-all directions 
   EPSILON=  1.0000000 bulk dielectric constant

 Exchange correlation treatment:
   GGA     =    PE    GGA type
   LEXCH   =     8    internal setting for exchange type
   LIBXC   =     F    Libxc                    
   VOSKOWN =     0    Vosko Wilk Nusair interpolation
   LHFCALC =     F    Hartree Fock is set to
   LHFONE  =     F    Hartree Fock one center treatment
   AEXX    =    0.0000 exact exchange contribution

 Linear response parameters
   LEPSILON=     F    determine dielectric tensor
   LRPA    =     F    only Hartree local field effects (RPA)
   LNABLA  =     F    use nabla operator in PAW spheres
   LVEL    =     F    velocity operator in full k-point grid
   CSHIFT  =0.1000    complex shift for real part using Kramers Kronig
   OMEGAMAX=  -1.0    maximum frequency
   DEG_THRESHOLD= 0.2000000E-02 threshold for treating states as degnerate
   RTIME   =   -0.100 relaxation time in fs
  (WPLASMAI=    0.000 imaginary part of plasma frequency in eV, 0.658/RTIME)
   DFIELD  = 0.0000000 0.0000000 0.0000000 field for delta impulse in time
 
  Optional k-point grid parameters
   LKPOINTS_OPT  =     F    use optional k-point grid
   KPOINTS_OPT_MODE=     1    mode for optional k-point grid
 
 Orbital magnetization related:
   ORBITALMAG=     F  switch on orbital magnetization
   LCHIMAG   =     F  perturbation theory with respect to B field
   DQ        =  0.001000  dq finite difference perturbation B field
   LLRAUG    =     F  two centre corrections for induced B field
   LBONE     =     F  B-component reconstruction in AE one-centre
   LVGVCALC  =     T  calculate vGv susceptibility
   LVGVAPPL  =     F  apply vGv susceptibility instead of pGv for G=0

 Random number generation:
   RANDOM_GENERATOR = DEFAULT
   PCG_SEED         = not used


--------------------------------------------------------------------------------------------------------


 Static calculation
 charge density and potential will be updated during run
 non-spin polarized calculation
 Variant of blocked Davidson
 Davidson routine will perform the subspace rotation
 perform sub-space diagonalisation
    after iterative eigenvector-optimisation
 modified Broyden-mixing scheme, WC =      100.0
 initial mixing is a Kerker type mixing with AMIX =  0.4000 and BMIX =      1.0000
 Hartree-type preconditioning will be used
 using additional bands            12
 reciprocal scheme for non local part
 use partial core corrections
 calculate Harris-corrections to forces 
   (improved forces if not selfconsistent)
 use gradient corrections 
 use of overlap-Matrix (Vanderbilt PP)
 Gauss-broadening in eV      SIGMA  =   0.05


--------------------------------------------------------------------------------------------------------


  energy-cutoff  :      360.00
  volume of cell :      184.86
      direct lattice vectors                 reciprocal lattice vectors
     3.858100176  0.000000000  0.000000000     0.259194929  0.000000000  0.000000000
     0.000000000  4.526575088  0.000000000     0.000000000  0.220917577  0.000000000
     0.000000000  0.000000000 10.585176468     0.000000000  0.000000000  0.094471736

  length of vectors
     3.858100176  4.526575088 10.585176468     0.259194929  0.220917577  0.094471736


 
 k-points in units of 2pi/SCALE and weight: KPOINTS created by Atomic Simulation Env
   0.00000000  0.00000000  0.00000000       0.014
   0.04319915  0.00000000  0.00000000       0.028
   0.08639831  0.00000000  0.00000000       0.028
   0.12959746  0.00000000  0.00000000       0.014
   0.00000000  0.03681960  0.00000000       0.028
   0.04319915  0.03681960  0.00000000       0.028
   0.04319915 -0.03681960  0.00000000       0.028
   0.08639831  0.03681960  0.00000000       0.028
   0.08639831 -0.03681960  0.00000000       0.028
   0.12959746  0.03681960  0.00000000       0.028
   0.00000000  0.07363919  0.00000000       0.028
   0.04319915  0.07363919  0.00000000       0.028
   0.04319915 -0.07363919  0.00000000       0.028
   0.08639831  0.07363919  0.00000000       0.028
   0.08639831 -0.07363919  0.00000000       0.028
   0.12959746  0.07363919  0.00000000       0.028
   0.00000000  0.11045879  0.00000000       0.014
   0.04319915  0.11045879  0.00000000       0.028
   0.08639831  0.11045879  0.00000000       0.028
   0.12959746  0.11045879  0.00000000       0.014
   0.00000000  0.00000000  0.04723587       0.014
   0.04319915  0.00000000  0.04723587       0.028
   0.08639831  0.00000000  0.04723587       0.028
   0.12959746  0.00000000  0.04723587       0.014
   0.00000000  0.03681960  0.04723587       0.028
   0.04319915  0.03681960  0.04723587       0.028
   0.04319915 -0.03681960  0.04723587       0.028
   0.08639831  0.03681960  0.04723587       0.028
   0.08639831 -0.03681960  0.04723587       0.028
   0.12959746  0.03681960  0.04723587       0.028
   0.00000000  0.07363919  0.04723587       0.028
   0.04319915  0.07363919  0.04723587       0.028
   0.04319915 -0.07363919  0.04723587       0.028
   0.08639831  0.07363919  0.04723587       0.028
   0.08639831 -0.07363919  0.04723587       0.028
   0.12959746  0.07363919  0.04723587       0.028
   0.00000000  0.11045879  0.04723587       0.014
   0.04319915  0.11045879  0.04723587       0.028
   0.08639831  0.11045879  0.04723587       0.028
   0.12959746  0.11045879  0.04723587       0.014
 
 k-points in reciprocal lattice and weights: KPOINTS created by Atomic Simulation Env
   0.00000000  0.00000000  0.00000000       0.014
   0.16666667  0.00000000  0.00000000       0.028
   0.33333333  0.00000000  0.00000000       0.028
   0.50000000  0.00000000  0.00000000       0.014
   0.00000000  0.16666667  0.00000000       0.028
   0.16666667  0.16666667  0.00000000       0.028
   0.16666667 -0.16666667  0.00000000       0.028
   0.33333333  0.16666667  0.00000000       0.028
   0.33333333 -0.16666667  0.00000000       0.028
   0.50000000  0.16666667  0.00000000       0.028
   0.00000000  0.33333333  0.00000000       0.028
   0.16666667  0.33333333  0.00000000       0.028
   0.16666667 -0.33333333  0.00000000       0.028
   0.33333333  0.33333333  0.00000000       0.028
   0.33333333 -0.33333333  0.00000000       0.028
   0.50000000  0.33333333  0.00000000       0.028
   0.00000000  0.50000000  0.00000000       0.014
   0.16666667  0.50000000  0.00000000       0.028
   0.33333333  0.50000000  0.00000000       0.028
   0.50000000  0.50000000  0.00000000       0.014
   0.00000000  0.00000000  0.50000000       0.014
   0.16666667  0.00000000  0.50000000       0.028
   0.33333333  0.00000000  0.50000000       0.028
   0.50000000  0.00000000  0.50000000       0.014
   0.00000000  0.16666667  0.50000000       0.028
   0.16666667  0.16666667  0.50000000       0.028
   0.16666667 -0.16666667  0.50000000       0.028
   0.33333333  0.16666667  0.50000000       0.028
   0.33333333 -0.16666667  0.50000000       0.028
   0.50000000  0.16666667  0.50000000       0.028
   0.00000000  0.33333333  0.50000000       0.028
   0.16666667  0.33333333  0.50000000       0.028
   0.16666667 -0.33333333  0.50000000       0.028
   0.33333333  0.33333333  0.50000000       0.028
   0.33333333 -0.33333333  0.50000000       0.028
   0.50000000  0.33333333  0.50000000       0.028
   0.00000000  0.50000000  0.50000000       0.014
   0.16666667  0.50000000  0.50000000       0.028
   0.33333333  0.50000000  0.50000000       0.028
   0.50000000  0.50000000  0.50000000       0.014
 
 position of ions in fractional coordinates (direct lattice) 
   0.42391275  0.35108018  0.11629323
   0.92391280  0.85108021  0.38370666
   0.74999953  0.88080355  0.88370670
   0.24999891  0.38080359  0.61629330
   0.42391282  0.22682527  0.35452175
   0.92391270  0.72682537  0.14547826
   0.74999912  0.00505836  0.64547820
   0.24999942  0.50505845  0.85452174
 
 position of ions in cartesian coordinates  (Angst):
   1.63549786  1.58919080  1.23098441
   3.56454814  3.85247846  4.06160274
   2.89357331  3.98702340  9.35419135
   0.96452085  1.72373604  6.52357335
   1.63549814  1.02674161  3.75267533
   3.56454776  3.29002961  1.53991301
   2.89357173  0.02289706  6.83250071
   0.96452282  2.28618498  9.04526339
 


--------------------------------------------------------------------------------------------------------


 k-point   1 :   0.0000 0.0000 0.0000  plane waves:    2825
 k-point   2 :   0.1667 0.0000 0.0000  plane waves:    2856
 k-point   3 :   0.3333 0.0000 0.0000  plane waves:    2864
 k-point   4 :   0.5000 0.0000 0.0000  plane waves:    2880
 k-point   5 :   0.0000 0.1667 0.0000  plane waves:    2850
 k-point   6 :   0.1667 0.1667 0.0000  plane waves:    2853
 k-point   7 :   0.1667-0.1667 0.0000  plane waves:    2853
 k-point   8 :   0.3333 0.1667 0.0000  plane waves:    2873
 k-point   9 :   0.3333-0.1667 0.0000  plane waves:    2873
 k-point  10 :   0.5000 0.1667 0.0000  plane waves:    2866
 k-point  11 :   0.0000 0.3333 0.0000  plane waves:    2864
 k-point  12 :   0.1667 0.3333 0.0000  plane waves:    2871
 k-point  13 :   0.1667-0.3333 0.0000  plane waves:    2871
 k-point  14 :   0.3333 0.3333 0.0000  plane waves:    2883
 k-point  15 :   0.3333-0.3333 0.0000  plane waves:    2883
 k-point  16 :   0.5000 0.3333 0.0000  plane waves:    2880
 k-point  17 :   0.0000 0.5000 0.0000  plane waves:    2874
 k-point  18 :   0.1667 0.5000 0.0000  plane waves:    2880
 k-point  19 :   0.3333 0.5000 0.0000  plane waves:    2888
 k-point  20 :   0.5000 0.5000 0.0000  plane waves:    2896
 k-point  21 :   0.0000 0.0000 0.5000  plane waves:    2828
 k-point  22 :   0.1667 0.0000 0.5000  plane waves:    2838
 k-point  23 :   0.3333 0.0000 0.5000  plane waves:    2868
 k-point  24 :   0.5000 0.0000 0.5000  plane waves:    2852
 k-point  25 :   0.0000 0.1667 0.5000  plane waves:    2846
 k-point  26 :   0.1667 0.1667 0.5000  plane waves:    2868
 k-point  27 :   0.1667-0.1667 0.5000  plane waves:    2868
 k-point  28 :   0.3333 0.1667 0.5000  plane waves:    2866
 k-point  29 :   0.3333-0.1667 0.5000  plane waves:    2866
 k-point  30 :   0.5000 0.1667 0.5000  plane waves:    2884
 k-point  31 :   0.0000 0.3333 0.5000  plane waves:    2852
 k-point  32 :   0.1667 0.3333 0.5000  plane waves:    2862
 k-point  33 :   0.1667-0.3333 0.5000  plane waves:    2862
 k-point  34 :   0.3333 0.3333 0.5000  plane waves:    2874
 k-point  35 :   0.3333-0.3333 0.5000  plane waves:    2874
 k-point  36 :   0.5000 0.3333 0.5000  plane waves:    2892
 k-point  37 :   0.0000 0.5000 0.5000  plane waves:    2872
 k-point  38 :   0.1667 0.5000 0.5000  plane waves:    2856
 k-point  39 :   0.3333 0.5000 0.5000  plane waves:    2876
 k-point  40 :   0.5000 0.5000 0.5000  plane waves:    2872

 maximum and minimum number of plane-waves per node :       592      553

 maximum number of plane-waves:      2896
 maximum index in each direction: 
   IXMAX=    5   IYMAX=    7   IZMAX=   16
   IXMIN=   -6   IYMIN=   -7   IZMIN=  -16


 parallel 3D FFT for wavefunctions:
    minimum data exchange during FFTs selected (reduces bandwidth)
 parallel 3D FFT for charge:
    minimum data exchange during FFTs selected (reduces bandwidth)


 total amount of memory used by VASP MPI-rank0    36587. kBytes
=======================================================================

   base      :      30000. kBytes
   nonl-proj :       5001. kBytes
   fftplans  :        306. kBytes
   grid      :        466. kBytes
   one-center:         16. kBytes
   wavefun   :        798. kBytes
 
     INWAV:  cpu time      0.0000: real time      0.0001
 Broyden mixing: mesh for mixing (old mesh)
   NGX = 11   NGY = 15   NGZ = 33
  (NGX  = 36   NGY  = 48   NGZ  =100)
  gives a total of   5445 points

 initial charge density was supplied:
 charge density of overlapping atoms calculated
 number of electron      40.0000000 magnetization 
 keeping initial charge density in first step


--------------------------------------------------------------------------------------------------------


 Maximum index for augmentation-charges           398 (set IRDMAX)


--------------------------------------------------------------------------------------------------------


 First call to EWALD:  gamma=   0.311
 Maximum number of real-space cells 4x 3x 2
 Maximum number of reciprocal cells 2x 2x 5

    FEWALD:  cpu time      0.0010: real time      0.0011


--------------------------------------- Ionic step        1  -------------------------------------------




--------------------------------------- Iteration      1(   1)  ---------------------------------------


    POTLOK:  cpu time      0.0081: real time      0.0082
    SETDIJ:  cpu time      0.2193: real time      0.2199
     EDDAV:  cpu time      0.3068: real time      0.3086
       DOS:  cpu time      0.0012: real time      0.0012
    --------------------------------------------
      LOOP:  cpu time      0.5354: real time      0.5379

 eigenvalue-minimisations  :  2560
 total energy-change (2. order) : 0.1313511E+03  (-0.1300809E+04)
 number of electron      40.0000000 magnetization 
 augmentation part       40.0000000 magnetization 

 Free energy of the ion-electron system (eV)
  ---------------------------------------------------
  alpha Z        PSCENC =        91.66130333
  Ewald energy   TEWEN  =     -1442.24991331
  -Hartree energ DENC   =      -121.46390058
  -exchange      EXHF   =         0.00000000
  -V(xc)+E(xc)   XCENC  =       -32.67089016
  PAW double counting   =      1193.78262552    -1080.73714043
  entropy T*S    EENTRO =        -0.00301251
  eigenvalues    EBANDS =        74.54745607
  atomic energy  EATOM  =      1448.48460880
  Solvation  Ediel_sol  =         0.00000000
  ---------------------------------------------------
  free energy    TOTEN  =       131.35113672 eV

  energy without entropy =      131.35414923  energy(sigma->0) =      131.35264297


--------------------------------------------------------------------------------------------------------




--------------------------------------- Iteration      1(   2)  ---------------------------------------


     EDDAV:  cpu time      0.4347: real time      0.4372
       DOS:  cpu time      0.0006: real time      0.0007
    --------------------------------------------
      LOOP:  cpu time      0.4353: real time      0.4378

 eigenvalue-minimisations  :  3728
 total energy-change (2. order) :-0.1564405E+03  (-0.1523121E+03)
 number of electron      40.0000000 magnetization 
 augmentation part       40.0000000 magnetization 

 Free energy of the ion-electron system (eV)
  ---------------------------------------------------
  alpha Z        PSCENC =        91.66130333
  Ewald energy   TEWEN  =     -1442.24991331
  -Hartree energ DENC   =      -121.46390058
  -exchange      EXHF   =         0.00000000
  -V(xc)+E(xc)   XCENC  =       -32.67089016
  PAW double counting   =      1193.78262552    -1080.73714043
  entropy T*S    EENTRO =        -0.00000000
  eigenvalues    EBANDS =       -81.89603137
  atomic energy  EATOM  =      1448.48460880
  Solvation  Ediel_sol  =         0.00000000
  ---------------------------------------------------
  free energy    TOTEN  =       -25.08933821 eV

  energy without entropy =      -25.08933821  energy(sigma->0) =      -25.08933821


--------------------------------------------------------------------------------------------------------




--------------------------------------- Iteration      1(   3)  ---------------------------------------


     EDDAV:  cpu time      0.4249: real time      0.4271
       DOS:  cpu time      0.0005: real time      0.0005
    --------------------------------------------
      LOOP:  cpu time      0.4254: real time      0.4277

 eigenvalue-minimisations  :  3232
 total energy-change (2. order) :-0.8399106E+01  (-0.8383335E+01)
 number of electron      40.0000000 magnetization 
 augmentation part       40.0000000 magnetization 

 Free energy of the ion-electron system (eV)
  ---------------------------------------------------
  alpha Z        PSCENC =        91.66130333
  Ewald energy   TEWEN  =     -1442.24991331
  -Hartree energ DENC   =      -121.46390058
  -exchange      EXHF   =         0.00000000
  -V(xc)+E(xc)   XCENC  =       -32.67089016
  PAW double counting   =      1193.78262552    -1080.73714043
  entropy T*S    EENTRO =        -0.00000000
  eigenvalues    EBANDS =       -90.29513764
  atomic energy  EATOM  =      1448.48460880
  Solvation  Ediel_sol  =         0.00000000
  ---------------------------------------------------
  free energy    TOTEN  =       -33.48844448 eV

  energy without entropy =      -33.48844448  energy(sigma->0) =      -33.48844448


--------------------------------------------------------------------------------------------------------




--------------------------------------- Iteration      1(   4)  ---------------------------------------


     EDDAV:  cpu time      0.4225: real time      0.4251
       DOS:  cpu time      0.0005: real time      0.0005
    --------------------------------------------
      LOOP:  cpu time      0.4230: real time      0.4257

 eigenvalue-minimisations  :  3280
 total energy-change (2. order) :-0.5443035E-01  (-0.5442226E-01)
 number of electron      40.0000000 magnetization 
 augmentation part       40.0000000 magnetization 

 Free energy of the ion-electron system (eV)
  ---------------------------------------------------
  alpha Z        PSCENC =        91.66130333
  Ewald energy   TEWEN  =     -1442.24991331
  -Hartree energ DENC   =      -121.46390058
  -exchange      EXHF   =         0.00000000
  -V(xc)+E(xc)   XCENC  =       -32.67089016
  PAW double counting   =      1193.78262552    -1080.73714043
  entropy T*S    EENTRO =        -0.00000000
  eigenvalues    EBANDS =       -90.34956800
  atomic energy  EATOM  =      1448.48460880
  Solvation  Ediel_sol  =         0.00000000
  ---------------------------------------------------
  free energy    TOTEN  =       -33.54287484 eV

  energy without entropy =      -33.54287484  energy(sigma->0) =      -33.54287484


--------------------------------------------------------------------------------------------------------




--------------------------------------- Iteration      1(   5)  ---------------------------------------


     EDDAV:  cpu time      0.3949: real time      0.3975
       DOS:  cpu time      0.0006: real time      0.0006
    CHARGE:  cpu time      0.0062: real time      0.0062
    MIXING:  cpu time      0.0008: real time      0.0008
    --------------------------------------------
      LOOP:  cpu time      0.4024: real time      0.4050

 eigenvalue-minimisations  :  3216
 total energy-change (2. order) :-0.3391923E-03  (-0.3391826E-03)
 number of electron      40.0000030 magnetization 
 augmentation part       -7.4503662 magnetization 

 Broyden mixing:
  rms(total) = 0.68578E+00    rms(broyden)= 0.68577E+00
  rms(prec ) = 0.76866E+00
  weight for this iteration     100.00

 Free energy of the ion-electron system (eV)
  ---------------------------------------------------
  alpha Z        PSCENC =        91.66130333
  Ewald energy   TEWEN  =     -1442.24991331
  -Hartree energ DENC   =      -121.46390058
  -exchange      EXHF   =         0.00000000
  -V(xc)+E(xc)   XCENC  =       -32.67089016
  PAW double counting   =      1193.78262552    -1080.73714043
  entropy T*S    EENTRO =        -0.00000000
  eigenvalues    EBANDS =       -90.34990719
  atomic energy  EATOM  =      1448.48460880
  Solvation  Ediel_sol  =         0.00000000
  ---------------------------------------------------
  free energy    TOTEN  =       -33.54321403 eV

  energy without entropy =      -33.54321403  energy(sigma->0) =      -33.54321403


--------------------------------------------------------------------------------------------------------




--------------------------------------- Iteration      1(   6)  ---------------------------------------


    POTLOK:  cpu time      0.0075: real time      0.0077
    SETDIJ:  cpu time      0.2185: real time      0.2193
     EDDAV:  cpu time      0.3739: real time      0.3758
       DOS:  cpu time      0.0009: real time      0.0009
    CHARGE:  cpu time      0.0077: real time      0.0077
    MIXING:  cpu time      0.0004: real time      0.0004
    --------------------------------------------
      LOOP:  cpu time      0.6090: real time      0.6118

 eigenvalue-minimisations  :  3088
 total energy-change (2. order) : 0.3765660E+00  (-0.7013419E-01)
 number of electron      40.0000030 magnetization 
 augmentation part       -7.3942931 magnetization 

 Broyden mixing:
  rms(total) = 0.42994E+00    rms(broyden)= 0.42994E+00
  rms(prec ) = 0.45221E+00
  weight for this iteration     100.00

 eigenvalues of (default mixing * dielectric matrix)
  average eigenvalue GAMMA=   2.2911
  2.2911

 Free energy of the ion-electron system (eV)
  ---------------------------------------------------
  alpha Z        PSCENC =        91.66130333
  Ewald energy   TEWEN  =     -1442.24991331
  -Hartree energ DENC   =      -127.37970607
  -exchange      EXHF   =         0.00000000
  -V(xc)+E(xc)   XCENC  =       -32.07659556
  PAW double counting   =      1479.65846460    -1366.95948468
  entropy T*S    EENTRO =        -0.00000096
  eigenvalues    EBANDS =       -84.30532420
  atomic energy  EATOM  =      1448.48460880
  Solvation  Ediel_sol  =         0.00000000
  ---------------------------------------------------
  free energy    TOTEN  =       -33.16664806 eV

  energy without entropy =      -33.16664710  energy(sigma->0) =      -33.16664758


--------------------------------------------------------------------------------------------------------




--------------------------------------- Iteration      1(   7)  ---------------------------------------


    POTLOK:  cpu time      0.0089: real time      0.0090
    SETDIJ:  cpu time      0.2168: real time      0.2174
     EDDAV:  cpu time      0.3855: real time      0.3885
       DOS:  cpu time      0.0011: real time      0.0011
    CHARGE:  cpu time      0.0052: real time      0.0053
    MIXING:  cpu time      0.0005: real time      0.0005
    --------------------------------------------
      LOOP:  cpu time      0.6180: real time      0.6217

 eigenvalue-minimisations  :  3360
 total energy-change (2. order) : 0.1451684E-01  (-0.2574726E-01)
 number of electron      40.0000030 magnetization 
 augmentation part       -7.3734347 magnetization 

 Broyden mixing:
  rms(total) = 0.12489E+00    rms(broyden)= 0.12489E+00
  rms(prec ) = 0.13421E+00
  weight for this iteration     100.00

 eigenvalues of (default mixing * dielectric matrix)
  average eigenvalue GAMMA=   1.8478
  1.2615  2.4341

 Free energy of the ion-electron system (eV)
  ---------------------------------------------------
  alpha Z        PSCENC =        91.66130333
  Ewald energy   TEWEN  =     -1442.24991331
  -Hartree energ DENC   =      -130.61693254
  -exchange      EXHF   =         0.00000000
  -V(xc)+E(xc)   XCENC  =       -31.56522228
  PAW double counting   =      1861.42651598    -1749.02196306
  entropy T*S    EENTRO =        -0.00005905
  eigenvalues    EBANDS =       -81.27046910
  atomic energy  EATOM  =      1448.48460880
  Solvation  Ediel_sol  =         0.00000000
  ---------------------------------------------------
  free energy    TOTEN  =       -33.15213123 eV

  energy without entropy =      -33.15207218  energy(sigma->0) =      -33.15210170


--------------------------------------------------------------------------------------------------------




--------------------------------------- Iteration      1(   8)  ---------------------------------------


    POTLOK:  cpu time      0.0073: real time      0.0074
    SETDIJ:  cpu time      0.2183: real time      0.2189
     EDDAV:  cpu time      0.3515: real time      0.3532
       DOS:  cpu time      0.0009: real time      0.0009
    CHARGE:  cpu time      0.0059: real time      0.0059
    MIXING:  cpu time      0.0004: real time      0.0005
    --------------------------------------------
      LOOP:  cpu time      0.5843: real time      0.5868

 eigenvalue-minimisations  :  3008
 total energy-change (2. order) : 0.2541351E-02  (-0.2919457E-02)
 number of electron      40.0000030 magnetization 
 augmentation part       -7.3838257 magnetization 

 Broyden mixing:
  rms(total) = 0.17101E-01    rms(broyden)= 0.17101E-01
  rms(prec ) = 0.21273E-01
  weight for this iteration     100.00

 eigenvalues of (default mixing * dielectric matrix)
  average eigenvalue GAMMA=   1.7289
  2.4947  1.3460  1.3460

 Free energy of the ion-electron system (eV)
  ---------------------------------------------------
  alpha Z        PSCENC =        91.66130333
  Ewald energy   TEWEN  =     -1442.24991331
  -Hartree energ DENC   =      -130.51164853
  -exchange      EXHF   =         0.00000000
  -V(xc)+E(xc)   XCENC  =       -31.45614706
  PAW double counting   =      1998.99717120    -1886.64977972
  entropy T*S    EENTRO =        -0.00001957
  eigenvalues    EBANDS =       -81.42516500
  atomic energy  EATOM  =      1448.48460880
  Solvation  Ediel_sol  =         0.00000000
  ---------------------------------------------------
  free energy    TOTEN  =       -33.14958988 eV

  energy without entropy =      -33.14957031  energy(sigma->0) =      -33.14958009


--------------------------------------------------------------------------------------------------------




--------------------------------------- Iteration      1(   9)  ---------------------------------------


    POTLOK:  cpu time      0.0074: real time      0.0075
    SETDIJ:  cpu time      0.2268: real time      0.2275
     EDDAV:  cpu time      0.3731: real time      0.3755
       DOS:  cpu time      0.0009: real time      0.0009
    CHARGE:  cpu time      0.0054: real time      0.0054
    MIXING:  cpu time      0.0005: real time      0.0005
    --------------------------------------------
      LOOP:  cpu time      0.6141: real time      0.6173

 eigenvalue-minimisations  :  3024
 total energy-change (2. order) :-0.2443720E-03  (-0.3707182E-03)
 number of electron      40.0000030 magnetization 
 augmentation part       -7.3816121 magnetization 

 Broyden mixing:
  rms(total) = 0.59644E-02    rms(broyden)= 0.59644E-02
  rms(prec ) = 0.69426E-02
  weight for this iteration     100.00

 eigenvalues of (default mixing * dielectric matrix)
  average eigenvalue GAMMA=   1.7072
  2.2163  2.2163  1.1982  1.1982

 Free energy of the ion-electron system (eV)
  ---------------------------------------------------
  alpha Z        PSCENC =        91.66130333
  Ewald energy   TEWEN  =     -1442.24991331
  -Hartree energ DENC   =      -130.87368909
  -exchange      EXHF   =         0.00000000
  -V(xc)+E(xc)   XCENC  =       -31.42125404
  PAW double counting   =      2008.55902985    -1896.21983377
  entropy T*S    EENTRO =        -0.00002240
  eigenvalues    EBANDS =       -81.09006361
  atomic energy  EATOM  =      1448.48460880
  Solvation  Ediel_sol  =         0.00000000
  ---------------------------------------------------
  free energy    TOTEN  =       -33.14983425 eV

  energy without entropy =      -33.14981185  energy(sigma->0) =      -33.14982305


--------------------------------------------------------------------------------------------------------




--------------------------------------- Iteration      1(  10)  ---------------------------------------


    POTLOK:  cpu time      0.0073: real time      0.0075
    SETDIJ:  cpu time      0.2183: real time      0.2188
     EDDAV:  cpu time      0.3760: real time      0.3779
       DOS:  cpu time      0.0010: real time      0.0010
    CHARGE:  cpu time      0.0054: real time      0.0054
    MIXING:  cpu time      0.0005: real time      0.0005
    --------------------------------------------
      LOOP:  cpu time      0.6085: real time      0.6112

 eigenvalue-minimisations  :  3248
 total energy-change (2. order) :-0.1035667E-03  (-0.2540339E-04)
 number of electron      40.0000030 magnetization 
 augmentation part       -7.3815715 magnetization 

 Broyden mixing:
  rms(total) = 0.22878E-02    rms(broyden)= 0.22878E-02
  rms(prec ) = 0.28683E-02
  weight for this iteration     100.00

 eigenvalues of (default mixing * dielectric matrix)
  average eigenvalue GAMMA=   1.7655
  2.5789  2.5789  1.1495  1.2600  1.2600

 Free energy of the ion-electron system (eV)
  ---------------------------------------------------
  alpha Z        PSCENC =        91.66130333
  Ewald energy   TEWEN  =     -1442.24991331
  -Hartree energ DENC   =      -130.90695628
  -exchange      EXHF   =         0.00000000
  -V(xc)+E(xc)   XCENC  =       -31.41673739
  PAW double counting   =      2004.01158004    -1891.66819819
  entropy T*S    EENTRO =        -0.00001999
  eigenvalues    EBANDS =       -81.06560482
  atomic energy  EATOM  =      1448.48460880
  Solvation  Ediel_sol  =         0.00000000
  ---------------------------------------------------
  free energy    TOTEN  =       -33.14993782 eV

  energy without entropy =      -33.14991783  energy(sigma->0) =      -33.14992782


--------------------------------------------------------------------------------------------------------




--------------------------------------- Iteration      1(  11)  ---------------------------------------


    POTLOK:  cpu time      0.0072: real time      0.0074
    SETDIJ:  cpu time      0.2173: real time      0.2181
     EDDAV:  cpu time      0.3578: real time      0.3600
       DOS:  cpu time      0.0009: real time      0.0009
    CHARGE:  cpu time      0.0053: real time      0.0054
    MIXING:  cpu time      0.0005: real time      0.0005
    --------------------------------------------
      LOOP:  cpu time      0.5891: real time      0.5922

 eigenvalue-minimisations  :  3024
 total energy-change (2. order) :-0.3310372E-04  (-0.4218223E-05)
 number of electron      40.0000030 magnetization 
 augmentation part       -7.3817772 magnetization 

 Broyden mixing:
  rms(total) = 0.10849E-02    rms(broyden)= 0.10849E-02
  rms(prec ) = 0.12753E-02
  weight for this iteration     100.00

 eigenvalues of (default mixing * dielectric matrix)
  average eigenvalue GAMMA=   1.7508
  2.4827  2.4827  2.2092  1.2017  1.2017  0.9268

 Free energy of the ion-electron system (eV)
  ---------------------------------------------------
  alpha Z        PSCENC =        91.66130333
  Ewald energy   TEWEN  =     -1442.24991331
  -Hartree energ DENC   =      -130.93248014
  -exchange      EXHF   =         0.00000000
  -V(xc)+E(xc)   XCENC  =       -31.41105864
  PAW double counting   =      2004.69856279    -1892.35481954
  entropy T*S    EENTRO =        -0.00001935
  eigenvalues    EBANDS =       -81.04615486
  atomic energy  EATOM  =      1448.48460880
  Solvation  Ediel_sol  =         0.00000000
  ---------------------------------------------------
  free energy    TOTEN  =       -33.14997092 eV

  energy without entropy =      -33.14995157  energy(sigma->0) =      -33.14996124


--------------------------------------------------------------------------------------------------------




--------------------------------------- Iteration      1(  12)  ---------------------------------------


    POTLOK:  cpu time      0.0073: real time      0.0074
    SETDIJ:  cpu time      0.2184: real time      0.2189
     EDDAV:  cpu time      0.4024: real time      0.4049
       DOS:  cpu time      0.0009: real time      0.0009
    CHARGE:  cpu time      0.0052: real time      0.0052
    MIXING:  cpu time      0.0005: real time      0.0005
    --------------------------------------------
      LOOP:  cpu time      0.6347: real time      0.6378

 eigenvalue-minimisations  :  3328
 total energy-change (2. order) :-0.1586071E-05  (-0.7161333E-06)
 number of electron      40.0000030 magnetization 
 augmentation part       -7.3816775 magnetization 

 Broyden mixing:
  rms(total) = 0.25779E-03    rms(broyden)= 0.25779E-03
  rms(prec ) = 0.31624E-03
  weight for this iteration     100.00

 eigenvalues of (default mixing * dielectric matrix)
  average eigenvalue GAMMA=   1.7123
  2.9258  2.4106  2.0191  1.3093  1.0269  1.1473  1.1473

 Free energy of the ion-electron system (eV)
  ---------------------------------------------------
  alpha Z        PSCENC =        91.66130333
  Ewald energy   TEWEN  =     -1442.24991331
  -Hartree energ DENC   =      -130.94916378
  -exchange      EXHF   =         0.00000000
  -V(xc)+E(xc)   XCENC  =       -31.40947690
  PAW double counting   =      2004.31992379    -1891.97617372
  entropy T*S    EENTRO =        -0.00001981
  eigenvalues    EBANDS =       -81.03106089
  atomic energy  EATOM  =      1448.48460880
  Solvation  Ediel_sol  =         0.00000000
  ---------------------------------------------------
  free energy    TOTEN  =       -33.14997251 eV

  energy without entropy =      -33.14995270  energy(sigma->0) =      -33.14996260


--------------------------------------------------------------------------------------------------------




--------------------------------------- Iteration      1(  13)  ---------------------------------------


    POTLOK:  cpu time      0.0073: real time      0.0075
    SETDIJ:  cpu time      0.2220: real time      0.2226
     EDDAV:  cpu time      0.2782: real time      0.2798
       DOS:  cpu time      0.0009: real time      0.0009
    --------------------------------------------
      LOOP:  cpu time      0.5084: real time      0.5108

 eigenvalue-minimisations  :  1952
 total energy-change (2. order) :-0.3181169E-06  (-0.9953440E-07)
 number of electron      40.0000030 magnetization 
 augmentation part       -7.3816775 magnetization 

 Free energy of the ion-electron system (eV)
  ---------------------------------------------------
  alpha Z        PSCENC =        91.66130333
  Ewald energy   TEWEN  =     -1442.24991331
  -Hartree energ DENC   =      -130.95211360
  -exchange      EXHF   =         0.00000000
  -V(xc)+E(xc)   XCENC  =       -31.40910833
  PAW double counting   =      2004.25872854    -1891.91485790
  entropy T*S    EENTRO =        -0.00001969
  eigenvalues    EBANDS =       -81.02860066
  atomic energy  EATOM  =      1448.48460880
  Solvation  Ediel_sol  =         0.00000000
  ---------------------------------------------------
  free energy    TOTEN  =       -33.14997282 eV

  energy without entropy =      -33.14995313  energy(sigma->0) =      -33.14996298


--------------------------------------------------------------------------------------------------------




 average (electrostatic) potential at core
  the test charge radii are     1.1631  1.0808
  (the norm of the test charge is              1.0000)
       1 -33.0120       2 -33.0120       3 -33.0120       4 -33.0120       5 -54.5760
       6 -54.5760       7 -54.5760       8 -54.5760
 
 
 
 E-fermi :   4.3236     XC(G=0):  -9.4832     alpha+bet : -9.1315

 Fermi energy:         4.3236211866

 k-point     1 :       0.0000    0.0000    0.0000
  band No.  band energies     occupation 
      1     -10.8249      2.00000
      2     -10.2327      2.00000
      3      -9.6133      2.00000
      4      -8.7407      2.00000
      5      -4.3280      2.00000
      6      -3.9110      2.00000
      7      -2.5792      2.00000
      8      -2.1988      2.00000
      9      -1.4645      2.00000
     10      -0.3105      2.00000
     11       0.4307      2.00000
     12       0.4685      2.00000
     13       0.7368      2.00000
     14       0.8623      2.00000
     15       1.3480      2.00000
     16       1.7220      2.00000
     17       2.1692      2.00000
     18       2.6385      2.00000
     19       3.1391      2.00000
     20       3.2766      2.00000
     21       5.0906      0.00000
     22       5.9906      0.00000
     23       6.1288      0.00000
     24       6.2895      0.00000
     25       6.7049      0.00000
     26       7.3837      0.00000
     27       7.3876      0.00000
     28       8.0476      0.00000
     29       8.1330      0.00000
     30       8.8818      0.00000
     31       9.0112      0.00000
     32      10.2051      0.00000

 k-point     2 :       0.1667    0.0000    0.0000
  band No.  band energies     occupation 
      1     -10.6306      2.00000
      2     -10.0609      2.00000
      3      -9.4819      2.00000
      4      -8.7109      2.00000
      5      -4.6107      2.00000
      6      -4.0602      2.00000
      7      -3.1138      2.00000
      8      -2.1587      2.00000
      9      -1.6994      2.00000
     10      -0.1051      2.00000
     11      -0.0237      2.00000
     12       0.3549      2.00000
     13       0.8514      2.00000
     14       0.8984      2.00000
     15       1.4461      2.00000
     16       1.5717      2.00000
     17       2.0659      2.00000
     18       2.4159      2.00000
     19       3.3148      2.00000
     20       3.4708      2.00000
     21       5.0381      0.00000
     22       5.8034      0.00000
     23       6.0716      0.00000
     24       6.7575      0.00000
     25       6.8270      0.00000
     26       7.0592      0.00000
     27       7.1267      0.00000
     28       7.8237      0.00000
     29       8.0251      0.00000
     30       8.2241      0.00000
     31       8.4575      0.00000
     32       9.7605      0.00000

 k-point     3 :       0.3333    0.0000    0.0000
  band No.  band energies     occupation 
      1     -10.0950      2.00000
      2      -9.6121      2.00000
      3      -9.2342      2.00000
      4      -8.7916      2.00000
      5      -5.1660      2.00000
      6      -4.3083      2.00000
      7      -4.2826      2.00000
      8      -3.0299      2.00000
      9      -1.2608      2.00000
     10      -0.1199      2.00000
     11       0.2643      2.00000
     12       0.5274      2.00000
     13       0.9193      2.00000
     14       1.0451      2.00000
     15       1.5063      2.00000
     16       1.7058      2.00000
     17       2.1210      2.00000
     18       2.1718      2.00000
     19       3.3976      2.00000
     20       3.5777      2.00000
     21       4.6034      0.00000
     22       4.9187      0.00000
     23       4.9883      0.00000
     24       5.5620      0.00000
     25       5.9272      0.00000
     26       6.1417      0.00000
     27       6.4773      0.00000
     28       7.0280      0.00000
     29       7.5303      0.00000
     30       7.9253      0.00000
     31       8.9696      0.00000
     32       9.9328      0.00000

 k-point     4 :       0.5000    0.0000    0.0000
  band No.  band energies     occupation 
      1      -9.4237      2.00000
      2      -9.4237      2.00000
      3      -9.1314      2.00000
      4      -9.1314      2.00000
      5      -5.1720      2.00000
      6      -5.1720      2.00000
      7      -3.9957      2.00000
      8      -3.9957      2.00000
      9      -0.4567      2.00000
     10      -0.4567      2.00000
     11       0.7380      2.00000
     12       0.7380      2.00000
     13       1.0720      2.00000
     14       1.0720      2.00000
     15       1.4130      2.00000
     16       1.4130      2.00000
     17       2.2693      2.00000
     18       2.2693      2.00000
     19       3.3922      2.00000
     20       3.3922      2.00000
     21       4.5073      0.00000
     22       4.5073      0.00000
     23       4.8563      0.00000
     24       4.8563      0.00000
     25       5.5004      0.00000
     26       5.5004      0.00000
     27       6.2459      0.00000
     28       6.2459      0.00000
     29       7.0587      0.00000
     30       7.0587      0.00000
     31       9.7603      0.00000
     32       9.7603      0.00000

 k-point     5 :       0.0000    0.1667    0.0000
  band No.  band energies     occupation 
      1     -10.7131      2.00000
      2     -10.1228      2.00000
      3      -9.6239      2.00000
      4      -8.8091      2.00000
      5      -4.7038      2.00000
      6      -3.9251      2.00000
      7      -3.2549      2.00000
      8      -2.2437      2.00000
      9      -1.6214      2.00000
     10       0.0940      2.00000
     11       0.5622      2.00000
     12       0.6417      2.00000
     13       0.9165      2.00000
     14       1.3234      2.00000
     15       1.7100      2.00000
     16       1.8496      2.00000
     17       2.2014      2.00000
     18       2.2538      2.00000
     19       3.5407      2.00000
     20       3.5824      2.00000
     21       4.9629      0.00000
     22       5.5798      0.00000
     23       6.1170      0.00000
     24       6.2371      0.00000
     25       6.2942      0.00000
     26       6.8589      0.00000
     27       7.1007      0.00000
     28       7.9698      0.00000
     29       8.0411      0.00000
     30       8.4317      0.00000
     31       8.6583      0.00000
     32      10.1083      0.00000

 k-point     6 :       0.1667    0.1667    0.0000
  band No.  band energies     occupation 
      1     -10.5259      2.00000
      2      -9.9554      2.00000
      3      -9.4932      2.00000
      4      -8.7739      2.00000
      5      -4.7221      2.00000
      6      -4.1184      2.00000
      7      -3.3986      2.00000
      8      -2.5012      2.00000
      9      -1.6539      2.00000
     10      -0.6470      2.00000
     11      -0.1634      2.00000
     12       0.9071      2.00000
     13       1.0216      2.00000
     14       1.0550      2.00000
     15       1.5226      2.00000
     16       1.9023      2.00000
     17       2.2014      2.00000
     18       2.3525      2.00000
     19       3.3463      2.00000
     20       3.7006      2.00000
     21       5.0348      0.00000
     22       5.3660      0.00000
     23       6.0147      0.00000
     24       6.0762      0.00000
     25       6.8441      0.00000
     26       6.9798      0.00000
     27       7.4162      0.00000
     28       7.6456      0.00000
     29       7.8276      0.00000
     30       8.3697      0.00000
     31       8.6135      0.00000
     32       9.9619      0.00000

 k-point     7 :       0.1667   -0.1667    0.0000
  band No.  band energies     occupation 
      1     -10.5214      2.00000
      2      -9.9596      2.00000
      3      -9.4944      2.00000
      4      -8.7667      2.00000
      5      -4.8570      2.00000
      6      -3.9747      2.00000
      7      -3.5398      2.00000
      8      -2.3582      2.00000
      9      -1.5156      2.00000
     10      -0.5891      2.00000
     11       0.0041      2.00000
     12       0.5312      2.00000
     13       0.8436      2.00000
     14       1.1597      2.00000
     15       1.2885      2.00000
     16       2.0397      2.00000
     17       2.2063      2.00000
     18       2.4172      2.00000
     19       3.4114      2.00000
     20       3.8167      2.00000
     21       4.8996      0.00000
     22       5.3461      0.00000
     23       5.8793      0.00000
     24       5.9816      0.00000
     25       6.9864      0.00000
     26       7.1269      0.00000
     27       7.5206      0.00000
     28       7.6520      0.00000
     29       7.9780      0.00000
     30       8.2875      0.00000
     31       8.5324      0.00000
     32       9.8804      0.00000

 k-point     8 :       0.3333    0.1667    0.0000
  band No.  band energies     occupation 
      1     -10.0130      2.00000
      2      -9.5257      2.00000
      3      -9.2327      2.00000
      4      -8.8260      2.00000
      5      -5.0172      2.00000
      6      -4.3249      2.00000
      7      -4.2574      2.00000
      8      -3.1878      2.00000
      9      -1.1983      2.00000
     10      -0.8902      2.00000
     11      -0.4202      2.00000
     12       0.4043      2.00000
     13       0.9710      2.00000
     14       1.0378      2.00000
     15       1.3731      2.00000
     16       1.6157      2.00000
     17       1.6286      2.00000
     18       2.4358      2.00000
     19       3.2423      2.00000
     20       3.5825      2.00000
     21       4.7011      0.00000
     22       5.2580      0.00000
     23       5.4270      0.00000
     24       5.6518      0.00000
     25       6.2613      0.00000
     26       6.8291      0.00000
     27       6.9089      0.00000
     28       7.7222      0.00000
     29       7.8041      0.00000
     30       8.6779      0.00000
     31       8.9601      0.00000
     32       9.7429      0.00000

 k-point     9 :       0.3333   -0.1667    0.0000
  band No.  band energies     occupation 
      1     -10.0004      2.00000
      2      -9.5395      2.00000
      3      -9.2492      2.00000
      4      -8.7976      2.00000
      5      -5.1694      2.00000
      6      -4.3329      2.00000
      7      -4.1589      2.00000
      8      -3.0938      2.00000
      9      -1.1196      2.00000
     10      -0.9493      2.00000
     11      -0.1097      2.00000
     12       0.2798      2.00000
     13       0.5349      2.00000
     14       1.0442      2.00000
     15       1.2930      2.00000
     16       1.5988      2.00000
     17       1.9770      2.00000
     18       2.2653      2.00000
     19       3.1395      2.00000
     20       3.9742      2.00000
     21       4.5816      0.00000
     22       5.0922      0.00000
     23       5.2644      0.00000
     24       5.6598      0.00000
     25       6.4827      0.00000
     26       6.7700      0.00000
     27       7.1989      0.00000
     28       7.6905      0.00000
     29       7.8326      0.00000
     30       8.0974      0.00000
     31       9.2668      0.00000
     32       9.7656      0.00000

 k-point    10 :       0.5000    0.1667    0.0000
  band No.  band energies     occupation 
      1      -9.3990      2.00000
      2      -9.3619      2.00000
      3      -9.1212      2.00000
      4      -9.0763      2.00000
      5      -5.0926      2.00000
      6      -5.0472      2.00000
      7      -3.9907      2.00000
      8      -3.9365      2.00000
      9      -0.5791      2.00000
     10      -0.4931      2.00000
     11      -0.1263      2.00000
     12      -0.0431      2.00000
     13       0.5077      2.00000
     14       0.6007      2.00000
     15       1.2008      2.00000
     16       1.4932      2.00000
     17       1.8322      2.00000
     18       1.8751      2.00000
     19       3.2886      2.00000
     20       3.8235      2.00000
     21       4.6088      0.00000
     22       4.7674      0.00000
     23       5.6339      0.00000
     24       5.9912      0.00000
     25       6.1525      0.00000
     26       6.2053      0.00000
     27       6.4645      0.00000
     28       6.9343      0.00000
     29       7.7805      0.00000
     30       8.0977      0.00000
     31       9.2661      0.00000
     32       9.4517      0.00000

 k-point    11 :       0.0000    0.3333    0.0000
  band No.  band energies     occupation 
      1     -10.4093      2.00000
      2      -9.8204      2.00000
      3      -9.7286      2.00000
      4      -9.0374      2.00000
      5      -5.1031      2.00000
      6      -4.2711      2.00000
      7      -3.9459      2.00000
      8      -2.9423      2.00000
      9      -1.2943      2.00000
     10       0.1651      2.00000
     11       0.8913      2.00000
     12       1.2544      2.00000
     13       1.3130      2.00000
     14       1.5846      2.00000
     15       1.9266      2.00000
     16       2.3333      2.00000
     17       2.4324      2.00000
     18       2.9383      2.00000
     19       3.6618      2.00000
     20       3.9390      2.00000
     21       4.4282      0.00309
     22       5.1333      0.00000
     23       5.4920      0.00000
     24       5.7473      0.00000
     25       6.2251      0.00000
     26       6.3332      0.00000
     27       6.6595      0.00000
     28       7.1842      0.00000
     29       7.2648      0.00000
     30       7.6787      0.00000
     31       9.2426      0.00000
     32      10.3276      0.00000

 k-point    12 :       0.1667    0.3333    0.0000
  band No.  band energies     occupation 
      1     -10.2390      2.00000
      2      -9.6711      2.00000
      3      -9.5919      2.00000
      4      -8.9762      2.00000
      5      -4.9833      2.00000
      6      -4.1877      2.00000
      7      -3.9791      2.00000
      8      -3.1055      2.00000
      9      -1.1847      2.00000
     10      -0.7054      2.00000
     11      -0.2240      2.00000
     12       0.5207      2.00000
     13       0.9101      2.00000
     14       1.0265      2.00000
     15       1.8198      2.00000
     16       2.0069      2.00000
     17       2.2450      2.00000
     18       3.0064      2.00000
     19       3.5462      2.00000
     20       3.8650      2.00000
     21       5.0120      0.00000
     22       5.5863      0.00000
     23       5.7312      0.00000
     24       6.2042      0.00000
     25       6.2172      0.00000
     26       6.8232      0.00000
     27       7.0092      0.00000
     28       7.7010      0.00000
     29       7.7675      0.00000
     30       8.5115      0.00000
     31       8.9155      0.00000
     32       9.7123      0.00000

 k-point    13 :       0.1667   -0.3333    0.0000
  band No.  band energies     occupation 
      1     -10.2305      2.00000
      2      -9.6802      2.00000
      3      -9.5979      2.00000
      4      -8.9629      2.00000
      5      -5.0553      2.00000
      6      -4.2827      2.00000
      7      -3.9198      2.00000
      8      -2.9610      2.00000
      9      -1.1548      2.00000
     10      -0.5169      2.00000
     11      -0.0378      2.00000
     12       0.2812      2.00000
     13       0.3669      2.00000
     14       1.1287      2.00000
     15       1.8765      2.00000
     16       2.0988      2.00000
     17       2.6988      2.00000
     18       2.8191      2.00000
     19       3.3026      2.00000
     20       3.9345      2.00000
     21       4.9279      0.00000
     22       5.2857      0.00000
     23       5.5959      0.00000
     24       6.0777      0.00000
     25       6.6795      0.00000
     26       7.1323      0.00000
     27       7.3087      0.00000
     28       7.5513      0.00000
     29       7.6380      0.00000
     30       8.1860      0.00000
     31       8.9873      0.00000
     32      10.0677      0.00000

 k-point    14 :       0.3333    0.3333    0.0000
  band No.  band energies     occupation 
      1      -9.7881      2.00000
      2      -9.3108      2.00000
      3      -9.2909      2.00000
      4      -8.9219      2.00000
      5      -4.8234      2.00000
      6      -4.3676      2.00000
      7      -4.1521      2.00000
      8      -3.5015      2.00000
      9      -1.4753      2.00000
     10      -0.9737      2.00000
     11      -0.8027      2.00000
     12      -0.3333      2.00000
     13       0.3005      2.00000
     14       0.5997      2.00000
     15       0.6591      2.00000
     16       1.2877      2.00000
     17       1.3886      2.00000
     18       2.3325      2.00000
     19       3.0541      2.00000
     20       3.7341      2.00000
     21       5.1837      0.00000
     22       6.1537      0.00000
     23       6.2104      0.00000
     24       6.7308      0.00000
     25       7.1355      0.00000
     26       7.2841      0.00000
     27       7.9754      0.00000
     28       8.6218      0.00000
     29       8.6368      0.00000
     30       8.8975      0.00000
     31       9.2895      0.00000
     32       9.7145      0.00000

 k-point    15 :       0.3333   -0.3333    0.0000
  band No.  band energies     occupation 
      1      -9.7623      2.00000
      2      -9.3412      2.00000
      3      -9.3235      2.00000
      4      -8.8735      2.00000
      5      -5.0105      2.00000
      6      -4.4532      2.00000
      7      -3.9505      2.00000
      8      -3.3669      2.00000
      9      -1.4508      2.00000
     10      -1.0235      2.00000
     11      -0.5943      2.00000
     12      -0.3618      2.00000
     13       0.1781      2.00000
     14       0.2535      2.00000
     15       0.6677      2.00000
     16       1.3359      2.00000
     17       1.6753      2.00000
     18       2.1459      2.00000
     19       3.0227      2.00000
     20       4.2190      1.99691
     21       4.7028      0.00000
     22       6.0257      0.00000
     23       6.2789      0.00000
     24       6.6956      0.00000
     25       7.0323      0.00000
     26       7.5129      0.00000
     27       8.0457      0.00000
     28       8.2064      0.00000
     29       8.7687      0.00000
     30       9.1808      0.00000
     31       9.3193      0.00000
     32       9.5206      0.00000

 k-point    16 :       0.5000    0.3333    0.0000
  band No.  band energies     occupation 
      1      -9.3258      2.00000
      2      -9.2486      2.00000
      3      -9.0798      2.00000
      4      -8.9881      2.00000
      5      -4.8836      2.00000
      6      -4.7663      2.00000
      7      -3.9970      2.00000
      8      -3.8605      2.00000
      9      -1.1282      2.00000
     10      -1.1098      2.00000
     11      -0.5571      2.00000
     12      -0.5225      2.00000
     13      -0.2407      2.00000
     14      -0.0872      2.00000
     15       0.5444      2.00000
     16       1.0155      2.00000
     17       1.1134      2.00000
     18       1.3159      2.00000
     19       2.8856      2.00000
     20       4.0262      2.00000
     21       5.2770      0.00000
     22       5.8689      0.00000
     23       6.7998      0.00000
     24       6.9967      0.00000
     25       7.3890      0.00000
     26       7.5932      0.00000
     27       8.2635      0.00000
     28       8.5601      0.00000
     29       8.6976      0.00000
     30       8.7308      0.00000
     31       9.2142      0.00000
     32       9.3142      0.00000

 k-point    17 :       0.0000    0.5000    0.0000
  band No.  band energies     occupation 
      1     -10.0216      2.00000
      2     -10.0216      2.00000
      3      -9.4127      2.00000
      4      -9.4127      2.00000
      5      -4.9721      2.00000
      6      -4.9721      2.00000
      7      -3.6286      2.00000
      8      -3.6286      2.00000
      9      -0.6013      2.00000
     10      -0.6013      2.00000
     11       1.3378      2.00000
     12       1.3378      2.00000
     13       1.6781      2.00000
     14       1.6781      2.00000
     15       2.3477      2.00000
     16       2.3477      2.00000
     17       3.1933      2.00000
     18       3.1933      2.00000
     19       3.3556      2.00000
     20       3.3556      2.00000
     21       4.7127      0.00000
     22       4.7127      0.00000
     23       5.5857      0.00000
     24       5.5857      0.00000
     25       6.0110      0.00000
     26       6.0110      0.00000
     27       6.5423      0.00000
     28       6.5423      0.00000
     29       7.0822      0.00000
     30       7.0822      0.00000
     31       9.9418      0.00000
     32       9.9418      0.00000

 k-point    18 :       0.1667    0.5000    0.0000
  band No.  band energies     occupation 
      1      -9.8747      2.00000
      2      -9.8647      2.00000
      3      -9.3100      2.00000
      4      -9.2963      2.00000
      5      -4.8587      2.00000
      6      -4.8484      2.00000
      7      -3.6377      2.00000
      8      -3.5956      2.00000
      9      -0.6646      2.00000
     10      -0.5217      2.00000
     11      -0.0745      2.00000
     12       0.0117      2.00000
     13       0.4379      2.00000
     14       0.7911      2.00000
     15       1.8674      2.00000
     16       2.1096      2.00000
     17       2.6897      2.00000
     18       3.1210      2.00000
     19       3.4401      2.00000
     20       3.9175      2.00000
     21       5.1554      0.00000
     22       5.3292      0.00000
     23       5.9421      0.00000
     24       5.9478      0.00000
     25       6.5824      0.00000
     26       6.9745      0.00000
     27       7.2084      0.00000
     28       7.3683      0.00000
     29       7.6046      0.00000
     30       8.2107      0.00000
     31       9.3397      0.00000
     32       9.3968      0.00000

[...]
     32       8.7592      0.00000

 k-point    32 :       0.1667    0.3333    0.5000
  band No.  band energies     occupation 
      1     -10.0673      2.00000
      2     -10.0673      2.00000
      3      -9.1723      2.00000
      4      -9.1723      2.00000
      5      -4.6154      2.00000
      6      -4.6154      2.00000
      7      -3.6719      2.00000
      8      -3.6719      2.00000
      9      -0.4531      2.00000
     10      -0.4531      2.00000
     11       0.0641      2.00000
     12       0.0641      2.00000
     13       0.7462      2.00000
     14       0.7462      2.00000
     15       2.0577      2.00000
     16       2.0577      2.00000
     17       2.3520      2.00000
     18       2.3520      2.00000
     19       3.3237      2.00000
     20       3.3237      2.00000
     21       5.5804      0.00000
     22       5.5804      0.00000
     23       6.1760      0.00000
     24       6.1760      0.00000
     25       6.9463      0.00000
     26       6.9463      0.00000
     27       7.4081      0.00000
     28       7.4081      0.00000
     29       8.2194      0.00000
     30       8.2194      0.00000
     31       8.4491      0.00000
     32       8.4491      0.00000

 k-point    33 :       0.1667   -0.3333    0.5000
  band No.  band energies     occupation 
      1     -10.0643      2.00000
      2     -10.0643      2.00000
      3      -9.1743      2.00000
      4      -9.1743      2.00000
      5      -4.6692      2.00000
      6      -4.6692      2.00000
      7      -3.6142      2.00000
      8      -3.6142      2.00000
      9      -0.5872      2.00000
     10      -0.5872      2.00000
     11       0.2756      2.00000
     12       0.2756      2.00000
     13       1.0374      2.00000
     14       1.0374      2.00000
     15       1.6288      2.00000
     16       1.6288      2.00000
     17       2.4905      2.00000
     18       2.4905      2.00000
     19       3.0386      2.00000
     20       3.0386      2.00000
     21       5.4916      0.00000
     22       5.4916      0.00000
     23       6.6100      0.00000
     24       6.6100      0.00000
     25       6.9506      0.00000
     26       6.9506      0.00000
     27       7.2960      0.00000
     28       7.2960      0.00000
     29       8.0909      0.00000
     30       8.0909      0.00000
     31       8.9488      0.00000
     32       8.9488      0.00000

 k-point    34 :       0.3333    0.3333    0.5000
  band No.  band energies     occupation 
      1      -9.6411      2.00000
      2      -9.6411      2.00000
      3      -9.0141      2.00000
      4      -9.0141      2.00000
      5      -4.5536      2.00000
      6      -4.5536      2.00000
      7      -3.9618      2.00000
      8      -3.9618      2.00000
      9      -1.1405      2.00000
     10      -1.1405      2.00000
     11      -0.5309      2.00000
     12      -0.5309      2.00000
     13       0.4052      2.00000
     14       0.4052      2.00000
     15       1.1729      2.00000
     16       1.1729      2.00000
     17       1.7731      2.00000
     18       1.7731      2.00000
     19       2.9669      2.00000
     20       2.9669      2.00000
     21       5.9457      0.00000
     22       5.9457      0.00000
     23       6.5119      0.00000
     24       6.5119      0.00000
     25       7.5966      0.00000
     26       7.5966      0.00000
     27       8.1821      0.00000
     28       8.1821      0.00000
     29       8.4024      0.00000
     30       8.4024      0.00000
     31       9.5848      0.00000
     32       9.5848      0.00000

 k-point    35 :       0.3333   -0.3333    0.5000
  band No.  band energies     occupation 
      1      -9.6353      2.00000
      2      -9.6353      2.00000
      3      -9.0189      2.00000
      4      -9.0189      2.00000
      5      -4.6518      2.00000
      6      -4.6518      2.00000
      7      -3.8468      2.00000
      8      -3.8468      2.00000
      9      -1.2590      2.00000
     10      -1.2590      2.00000
     11      -0.3579      2.00000
     12      -0.3579      2.00000
     13       0.4781      2.00000
     14       0.4781      2.00000
     15       1.2368      2.00000
     16       1.2368      2.00000
     17       1.6238      2.00000
     18       1.6238      2.00000
     19       2.7555      2.00000
     20       2.7555      2.00000
     21       6.0320      0.00000
     22       6.0320      0.00000
     23       6.6965      0.00000
     24       6.6965      0.00000
     25       7.4725      0.00000
     26       7.4725      0.00000
     27       8.2753      0.00000
     28       8.2753      0.00000
     29       8.6264      0.00000
     30       8.6264      0.00000
     31       9.2653      0.00000
     32       9.2653      0.00000

 k-point    36 :       0.5000    0.3333    0.5000
  band No.  band energies     occupation 
      1      -9.2792      2.00000
      2      -9.2792      2.00000
      3      -9.0466      2.00000
      4      -9.0466      2.00000
      5      -4.6272      2.00000
      6      -4.6272      2.00000
      7      -4.2033      2.00000
      8      -4.2033      2.00000
      9      -0.9782      2.00000
     10      -0.9782      2.00000
     11      -0.5806      2.00000
     12      -0.5806      2.00000
     13      -0.1122      2.00000
     14      -0.1122      2.00000
     15       0.5298      2.00000
     16       0.5298      2.00000
     17       1.9147      2.00000
     18       1.9147      2.00000
     19       2.5040      2.00000
     20       2.5040      2.00000
     21       6.1734      0.00000
     22       6.1734      0.00000
     23       6.9935      0.00000
     24       6.9935      0.00000
     25       7.3213      0.00000
     26       7.3213      0.00000
     27       8.3049      0.00000
     28       8.3049      0.00000
     29       8.8177      0.00000
     30       8.8177      0.00000
     31       9.2307      0.00000
     32       9.2307      0.00000

 k-point    37 :       0.0000    0.5000    0.5000
  band No.  band energies     occupation 
      1     -10.0151      2.00000
      2     -10.0151      2.00000
      3      -9.4248      2.00000
      4      -9.4248      2.00000
      5      -4.6957      2.00000
      6      -4.6957      2.00000
      7      -4.1072      2.00000
      8      -4.1072      2.00000
      9       0.4321      2.00000
     10       0.4321      2.00000
     11       1.0692      2.00000
     12       1.0692      2.00000
     13       1.3775      2.00000
     14       1.3775      2.00000
     15       1.7679      2.00000
     16       1.7679      2.00000
     17       3.0980      2.00000
     18       3.0980      2.00000
     19       3.2101      2.00000
     20       3.2101      2.00000
     21       4.8864      0.00000
     22       4.8864      0.00000
     23       5.5528      0.00000
     24       5.5528      0.00000
     25       6.4139      0.00000
     26       6.4139      0.00000
     27       6.8730      0.00000
     28       6.8730      0.00000
     29       7.8115      0.00000
     30       7.8115      0.00000
     31       8.5765      0.00000
     32       8.5765      0.00000

 k-point    38 :       0.1667    0.5000    0.5000
  band No.  band energies     occupation 
      1      -9.8632      2.00000
      2      -9.8632      2.00000
      3      -9.3150      2.00000
      4      -9.3150      2.00000
      5      -4.5842      2.00000
      6      -4.5842      2.00000
      7      -4.0562      2.00000
      8      -4.0562      2.00000
      9      -0.2558      2.00000
     10      -0.2558      2.00000
     11       0.1125      2.00000
     12       0.1125      2.00000
     13       1.0362      2.00000
     14       1.0362      2.00000
     15       1.4210      2.00000
     16       1.4210      2.00000
     17       2.4290      2.00000
     18       2.4290      2.00000
     19       3.3159      2.00000
     20       3.3159      2.00000
     21       5.6716      0.00000
     22       5.6716      0.00000
     23       6.2340      0.00000
     24       6.2340      0.00000
     25       7.3494      0.00000
     26       7.3494      0.00000
     27       7.4395      0.00000
     28       7.4395      0.00000
     29       7.8925      0.00000
     30       7.8925      0.00000
     31       8.6286      0.00000
     32       8.6286      0.00000

 k-point    39 :       0.3333    0.5000    0.5000
  band No.  band energies     occupation 
      1      -9.4930      2.00000
      2      -9.4930      2.00000
      3      -9.0918      2.00000
      4      -9.0918      2.00000
      5      -4.4448      2.00000
      6      -4.4448      2.00000
      7      -4.0741      2.00000
      8      -4.0741      2.00000
      9      -1.1908      2.00000
     10      -1.1908      2.00000
     11      -0.9106      2.00000
     12      -0.9106      2.00000
     13       0.4909      2.00000
     14       0.4909      2.00000
     15       0.8720      2.00000
     16       0.8720      2.00000
     17       1.6726      2.00000
     18       1.6726      2.00000
     19       2.6583      2.00000
     20       2.6583      2.00000
     21       6.4531      0.00000
     22       6.4531      0.00000
     23       7.2538      0.00000
     24       7.2538      0.00000
     25       7.6951      0.00000
     26       7.6951      0.00000
     27       8.5218      0.00000
     28       8.5218      0.00000
     29       8.9103      0.00000
     30       8.9103      0.00000
     31       9.5678      0.00000
     32       9.5678      0.00000

 k-point    40 :       0.5000    0.5000    0.5000
  band No.  band energies     occupation 
      1      -9.2360      2.00000
      2      -9.2360      2.00000
      3      -9.0062      2.00000
      4      -9.0062      2.00000
      5      -4.5054      2.00000
      6      -4.5054      2.00000
      7      -4.1530      2.00000
      8      -4.1530      2.00000
      9      -1.2855      2.00000
     10      -1.2855      2.00000
     11      -0.7720      2.00000
     12      -0.7720      2.00000
     13      -0.4774      2.00000
     14      -0.4774      2.00000
     15       0.1904      2.00000
     16       0.1904      2.00000
     17       1.9287      2.00000
     18       1.9287      2.00000
     19       2.5064      2.00000
     20       2.5064      2.00000
     21       6.0428      0.00000
     22       6.0428      0.00000
     23       7.4928      0.00000
     24       7.4928      0.00000
     25       8.3405      0.00000
     26       8.3405      0.00000
     27       8.7510      0.00000
     28       8.7510      0.00000
     29       9.1513      0.00000
     30       9.1513      0.00000
     31      10.1722      0.00000
     32      10.1722      0.00000


--------------------------------------------------------------------------------------------------------


 soft charge-density along one line, spin component            1
         0         1         2         3         4         5         6         7         8         9
 total charge-density along one line
 
 pseudopotential strength for first ion, spin component:            1
 14.379  17.936   0.048   0.034  -0.003   0.087   0.062  -0.005
 17.936  22.386   0.061   0.043  -0.004   0.109   0.078  -0.007
  0.048   0.061   3.202  -0.002   0.001   5.448  -0.004   0.001
  0.034   0.043  -0.002   3.202   0.000  -0.004   5.450   0.001
 -0.003  -0.004   0.001   0.000   3.203   0.001   0.001   5.451
  0.087   0.109   5.448  -0.004   0.001   9.328  -0.006   0.002
  0.062   0.078  -0.004   5.450   0.001  -0.006   9.331   0.001
 -0.005  -0.007   0.001   0.001   5.451   0.002   0.001   9.334
  0.001   0.002  -0.001  -0.000   0.009  -0.001  -0.000   0.016
 -0.005  -0.006   0.009   0.014  -0.000   0.016   0.025  -0.000
 -0.000  -0.000  -0.005   0.010   0.001  -0.010   0.018   0.001
  0.001   0.001  -0.000  -0.000   0.008  -0.000  -0.000   0.015
  0.002   0.002  -0.014  -0.000  -0.001  -0.025  -0.000  -0.001
 total augmentation occupancy for first ion, spin component:            1
  2.854  -0.816   0.375   0.306  -0.010  -0.068  -0.059   0.001   0.001  -0.017   0.019   0.007   0.009
 -0.816   0.787  -0.486  -0.376   0.026   0.078   0.060  -0.004  -0.002   0.016  -0.027  -0.009  -0.005
  0.375  -0.486   1.278   0.026  -0.018  -0.213   0.006   0.003   0.002   0.040  -0.087   0.004   0.001
  0.306  -0.376   0.026   1.339   0.003   0.006  -0.233  -0.003   0.000  -0.006   0.071  -0.010  -0.001
 -0.010   0.026  -0.018   0.003   1.266   0.003  -0.003  -0.223   0.149   0.003  -0.006   0.040  -0.001
 -0.068   0.078  -0.213   0.006   0.003   0.040  -0.003  -0.001  -0.000  -0.007   0.016  -0.001   0.000
 -0.059   0.060   0.006  -0.233  -0.003  -0.003   0.046   0.001  -0.000   0.001  -0.013   0.002   0.000
  0.001  -0.004   0.003  -0.003  -0.223  -0.001   0.001   0.043  -0.027  -0.001   0.001  -0.007   0.000
  0.001  -0.002   0.002   0.000   0.149  -0.000  -0.000  -0.027   0.031  -0.001   0.001   0.003   0.000
 -0.017   0.016   0.040  -0.006   0.003  -0.007   0.001  -0.001  -0.001   0.015  -0.011  -0.001   0.002
  0.019  -0.027  -0.087   0.071  -0.006   0.016  -0.013   0.001   0.001  -0.011   0.039   0.003  -0.003
  0.007  -0.009   0.004  -0.010   0.040  -0.001   0.002  -0.007   0.003  -0.001   0.003   0.012   0.000
  0.009  -0.005   0.001  -0.001  -0.001   0.000   0.000   0.000   0.000   0.002  -0.003   0.000   0.009


------------------------ aborting loop because EDIFF is reached ----------------------------------------


    CHARGE:  cpu time      0.0054: real time      0.0054
    FORLOC:  cpu time      0.0002: real time      0.0002
    FORNL :  cpu time      0.0250: real time      0.0251
    STRESS:  cpu time      0.2506: real time      0.2521
    FORCOR:  cpu time      0.0104: real time      0.0105
    FORHAR:  cpu time      0.0017: real time      0.0017
    MIXING:  cpu time      0.0011: real time      0.0011
    OFIELD:  cpu time      0.0000: real time      0.0000

  FORCE on cell =-STRESS in cart. coord.  units (eV):
  Direction    XX          YY          ZZ          XY          YZ          ZX
  --------------------------------------------------------------------------------------
  Alpha Z    91.66130    91.66130    91.66130
  Ewald    -467.46294  -538.48554  -436.30339   -10.65349     0.00005     0.00004
  Hartree    53.89774    20.46477    56.59351    -4.21695     0.00001     0.00001
  E(xc)    -142.10865  -142.18314  -141.86133    -0.04113    -0.00000     0.00000
  Local    -156.64073   -60.18225  -196.21441    15.27587    -0.00005    -0.00004
  n-local   242.11925   241.95482   243.48338    -0.27149     0.00000     0.00000
  augment   -11.16402   -11.76887   -11.89553     0.02655     0.00000     0.00000
  Kinetic   390.97364   400.42181   406.64713    -0.22853    -0.00001    -0.00001
  Fock        0.00000     0.00000     0.00000     0.00000     0.00000     0.00000
  -------------------------------------------------------------------------------------
  Total       1.27560     1.88291    12.11067    -0.10917    -0.00000    -0.00000
  in kB      11.05560    16.31918   104.96328    -0.94618    -0.00001    -0.00003
  external pressure =       44.11 kB  Pullay stress =        0.00 kB


 VOLUME and BASIS-vectors are now :
 -----------------------------------------------------------------------------
  energy-cutoff  :      360.00
  volume of cell :      184.86
      direct lattice vectors                 reciprocal lattice vectors
     3.858100176  0.000000000  0.000000000     0.259194929  0.000000000  0.000000000
     0.000000000  4.526575088  0.000000000     0.000000000  0.220917577  0.000000000
     0.000000000  0.000000000 10.585176468     0.000000000  0.000000000  0.094471736

  length of vectors
     3.858100176  4.526575088 10.585176468     0.259194929  0.220917577  0.094471736


 FORCES acting on ions
    electron-ion (+dipol)            ewald-force                    non-local-force                 convergence-correction
 -----------------------------------------------------------------------------------------------
   -.112E+01 0.192E+02 0.172E+02   0.135E+01 -.224E+02 -.193E+02   -.288E+00 0.288E+01 0.200E+01   0.497E-04 -.354E-03 -.605E-03
   -.112E+01 0.192E+02 -.172E+02   0.135E+01 -.224E+02 0.193E+02   -.288E+00 0.288E+01 -.200E+01   0.500E-04 -.354E-03 0.607E-03
   0.112E+01 -.192E+02 -.172E+02   -.135E+01 0.224E+02 0.193E+02   0.288E+00 -.288E+01 -.200E+01   -.499E-04 0.353E-03 0.605E-03
   0.112E+01 -.192E+02 0.172E+02   -.135E+01 0.224E+02 -.193E+02   0.288E+00 -.288E+01 0.200E+01   -.495E-04 0.354E-03 -.607E-03
   -.508E+00 -.169E+02 -.108E+02   0.696E+00 0.185E+02 0.119E+02   -.118E+00 -.160E+01 -.846E+00   -.710E-04 0.251E-03 0.803E-03
   -.508E+00 -.169E+02 0.108E+02   0.696E+00 0.185E+02 -.119E+02   -.118E+00 -.160E+01 0.846E+00   -.705E-04 0.253E-03 -.800E-03
   0.508E+00 0.169E+02 0.108E+02   -.696E+00 -.185E+02 -.119E+02   0.118E+00 0.160E+01 0.846E+00   0.698E-04 -.253E-03 -.804E-03
   0.508E+00 0.169E+02 -.108E+02   -.696E+00 -.185E+02 0.119E+02   0.118E+00 0.160E+01 -.846E+00   0.707E-04 -.252E-03 0.800E-03
 -----------------------------------------------------------------------------------------------
   -.783E-04 0.137E-05 0.104E-05   0.466E-14 -.711E-14 -.178E-14   0.167E-04 0.284E-03 -.176E-05   -.773E-06 0.414E-06 -.764E-06
 
 
 POSITION                                       TOTAL-FORCE (eV/Angst)
 -----------------------------------------------------------------------------------
      1.63550      1.58919      1.23098        -0.051446     -0.275348     -0.024023
      3.56455      3.85248      4.06160        -0.051445     -0.275351      0.024030
      2.89357      3.98702      9.35419         0.051348      0.275348      0.024066
      0.96452      1.72374      6.52357         0.051353      0.275345     -0.024072
      1.63550      1.02674      3.75268         0.070694     -0.048345      0.257806
      3.56455      3.29003      1.53991         0.070696     -0.048352     -0.257810
      2.89357      0.02290      6.83250        -0.070601      0.048352     -0.257882
      0.96452      2.28618      9.04526        -0.070600      0.048350      0.257885
 -----------------------------------------------------------------------------------
    total drift:                               -0.000062      0.000286     -0.000001


--------------------------------------------------------------------------------------------------------



  FREE ENERGIE OF THE ION-ELECTRON SYSTEM (eV)
  ---------------------------------------------------
  free  energy   TOTEN  =       -33.14997282 eV

  energy  without entropy=      -33.14995313  energy(sigma->0) =      -33.14996298
 


--------------------------------------------------------------------------------------------------------


    POTLOK:  cpu time      0.2266: real time      0.2273


--------------------------------------------------------------------------------------------------------


     LOOP+:  cpu time      7.7220: real time      7.7627
    4ORBIT:  cpu time      0.0000: real time      0.0000

 total amount of memory used by VASP MPI-rank0    36587. kBytes
=======================================================================

   base      :      30000. kBytes
   nonl-proj :       5001. kBytes
   fftplans  :        306. kBytes
   grid      :        466. kBytes
   one-center:         16. kBytes
   wavefun   :        798. kBytes
 
  
  
 General timing and accounting informations for this job:
 ========================================================
  
                  Total CPU time used (sec):        9.481
                            User time (sec):        9.186
                          System time (sec):        0.295
                         Elapsed time (sec):       10.188
  
                   Maximum memory used (kb):      174024.
                   Average memory used (kb):          N/A
  
                          Minor page faults:        18739
                          Major page faults:           34
                 Voluntary context switches:         4448
