 vasp.6.4.2 20Jul23 (build Oct 12 2023 10:31:02) complex                         
 executed on              LinuxNV date 2025.05.27  23:22:01
 running  128 mpi-ranks, with    1 threads/rank, on    2 nodes
 distrk:  each k-point on   64 cores,    2 groups
 distr:  one band on NCORE=   4 cores,   16 groups


--------------------------------------------------------------------------------------------------------


 INCAR:
   ENCUT = 360.000000
   SIGMA = 0.050000
   EDIFF = 1.00e-06
   ALGO = Normal
   GGA = PE
   PREC = Normal
   SYSTEM = ./
   ICHARG = 2
   ISMEAR = 0
   ISPIN = 1
   ISTART = 0
   ISYM = 0
   KPAR = 2
   LMAXMIX = 4
   NELM = 100
   NPAR = 16
   LASPH = .TRUE.
   LCHARG = .FALSE.
   LWAVE = .FALSE.

 POTCAR:    PAW_PBE Ge 05Jan2001                  
 POTCAR:    PAW_PBE Se 06Sep2000                  
 POTCAR:    PAW_PBE Ge 05Jan2001                  
   VRHFIN =Ge: s2p2                                                                                 
   LEXCH  = PE                                                                                      
   EATOM  =   104.9960 eV,    7.7170 Ry                                                             
                                                                                                    
   TITEL  = PAW_PBE Ge 05Jan2001                                                                    
   LULTRA =        F    use ultrasoft PP ?                                                          
   IUNSCR =        1    unscreen: 0-lin 1-nonlin 2-no                                               
   RPACOR =    2.170    partial core radius                                                         
   POMASS =   72.610; ZVAL   =    4.000    mass and valenz                                          
   RCORE  =    2.300    outmost cutoff radius                                                       
   RWIGS  =    2.300; RWIGS  =    1.217    wigner-seitz radius (au A)                               
   ENMAX  =  173.807; ENMIN  =  130.355 eV                                                          
   ICORE  =        3    local potential                                                             
   LCOR   =        T    correct aug charges                                                         
   LPAW   =        T    paw PP                                                                      
   EAUG   =  385.843                                                                                
   DEXC   =    0.000                                                                                
   RMAX   =    2.342    core radius for proj-oper                                                   
   RAUG   =    1.300    factor for augmentation sphere                                              
   RDEP   =    2.318    radius for radial grids                                                     
   RDEPT  =    2.103    core radius for aug-charge                                                  
                                                                                                    
   Atomic configuration                                                                             
   10 entries                                                                                       
     n  l   j            E        occ.                                                              
     1  0  0.50    -10959.8463   2.0000                                                             
     2  0  0.50     -1371.6056   2.0000                                                             
     2  1  1.50     -1198.4791   6.0000                                                             
     3  0  0.50      -168.4733   2.0000                                                             
     3  1  1.50      -115.6019   6.0000                                                             
     3  2  2.50       -29.3106  10.0000                                                             
     4  0  0.50       -11.7309   2.0000                                                             
     4  1  0.50        -3.8952   2.0000                                                             
     4  2  1.50        -4.0817   0.0000                                                             
     4  3  2.50        -4.0817   0.0000                                                             
   Description                                                                                      
     l       E           TYP  RCUT    TYP  RCUT                                                     
     0    -11.7309493     23  2.300                                                                 
     0     -7.4578696     23  2.300                                                                 
     1     -3.8952261     23  2.300                                                                 
     1      6.1178114     23  2.300                                                                 
     2     -4.0817478     23  2.300                                                                 
     3     -1.3605826      7  2.300                                                                 
  local pseudopotential read in
  partial core-charges read in
  partial kinetic energy density read in
  atomic valenz-charges read in
  non local Contribution for L=            0  read in
    real space projection operators read in
  non local Contribution for L=            0  read in
    real space projection operators read in
  non local Contribution for L=            1  read in
    real space projection operators read in
  non local Contribution for L=            1  read in
    real space projection operators read in
  non local Contribution for L=            2  read in
    real space projection operators read in
    PAW grid and wavefunctions read in
 
   number of l-projection  operators is LMAX  =            5
   number of lm-projection operators is LMMAX =           13
 
 POTCAR:    PAW_PBE Se 06Sep2000                  
   VRHFIN =Se: s2p4                                                                                 
   LEXCH  = PE                                                                                      
   EATOM  =   257.1286 eV,   18.8984 Ry                                                             
                                                                                                    
   TITEL  = PAW_PBE Se 06Sep2000                                                                    
   LULTRA =        F    use ultrasoft PP ?                                                          
   IUNSCR =        1    unscreen: 0-lin 1-nonlin 2-no                                               
   RPACOR =    1.900    partial core radius                                                         
   POMASS =   78.960; ZVAL   =    6.000    mass and valenz                                          
   RCORE  =    2.100    outmost cutoff radius                                                       
   RWIGS  =    2.200; RWIGS  =    1.164    wigner-seitz radius (au A)                               
   ENMAX  =  211.555; ENMIN  =  158.666 eV                                                          
   ICORE  =        3    local potential                                                             
   LCOR   =        T    correct aug charges                                                         
   LPAW   =        T    paw PP                                                                      
   EAUG   =  446.842                                                                                
   DEXC   =    0.000                                                                                
   RMAX   =    2.147    core radius for proj-oper                                                   
   RAUG   =    1.300    factor for augmentation sphere                                              
   RDEP   =    2.177    radius for radial grids                                                     
   RDEPT  =    1.928    core radius for aug-charge                                                  
                                                                                                    
   Atomic configuration                                                                             
   10 entries                                                                                       
     n  l   j            E        occ.                                                              
     1  0  0.50    -12503.4787   2.0000                                                             
     2  0  0.50     -1606.9547   2.0000                                                             
     2  1  1.50     -1413.3140   6.0000                                                             
     3  0  0.50      -213.4885   2.0000                                                             
     3  1  1.50      -152.9538   6.0000                                                             
     3  2  2.50       -53.1221  10.0000                                                             
     4  0  0.50       -17.2865   2.0000                                                             
     4  1  0.50        -6.5110   4.0000                                                             
     4  2  2.50        -6.8029   0.0000                                                             
     4  3  2.50        -6.8029   0.0000                                                             
   Description                                                                                      
     l       E           TYP  RCUT    TYP  RCUT                                                     
     0    -17.2865377     23  2.100                                                                 
     0    -15.3094411     23  2.100                                                                 
     1     -6.5110275     23  2.100                                                                 
     1     -0.0695192     23  2.100                                                                 
     2     -6.8029130     23  2.100                                                                 
     3     -1.3605826      7  2.100                                                                 
  local pseudopotential read in
  partial core-charges read in
  partial kinetic energy density read in
  atomic valenz-charges read in
  non local Contribution for L=            0  read in
    real space projection operators read in
  non local Contribution for L=            0  read in
    real space projection operators read in
  non local Contribution for L=            1  read in
    real space projection operators read in
  non local Contribution for L=            1  read in
    real space projection operators read in
  non local Contribution for L=            2  read in
    real space projection operators read in
    PAW grid and wavefunctions read in
 
   number of l-projection  operators is LMAX  =            5
   number of lm-projection operators is LMMAX =           13
 
  PAW_PBE Ge 05Jan2001                  :
 energy of atom  1       EATOM= -104.9960
 kinetic energy error for atom=    0.0005 (will be added to EATOM!!)
  PAW_PBE Se 06Sep2000                  :
 energy of atom  2       EATOM= -257.1286
 kinetic energy error for atom=    0.0030 (will be added to EATOM!!)
 
 
 POSCAR: Ge Se
  positions in cartesian coordinates
  No initial velocities read in
 exchange correlation table for  LEXCH =        8
   RHO(1)=    0.500       N(1)  =     2000
   RHO(2)=  100.500       N(2)  =     4000
 


--------------------------------------------------------------------------------------------------------


 ion  position               nearest neighbor table
   1  0.072  0.250  0.115-   6 2.57   6 2.57   5 2.63
   2  0.572  0.750  0.385-   5 2.57   5 2.57   6 2.63
   3  0.928  0.750  0.885-   8 2.57   8 2.57   7 2.63
   4  0.428  0.250  0.615-   7 2.57   7 2.57   8 2.63
   5  0.014  0.250  0.350-   2 2.57   2 2.57   1 2.63
   6  0.514  0.750  0.150-   1 2.57   1 2.57   2 2.63
   7  0.986  0.750  0.650-   4 2.57   4 2.57   3 2.63
   8  0.486  0.250  0.850-   3 2.57   3 2.57   4 2.63
 

IMPORTANT INFORMATION: All symmetrisations will be switched off!
NOSYMM: (Re-)initialisation of all symmetry stuff for point group C_1.


----------------------------------------------------------------------------------------

                                     Primitive cell                                     

  volume of cell :     162.8436

  direct lattice vectors                    reciprocal lattice vectors
     3.950000000  0.000000000  0.000000000     0.253164557  0.000000000  0.000000000
     0.000000000  3.700000000  0.000000000     0.000000000  0.270270270  0.000000000
     0.000000000  0.000000000 11.142221000     0.000000000  0.000000000  0.089748713

  length of vectors
     3.950000000  3.700000000 11.142221000     0.253164557  0.270270270  0.089748713

  position of ions in fractional coordinates (direct lattice)
     0.071947710  0.250000000  0.115490772
     0.571947710  0.750000000  0.384509228
     0.928052290  0.750000000  0.884509228
     0.428052290  0.250000000  0.615490772
     0.014351333  0.250000000  0.350319938
     0.514351333  0.750000000  0.149680062
     0.985648667  0.750000000  0.649680062
     0.485648667  0.250000000  0.850319938

  ion indices of the primitive-cell ions
   primitive index   ion index
                 1           1
                 2           2
                 3           3
                 4           4
                 5           5
                 6           6
                 7           7
                 8           8

----------------------------------------------------------------------------------------

 
 
 KPOINTS: KPOINTS created by Atomic Simulation Env

Automatic generation of k-mesh.
 Grid dimensions read from file:
 generate k-points for:    6    6    2

 Generating k-lattice:

  Cartesian coordinates                     Fractional coordinates (reciprocal lattice)
     0.042194093  0.000000000  0.000000000     0.166666667  0.000000000  0.000000000
     0.000000000  0.045045045  0.000000000     0.000000000  0.166666667  0.000000000
     0.000000000  0.000000000  0.044874357     0.000000000  0.000000000  0.500000000

  Length of vectors
     0.042194093  0.045045045  0.044874357

  Shift w.r.t. Gamma in fractional coordinates (k-lattice)
     0.000000000  0.000000000  0.000000000

 
 Subroutine IBZKPT returns following result:
 ===========================================
 
 Found     40 irreducible k-points:
 
 Following reciprocal coordinates:
            Coordinates               Weight
  0.000000  0.000000  0.000000      1.000000
  0.166667  0.000000  0.000000      2.000000
  0.333333  0.000000  0.000000      2.000000
  0.500000  0.000000  0.000000      1.000000
  0.000000  0.166667  0.000000      2.000000
  0.166667  0.166667  0.000000      2.000000
 -0.166667  0.166667  0.000000      2.000000
  0.333333  0.166667  0.000000      2.000000
 -0.333333  0.166667  0.000000      2.000000
  0.500000  0.166667  0.000000      2.000000
  0.000000  0.333333  0.000000      2.000000
  0.166667  0.333333  0.000000      2.000000
 -0.166667  0.333333  0.000000      2.000000
  0.333333  0.333333  0.000000      2.000000
 -0.333333  0.333333  0.000000      2.000000
  0.500000  0.333333  0.000000      2.000000
  0.000000  0.500000  0.000000      1.000000
  0.166667  0.500000  0.000000      2.000000
  0.333333  0.500000  0.000000      2.000000
  0.500000  0.500000  0.000000      1.000000
  0.000000  0.000000  0.500000      1.000000
  0.166667  0.000000  0.500000      2.000000
  0.333333  0.000000  0.500000      2.000000
  0.500000  0.000000  0.500000      1.000000
  0.000000  0.166667  0.500000      2.000000
  0.166667  0.166667  0.500000      2.000000
 -0.166667  0.166667  0.500000      2.000000
  0.333333  0.166667  0.500000      2.000000
 -0.333333  0.166667  0.500000      2.000000
  0.500000  0.166667  0.500000      2.000000
  0.000000  0.333333  0.500000      2.000000
  0.166667  0.333333  0.500000      2.000000
 -0.166667  0.333333  0.500000      2.000000
  0.333333  0.333333  0.500000      2.000000
 -0.333333  0.333333  0.500000      2.000000
  0.500000  0.333333  0.500000      2.000000
  0.000000  0.500000  0.500000      1.000000
  0.166667  0.500000  0.500000      2.000000
  0.333333  0.500000  0.500000      2.000000
  0.500000  0.500000  0.500000      1.000000
 
 Following cartesian coordinates:
            Coordinates               Weight
  0.000000  0.000000  0.000000      1.000000
  0.042194  0.000000  0.000000      2.000000
  0.084388  0.000000  0.000000      2.000000
  0.126582  0.000000  0.000000      1.000000
  0.000000  0.045045  0.000000      2.000000
  0.042194  0.045045  0.000000      2.000000
 -0.042194  0.045045  0.000000      2.000000
  0.084388  0.045045  0.000000      2.000000
 -0.084388  0.045045  0.000000      2.000000
  0.126582  0.045045  0.000000      2.000000
  0.000000  0.090090  0.000000      2.000000
  0.042194  0.090090  0.000000      2.000000
 -0.042194  0.090090  0.000000      2.000000
  0.084388  0.090090  0.000000      2.000000
 -0.084388  0.090090  0.000000      2.000000
  0.126582  0.090090  0.000000      2.000000
  0.000000  0.135135  0.000000      1.000000
  0.042194  0.135135  0.000000      2.000000
  0.084388  0.135135  0.000000      2.000000
  0.126582  0.135135  0.000000      1.000000
  0.000000  0.000000  0.044874      1.000000
  0.042194  0.000000  0.044874      2.000000
  0.084388  0.000000  0.044874      2.000000
  0.126582  0.000000  0.044874      1.000000
  0.000000  0.045045  0.044874      2.000000
  0.042194  0.045045  0.044874      2.000000
 -0.042194  0.045045  0.044874      2.000000
  0.084388  0.045045  0.044874      2.000000
 -0.084388  0.045045  0.044874      2.000000
  0.126582  0.045045  0.044874      2.000000
  0.000000  0.090090  0.044874      2.000000
  0.042194  0.090090  0.044874      2.000000
 -0.042194  0.090090  0.044874      2.000000
  0.084388  0.090090  0.044874      2.000000
 -0.084388  0.090090  0.044874      2.000000
  0.126582  0.090090  0.044874      2.000000
  0.000000  0.135135  0.044874      1.000000
  0.042194  0.135135  0.044874      2.000000
  0.084388  0.135135  0.044874      2.000000
  0.126582  0.135135  0.044874      1.000000
 


--------------------------------------------------------------------------------------------------------




 Dimension of arrays:
   k-points           NKPTS =     40   k-points in BZ     NKDIM =     40   number of bands    NBANDS=     32
   number of dos      NEDOS =    301   number of ions     NIONS =      8
   non local maximal  LDIM  =      5   non local SUM 2l+1 LMDIM =     13
   total plane-waves  NPLWV =  17496
   max r-space proj   IRMAX =      1   max aug-charges    IRDMAX=   6038
   dimension x,y,z NGX =    18 NGY =   18 NGZ =   54
   dimension x,y,z NGXF=    36 NGYF=   36 NGZF=  108
   support grid    NGXF=    36 NGYF=   36 NGZF=  108
   ions per type =               4   4
   NGX,Y,Z   is equivalent  to a cutoff of   7.58,  8.09,  8.06 a.u.
   NGXF,Y,Z  is equivalent  to a cutoff of  15.15, 16.18, 16.11 a.u.

 SYSTEM =  ./                                      
 POSCAR =  Ge Se                                   

 Startparameter for this run:
   NWRITE =      2    write-flag & timer
   PREC   = normal    normal or accurate (medium, high low for compatibility)
   ISTART =      0    job   : 0-new  1-cont  2-samecut
   ICHARG =      2    charge: 1-file 2-atom 10-const
   ISPIN  =      1    spin polarized calculation?
   LNONCOLLINEAR =      F non collinear calculations
   LSORBIT =      F    spin-orbit coupling
   INIWAV =      1    electr: 0-lowe 1-rand  2-diag
   LASPH  =      T    aspherical Exc in radial PAW
 Electronic Relaxation 1
   ENCUT  =  360.0 eV  26.46 Ry    5.14 a.u.   6.11  5.72 17.24*2*pi/ulx,y,z
   ENINI  =  360.0     initial cutoff
   ENAUG  =  446.8 eV  augmentation charge cutoff
   NELM   =    100;   NELMIN=  2; NELMDL= -5     # of ELM steps 
   EDIFF  = 0.1E-05   stopping-criterion for ELM
   LREAL  =      F    real-space projection
   NLSPLINE    = F    spline interpolate recip. space projectors
   LCOMPAT=      F    compatible to vasp.4.4
   GGA_COMPAT  = T    GGA compatible to vasp.4.4-vasp.4.6
   LMAXPAW     = -100 max onsite density
   LMAXMIX     =    4 max onsite mixed and CHGCAR
   VOSKOWN=      0    Vosko Wilk Nusair interpolation
   ROPT   =    0.00000   0.00000
 Ionic relaxation
   EDIFFG = 0.1E-04   stopping-criterion for IOM
   NSW    =      0    number of steps for IOM
   NBLOCK =      1;   KBLOCK =      1    inner block; outer block 
   IBRION =     -1    ionic relax: 0-MD 1-quasi-New 2-CG
   NFREE  =      0    steps in history (QN), initial steepest desc. (CG)
   ISIF   =      2    stress and relaxation
   IWAVPR =     10    prediction:  0-non 1-charg 2-wave 3-comb
   ISYM   =      0    0-nonsym 1-usesym 2-fastsym
   LCORR  =      T    Harris-Foulkes like correction to forces

   POTIM  = 0.5000    time-step for ionic-motion
   TEIN   =    0.0    initial temperature
   TEBEG  =    0.0;   TEEND  =   0.0 temperature during run
   SMASS  =  -3.00    Nose mass-parameter (am)
   estimated Nose-frequenzy (Omega)   =  0.10E-29 period in steps = 0.13E+47 mass=  -0.357E-27a.u.
   SCALEE = 1.0000    scale energy and forces
   NPACO  =    256;   APACO  = 10.0  distance and # of slots for P.C.
   PSTRESS=    0.0 pullay stress

  Mass of Ions in am
   POMASS =  72.61 78.96
  Ionic Valenz
   ZVAL   =   4.00  6.00
  Atomic Wigner-Seitz radii
   RWIGS  =  -1.00 -1.00
  virtual crystal weights 
   VCA    =   1.00  1.00
   NELECT =      40.0000    total number of electrons
   NUPDOWN=      -1.0000    fix difference up-down

 DOS related values:
   EMIN   =  10.00;   EMAX   =-10.00  energy-range for DOS
   EFERMI =   0.00;   METHOD = LEGACY      
   ISMEAR =     0;   SIGMA  =   0.05  broadening in eV -4-tet -1-fermi 0-gaus

 Electronic relaxation 2 (details)
   IALGO  =     38    algorithm
   LDIAG  =      T    sub-space diagonalisation (order eigenvalues)
   LSUBROT=      F    optimize rotation matrix (better conditioning)
   TURBO    =      0    0=normal 1=particle mesh
   IRESTART =      0    0=no restart 2=restart with 2 vectors
   NREBOOT  =      0    no. of reboots
   NMIN     =      0    reboot dimension
   EREF     =   0.00    reference energy to select bands
   IMIX   =      4    mixing-type and parameters
     AMIX     =   0.40;   BMIX     =  1.00
     AMIX_MAG =   1.60;   BMIX_MAG =  1.00
     AMIN     =   0.10
     WC   =   100.;   INIMIX=   1;  MIXPRE=   1;  MAXMIX= -45

 Intra band minimization:
   WEIMIN = 0.0000     energy-eigenvalue tresh-hold
   EBREAK =  0.78E-08  absolut break condition
   DEPER  =   0.30     relativ break condition  

   TIME   =   0.40     timestep for ELM

  volume/ion in A,a.u.               =      20.36       137.37
  Fermi-wavevector in a.u.,A,eV,Ry     =   1.025269  1.937478 14.302134  1.051177
  Thomas-Fermi vector in A             =   2.159101
 
 Write flags
   LWAVE        =      F    write WAVECAR
   LDOWNSAMPLE  =      F    k-point downsampling of WAVECAR
   LCHARG       =      F    write CHGCAR
   LVTOT        =      F    write LOCPOT, total local potential
   LVHAR        =      F    write LOCPOT, Hartree potential only
   LELF         =      F    write electronic localiz. function (ELF)
   LORBIT       =      0    0 simple, 1 ext, 2 COOP (PROOUT), +10 PAW based schemes


 Dipole corrections
   LMONO  =      F    monopole corrections only (constant potential shift)
   LDIPOL =      F    correct potential (dipole corrections)
   IDIPOL =      0    1-x, 2-y, 3-z, 4-all directions 
   EPSILON=  1.0000000 bulk dielectric constant

 Exchange correlation treatment:
   GGA     =    PE    GGA type
   LEXCH   =     8    internal setting for exchange type
   LIBXC   =     F    Libxc                    
   VOSKOWN =     0    Vosko Wilk Nusair interpolation
   LHFCALC =     F    Hartree Fock is set to
   LHFONE  =     F    Hartree Fock one center treatment
   AEXX    =    0.0000 exact exchange contribution

 Linear response parameters
   LEPSILON=     F    determine dielectric tensor
   LRPA    =     F    only Hartree local field effects (RPA)
   LNABLA  =     F    use nabla operator in PAW spheres
   LVEL    =     F    velocity operator in full k-point grid
   CSHIFT  =0.1000    complex shift for real part using Kramers Kronig
   OMEGAMAX=  -1.0    maximum frequency
   DEG_THRESHOLD= 0.2000000E-02 threshold for treating states as degnerate
   RTIME   =   -0.100 relaxation time in fs
  (WPLASMAI=    0.000 imaginary part of plasma frequency in eV, 0.658/RTIME)
   DFIELD  = 0.0000000 0.0000000 0.0000000 field for delta impulse in time
 
  Optional k-point grid parameters
   LKPOINTS_OPT  =     F    use optional k-point grid
   KPOINTS_OPT_MODE=     1    mode for optional k-point grid
 
 Orbital magnetization related:
   ORBITALMAG=     F  switch on orbital magnetization
   LCHIMAG   =     F  perturbation theory with respect to B field
   DQ        =  0.001000  dq finite difference perturbation B field
   LLRAUG    =     F  two centre corrections for induced B field
   LBONE     =     F  B-component reconstruction in AE one-centre
   LVGVCALC  =     T  calculate vGv susceptibility
   LVGVAPPL  =     F  apply vGv susceptibility instead of pGv for G=0

 Random number generation:
   RANDOM_GENERATOR = DEFAULT
   PCG_SEED         = not used


--------------------------------------------------------------------------------------------------------


 Static calculation
 charge density and potential will be updated during run
 non-spin polarized calculation
 Variant of blocked Davidson
 Davidson routine will perform the subspace rotation
 perform sub-space diagonalisation
    after iterative eigenvector-optimisation
 modified Broyden-mixing scheme, WC =      100.0
 initial mixing is a Kerker type mixing with AMIX =  0.4000 and BMIX =      1.0000
 Hartree-type preconditioning will be used
 using additional bands            12
 reciprocal scheme for non local part
 use partial core corrections
 calculate Harris-corrections to forces 
   (improved forces if not selfconsistent)
 use gradient corrections 
 use of overlap-Matrix (Vanderbilt PP)
 Gauss-broadening in eV      SIGMA  =   0.05


--------------------------------------------------------------------------------------------------------


  energy-cutoff  :      360.00
  volume of cell :      162.84
      direct lattice vectors                 reciprocal lattice vectors
     3.950000000  0.000000000  0.000000000     0.253164557  0.000000000  0.000000000
     0.000000000  3.700000000  0.000000000     0.000000000  0.270270270  0.000000000
     0.000000000  0.000000000 11.142221000     0.000000000  0.000000000  0.089748713

  length of vectors
     3.950000000  3.700000000 11.142221000     0.253164557  0.270270270  0.089748713


 
 k-points in units of 2pi/SCALE and weight: KPOINTS created by Atomic Simulation Env
   0.00000000  0.00000000  0.00000000       0.014
   0.04219409  0.00000000  0.00000000       0.028
   0.08438819  0.00000000  0.00000000       0.028
   0.12658228  0.00000000  0.00000000       0.014
   0.00000000  0.04504505  0.00000000       0.028
   0.04219409  0.04504505  0.00000000       0.028
  -0.04219409  0.04504505  0.00000000       0.028
   0.08438819  0.04504505  0.00000000       0.028
  -0.08438819  0.04504505  0.00000000       0.028
   0.12658228  0.04504505  0.00000000       0.028
   0.00000000  0.09009009  0.00000000       0.028
   0.04219409  0.09009009  0.00000000       0.028
  -0.04219409  0.09009009  0.00000000       0.028
   0.08438819  0.09009009  0.00000000       0.028
  -0.08438819  0.09009009  0.00000000       0.028
   0.12658228  0.09009009  0.00000000       0.028
   0.00000000  0.13513514  0.00000000       0.014
   0.04219409  0.13513514  0.00000000       0.028
   0.08438819  0.13513514  0.00000000       0.028
   0.12658228  0.13513514  0.00000000       0.014
   0.00000000  0.00000000  0.04487436       0.014
   0.04219409  0.00000000  0.04487436       0.028
   0.08438819  0.00000000  0.04487436       0.028
   0.12658228  0.00000000  0.04487436       0.014
   0.00000000  0.04504505  0.04487436       0.028
   0.04219409  0.04504505  0.04487436       0.028
  -0.04219409  0.04504505  0.04487436       0.028
   0.08438819  0.04504505  0.04487436       0.028
  -0.08438819  0.04504505  0.04487436       0.028
   0.12658228  0.04504505  0.04487436       0.028
   0.00000000  0.09009009  0.04487436       0.028
   0.04219409  0.09009009  0.04487436       0.028
  -0.04219409  0.09009009  0.04487436       0.028
   0.08438819  0.09009009  0.04487436       0.028
  -0.08438819  0.09009009  0.04487436       0.028
   0.12658228  0.09009009  0.04487436       0.028
   0.00000000  0.13513514  0.04487436       0.014
   0.04219409  0.13513514  0.04487436       0.028
   0.08438819  0.13513514  0.04487436       0.028
   0.12658228  0.13513514  0.04487436       0.014
 
 k-points in reciprocal lattice and weights: KPOINTS created by Atomic Simulation Env
   0.00000000  0.00000000  0.00000000       0.014
   0.16666667  0.00000000  0.00000000       0.028
   0.33333333  0.00000000  0.00000000       0.028
   0.50000000  0.00000000  0.00000000       0.014
   0.00000000  0.16666667  0.00000000       0.028
   0.16666667  0.16666667  0.00000000       0.028
  -0.16666667  0.16666667  0.00000000       0.028
   0.33333333  0.16666667  0.00000000       0.028
  -0.33333333  0.16666667  0.00000000       0.028
   0.50000000  0.16666667  0.00000000       0.028
   0.00000000  0.33333333  0.00000000       0.028
   0.16666667  0.33333333  0.00000000       0.028
  -0.16666667  0.33333333  0.00000000       0.028
   0.33333333  0.33333333  0.00000000       0.028
  -0.33333333  0.33333333  0.00000000       0.028
   0.50000000  0.33333333  0.00000000       0.028
   0.00000000  0.50000000  0.00000000       0.014
   0.16666667  0.50000000  0.00000000       0.028
   0.33333333  0.50000000  0.00000000       0.028
   0.50000000  0.50000000  0.00000000       0.014
   0.00000000  0.00000000  0.50000000       0.014
   0.16666667  0.00000000  0.50000000       0.028
   0.33333333  0.00000000  0.50000000       0.028
   0.50000000  0.00000000  0.50000000       0.014
   0.00000000  0.16666667  0.50000000       0.028
   0.16666667  0.16666667  0.50000000       0.028
  -0.16666667  0.16666667  0.50000000       0.028
   0.33333333  0.16666667  0.50000000       0.028
  -0.33333333  0.16666667  0.50000000       0.028
   0.50000000  0.16666667  0.50000000       0.028
   0.00000000  0.33333333  0.50000000       0.028
   0.16666667  0.33333333  0.50000000       0.028
  -0.16666667  0.33333333  0.50000000       0.028
   0.33333333  0.33333333  0.50000000       0.028
  -0.33333333  0.33333333  0.50000000       0.028
   0.50000000  0.33333333  0.50000000       0.028
   0.00000000  0.50000000  0.50000000       0.014
   0.16666667  0.50000000  0.50000000       0.028
   0.33333333  0.50000000  0.50000000       0.028
   0.50000000  0.50000000  0.50000000       0.014
 
 position of ions in fractional coordinates (direct lattice) 
   0.07194771  0.25000000  0.11549077
   0.57194771  0.75000000  0.38450923
   0.92805229  0.75000000  0.88450923
   0.42805229  0.25000000  0.61549077
   0.01435133  0.25000000  0.35031994
   0.51435133  0.75000000  0.14968006
   0.98564867  0.75000000  0.64968006
   0.48564867  0.25000000  0.85031994
 
 position of ions in cartesian coordinates  (Angst):
   0.28419346  0.92500000  1.28682371
   2.25919346  2.77500000  4.28428679
   3.66580654  2.77500000  9.85539729
   1.69080654  0.92500000  6.85793421
   0.05668777  0.92500000  3.90334217
   2.03168777  2.77500000  1.66776833
   3.89331223  2.77500000  7.23887883
   1.91831223  0.92500000  9.47445267
 


--------------------------------------------------------------------------------------------------------


 k-point   1 :   0.0000 0.0000 0.0000  plane waves:    2517
 k-point   2 :   0.1667 0.0000 0.0000  plane waves:    2522
 k-point   3 :   0.3333 0.0000 0.0000  plane waves:    2534
 k-point   4 :   0.5000 0.0000 0.0000  plane waves:    2532
 k-point   5 :   0.0000 0.1667 0.0000  plane waves:    2523
 k-point   6 :   0.1667 0.1667 0.0000  plane waves:    2525
 k-point   7 :  -0.1667 0.1667 0.0000  plane waves:    2525
 k-point   8 :   0.3333 0.1667 0.0000  plane waves:    2517
 k-point   9 :  -0.3333 0.1667 0.0000  plane waves:    2517
 k-point  10 :   0.5000 0.1667 0.0000  plane waves:    2538
 k-point  11 :   0.0000 0.3333 0.0000  plane waves:    2494
 k-point  12 :   0.1667 0.3333 0.0000  plane waves:    2515
 k-point  13 :  -0.1667 0.3333 0.0000  plane waves:    2515
 k-point  14 :   0.3333 0.3333 0.0000  plane waves:    2539
 k-point  15 :  -0.3333 0.3333 0.0000  plane waves:    2539
 k-point  16 :   0.5000 0.3333 0.0000  plane waves:    2536
 k-point  17 :   0.0000 0.5000 0.0000  plane waves:    2496
 k-point  18 :   0.1667 0.5000 0.0000  plane waves:    2534
 k-point  19 :   0.3333 0.5000 0.0000  plane waves:    2546
 k-point  20 :   0.5000 0.5000 0.0000  plane waves:    2528
 k-point  21 :   0.0000 0.0000 0.5000  plane waves:    2522
 k-point  22 :   0.1667 0.0000 0.5000  plane waves:    2528
 k-point  23 :   0.3333 0.0000 0.5000  plane waves:    2530
 k-point  24 :   0.5000 0.0000 0.5000  plane waves:    2536
 k-point  25 :   0.0000 0.1667 0.5000  plane waves:    2530
 k-point  26 :   0.1667 0.1667 0.5000  plane waves:    2522
 k-point  27 :  -0.1667 0.1667 0.5000  plane waves:    2522
 k-point  28 :   0.3333 0.1667 0.5000  plane waves:    2522
 k-point  29 :  -0.3333 0.1667 0.5000  plane waves:    2522
 k-point  30 :   0.5000 0.1667 0.5000  plane waves:    2532
 k-point  31 :   0.0000 0.3333 0.5000  plane waves:    2504
 k-point  32 :   0.1667 0.3333 0.5000  plane waves:    2520
 k-point  33 :  -0.1667 0.3333 0.5000  plane waves:    2520
 k-point  34 :   0.3333 0.3333 0.5000  plane waves:    2522
 k-point  35 :  -0.3333 0.3333 0.5000  plane waves:    2522
 k-point  36 :   0.5000 0.3333 0.5000  plane waves:    2536
 k-point  37 :   0.0000 0.5000 0.5000  plane waves:    2504
 k-point  38 :   0.1667 0.5000 0.5000  plane waves:    2500
 k-point  39 :   0.3333 0.5000 0.5000  plane waves:    2552
 k-point  40 :   0.5000 0.5000 0.5000  plane waves:    2552

 maximum and minimum number of plane-waves per node :       656      603

 maximum number of plane-waves:      2552
 maximum index in each direction: 
   IXMAX=    6   IYMAX=    5   IZMAX=   17
   IXMIN=   -6   IYMIN=   -6   IZMIN=  -17


 parallel 3D FFT for wavefunctions:
    minimum data exchange during FFTs selected (reduces bandwidth)
 parallel 3D FFT for charge:
    minimum data exchange during FFTs selected (reduces bandwidth)


 total amount of memory used by VASP MPI-rank0    36982. kBytes
=======================================================================

   base      :      30000. kBytes
   nonl-proj :       5406. kBytes
   fftplans  :        284. kBytes
   grid      :        416. kBytes
   one-center:         16. kBytes
   wavefun   :        860. kBytes
 
     INWAV:  cpu time      0.0000: real time      0.0001
 Broyden mixing: mesh for mixing (old mesh)
   NGX = 13   NGY = 11   NGZ = 35
  (NGX  = 36   NGY  = 36   NGZ  =108)
  gives a total of   5005 points

 initial charge density was supplied:
 charge density of overlapping atoms calculated
 number of electron      40.0000000 magnetization 
 keeping initial charge density in first step


--------------------------------------------------------------------------------------------------------


 Maximum index for augmentation-charges           372 (set IRDMAX)


--------------------------------------------------------------------------------------------------------


 First call to EWALD:  gamma=   0.325
 Maximum number of real-space cells 4x 4x 2
 Maximum number of reciprocal cells 2x 2x 5

    FEWALD:  cpu time      0.0008: real time      0.0008


--------------------------------------- Ionic step        1  -------------------------------------------




--------------------------------------- Iteration      1(   1)  ---------------------------------------


    POTLOK:  cpu time      0.0056: real time      0.0060
    SETDIJ:  cpu time      0.1407: real time      0.1412
     EDDAV:  cpu time      0.2607: real time      0.2633
       DOS:  cpu time      0.0023: real time      0.0023
    --------------------------------------------
      LOOP:  cpu time      0.4093: real time      0.4128

 eigenvalue-minimisations  :  2560
 total energy-change (2. order) : 0.1270739E+03  (-0.1322526E+04)
 number of electron      40.0000000 magnetization 
 augmentation part       40.0000000 magnetization 

 Free energy of the ion-electron system (eV)
  ---------------------------------------------------
  alpha Z        PSCENC =       104.05351890
  Ewald energy   TEWEN  =     -1524.50901088
  -Hartree energ DENC   =       -93.51667632
  -exchange      EXHF   =         0.00000000
  -V(xc)+E(xc)   XCENC  =       -31.10529284
  PAW double counting   =      1193.78262552    -1080.73714043
  entropy T*S    EENTRO =        -0.00016323
  eigenvalues    EBANDS =       110.62143985
  atomic energy  EATOM  =      1448.48460880
  Solvation  Ediel_sol  =         0.00000000
  ---------------------------------------------------
  free energy    TOTEN  =       127.07390936 eV

  energy without entropy =      127.07407260  energy(sigma->0) =      127.07399098


--------------------------------------------------------------------------------------------------------




--------------------------------------- Iteration      1(   2)  ---------------------------------------


     EDDAV:  cpu time      0.3022: real time      0.3054
       DOS:  cpu time      0.0011: real time      0.0011
    --------------------------------------------
      LOOP:  cpu time      0.3033: real time      0.3065

 eigenvalue-minimisations  :  3712
 total energy-change (2. order) :-0.1528531E+03  (-0.1485646E+03)
 number of electron      40.0000000 magnetization 
 augmentation part       40.0000000 magnetization 

 Free energy of the ion-electron system (eV)
  ---------------------------------------------------
  alpha Z        PSCENC =       104.05351890
  Ewald energy   TEWEN  =     -1524.50901088
  -Hartree energ DENC   =       -93.51667632
  -exchange      EXHF   =         0.00000000
  -V(xc)+E(xc)   XCENC  =       -31.10529284
  PAW double counting   =      1193.78262552    -1080.73714043
  entropy T*S    EENTRO =        -0.00149835
  eigenvalues    EBANDS =       -42.23030063
  atomic energy  EATOM  =      1448.48460880
  Solvation  Ediel_sol  =         0.00000000
  ---------------------------------------------------
  free energy    TOTEN  =       -25.77916623 eV

  energy without entropy =      -25.77766788  energy(sigma->0) =      -25.77841706


--------------------------------------------------------------------------------------------------------




--------------------------------------- Iteration      1(   3)  ---------------------------------------


     EDDAV:  cpu time      0.2870: real time      0.2901
       DOS:  cpu time      0.0011: real time      0.0011
    --------------------------------------------
      LOOP:  cpu time      0.2881: real time      0.2912

 eigenvalue-minimisations  :  3296
 total energy-change (2. order) :-0.7407879E+01  (-0.7387392E+01)
 number of electron      40.0000000 magnetization 
 augmentation part       40.0000000 magnetization 

 Free energy of the ion-electron system (eV)
  ---------------------------------------------------
  alpha Z        PSCENC =       104.05351890
  Ewald energy   TEWEN  =     -1524.50901088
  -Hartree energ DENC   =       -93.51667632
  -exchange      EXHF   =         0.00000000
  -V(xc)+E(xc)   XCENC  =       -31.10529284
  PAW double counting   =      1193.78262552    -1080.73714043
  entropy T*S    EENTRO =        -0.00279898
  eigenvalues    EBANDS =       -49.63687936
  atomic energy  EATOM  =      1448.48460880
  Solvation  Ediel_sol  =         0.00000000
  ---------------------------------------------------
  free energy    TOTEN  =       -33.18704559 eV

  energy without entropy =      -33.18424661  energy(sigma->0) =      -33.18564610


--------------------------------------------------------------------------------------------------------




--------------------------------------- Iteration      1(   4)  ---------------------------------------


     EDDAV:  cpu time      0.2911: real time      0.2941
       DOS:  cpu time      0.0010: real time      0.0010
    --------------------------------------------
      LOOP:  cpu time      0.2921: real time      0.2951

 eigenvalue-minimisations  :  3264
 total energy-change (2. order) :-0.4037313E-01  (-0.4036644E-01)
 number of electron      40.0000000 magnetization 
 augmentation part       40.0000000 magnetization 

 Free energy of the ion-electron system (eV)
  ---------------------------------------------------
  alpha Z        PSCENC =       104.05351890
  Ewald energy   TEWEN  =     -1524.50901088
  -Hartree energ DENC   =       -93.51667632
  -exchange      EXHF   =         0.00000000
  -V(xc)+E(xc)   XCENC  =       -31.10529284
  PAW double counting   =      1193.78262552    -1080.73714043
  entropy T*S    EENTRO =        -0.00281564
  eigenvalues    EBANDS =       -49.67723582
  atomic energy  EATOM  =      1448.48460880
  Solvation  Ediel_sol  =         0.00000000
  ---------------------------------------------------
  free energy    TOTEN  =       -33.22741872 eV

  energy without entropy =      -33.22460307  energy(sigma->0) =      -33.22601089


--------------------------------------------------------------------------------------------------------




--------------------------------------- Iteration      1(   5)  ---------------------------------------


     EDDAV:  cpu time      0.2877: real time      0.2911
       DOS:  cpu time      0.0010: real time      0.0010
    CHARGE:  cpu time      0.0036: real time      0.0036
    MIXING:  cpu time      0.0007: real time      0.0007
    --------------------------------------------
      LOOP:  cpu time      0.2930: real time      0.2964

 eigenvalue-minimisations  :  3248
 total energy-change (2. order) :-0.2244146E-03  (-0.2244061E-03)
 number of electron      39.9999971 magnetization 
 augmentation part       -7.3940146 magnetization 

 Broyden mixing:
  rms(total) = 0.71760E+00    rms(broyden)= 0.71759E+00
  rms(prec ) = 0.77135E+00
  weight for this iteration     100.00

 Free energy of the ion-electron system (eV)
  ---------------------------------------------------
  alpha Z        PSCENC =       104.05351890
  Ewald energy   TEWEN  =     -1524.50901088
  -Hartree energ DENC   =       -93.51667632
  -exchange      EXHF   =         0.00000000
  -V(xc)+E(xc)   XCENC  =       -31.10529284
  PAW double counting   =      1193.78262552    -1080.73714043
  entropy T*S    EENTRO =        -0.00281566
  eigenvalues    EBANDS =       -49.67746022
  atomic energy  EATOM  =      1448.48460880
  Solvation  Ediel_sol  =         0.00000000
  ---------------------------------------------------
  free energy    TOTEN  =       -33.22764313 eV

  energy without entropy =      -33.22482747  energy(sigma->0) =      -33.22623530


--------------------------------------------------------------------------------------------------------




--------------------------------------- Iteration      1(   6)  ---------------------------------------


    POTLOK:  cpu time      0.0050: real time      0.0052
    SETDIJ:  cpu time      0.1373: real time      0.1380
     EDDAV:  cpu time      0.2821: real time      0.2888
       DOS:  cpu time      0.0010: real time      0.0010
    CHARGE:  cpu time      0.0034: real time      0.0034
    MIXING:  cpu time      0.0005: real time      0.0005
    --------------------------------------------
      LOOP:  cpu time      0.4293: real time      0.4370

 eigenvalue-minimisations  :  3264
 total energy-change (2. order) : 0.2725970E+00  (-0.5260022E-01)
 number of electron      39.9999971 magnetization 
 augmentation part       -7.3542065 magnetization 

 Broyden mixing:
  rms(total) = 0.44776E+00    rms(broyden)= 0.44775E+00
  rms(prec ) = 0.46213E+00
  weight for this iteration     100.00

 eigenvalues of (default mixing * dielectric matrix)
  average eigenvalue GAMMA=   2.3877
  2.3877

 Free energy of the ion-electron system (eV)
  ---------------------------------------------------
  alpha Z        PSCENC =       104.05351890
  Ewald energy   TEWEN  =     -1524.50901088
  -Hartree energ DENC   =       -97.84672768
  -exchange      EXHF   =         0.00000000
  -V(xc)+E(xc)   XCENC  =       -30.58691938
  PAW double counting   =      1504.36794081    -1391.69746844
  entropy T*S    EENTRO =        -0.00267571
  eigenvalues    EBANDS =       -45.21831250
  atomic energy  EATOM  =      1448.48460880
  Solvation  Ediel_sol  =         0.00000000
  ---------------------------------------------------
  free energy    TOTEN  =       -32.95504608 eV

  energy without entropy =      -32.95237037  energy(sigma->0) =      -32.95370823


--------------------------------------------------------------------------------------------------------




--------------------------------------- Iteration      1(   7)  ---------------------------------------


    POTLOK:  cpu time      0.0049: real time      0.0051
    SETDIJ:  cpu time      0.1379: real time      0.1387
     EDDAV:  cpu time      0.2861: real time      0.2889
       DOS:  cpu time      0.0011: real time      0.0011
    CHARGE:  cpu time      0.0034: real time      0.0034
    MIXING:  cpu time      0.0005: real time      0.0005
    --------------------------------------------
      LOOP:  cpu time      0.4338: real time      0.4376

 eigenvalue-minimisations  :  3152
 total energy-change (2. order) : 0.1020574E-01  (-0.1991000E-01)
 number of electron      39.9999971 magnetization 
 augmentation part       -7.3425130 magnetization 

 Broyden mixing:
  rms(total) = 0.99118E-01    rms(broyden)= 0.99117E-01
  rms(prec ) = 0.10641E+00
  weight for this iteration     100.00

 eigenvalues of (default mixing * dielectric matrix)
  average eigenvalue GAMMA=   1.8398
  1.2415  2.4381

 Free energy of the ion-electron system (eV)
  ---------------------------------------------------
  alpha Z        PSCENC =       104.05351890
  Ewald energy   TEWEN  =     -1524.50901088
  -Hartree energ DENC   =      -100.14248415
  -exchange      EXHF   =         0.00000000
  -V(xc)+E(xc)   XCENC  =       -30.09921207
  PAW double counting   =      1956.52454395    -1844.22879429
  entropy T*S    EENTRO =        -0.00286111
  eigenvalues    EBANDS =       -43.02514949
  atomic energy  EATOM  =      1448.48460880
  Solvation  Ediel_sol  =         0.00000000
  ---------------------------------------------------
  free energy    TOTEN  =       -32.94484034 eV

  energy without entropy =      -32.94197923  energy(sigma->0) =      -32.94340979


--------------------------------------------------------------------------------------------------------




--------------------------------------- Iteration      1(   8)  ---------------------------------------


    POTLOK:  cpu time      0.0049: real time      0.0051
    SETDIJ:  cpu time      0.1365: real time      0.1376
     EDDAV:  cpu time      0.2748: real time      0.2776
       DOS:  cpu time      0.0010: real time      0.0013
    CHARGE:  cpu time      0.0033: real time      0.0033
    MIXING:  cpu time      0.0005: real time      0.0005
    --------------------------------------------
      LOOP:  cpu time      0.4209: real time      0.4253

 eigenvalue-minimisations  :  3104
 total energy-change (2. order) : 0.3412386E-02  (-0.2321332E-02)
 number of electron      39.9999971 magnetization 
 augmentation part       -7.3504650 magnetization 

 Broyden mixing:
  rms(total) = 0.15703E-01    rms(broyden)= 0.15703E-01
  rms(prec ) = 0.18025E-01
  weight for this iteration     100.00

 eigenvalues of (default mixing * dielectric matrix)
  average eigenvalue GAMMA=   1.7778
  2.5385  1.3974  1.3974

 Free energy of the ion-electron system (eV)
  ---------------------------------------------------
  alpha Z        PSCENC =       104.05351890
  Ewald energy   TEWEN  =     -1524.50901088
  -Hartree energ DENC   =       -99.81367778
  -exchange      EXHF   =         0.00000000
  -V(xc)+E(xc)   XCENC  =       -30.03524498
  PAW double counting   =      2067.40740108    -1955.16637378
  entropy T*S    EENTRO =        -0.00275353
  eigenvalues    EBANDS =       -43.35989578
  atomic energy  EATOM  =      1448.48460880
  Solvation  Ediel_sol  =         0.00000000
  ---------------------------------------------------
  free energy    TOTEN  =       -32.94142795 eV

  energy without entropy =      -32.93867442  energy(sigma->0) =      -32.94005119


--------------------------------------------------------------------------------------------------------




--------------------------------------- Iteration      1(   9)  ---------------------------------------


    POTLOK:  cpu time      0.0048: real time      0.0050
    SETDIJ:  cpu time      0.1370: real time      0.1378
     EDDAV:  cpu time      0.2762: real time      0.2791
       DOS:  cpu time      0.0011: real time      0.0011
    CHARGE:  cpu time      0.0033: real time      0.0033
    MIXING:  cpu time      0.0005: real time      0.0005
    --------------------------------------------
      LOOP:  cpu time      0.4228: real time      0.4267

 eigenvalue-minimisations  :  3120
 total energy-change (2. order) :-0.2011851E-03  (-0.2433517E-03)
 number of electron      39.9999971 magnetization 
 augmentation part       -7.3500164 magnetization 

 Broyden mixing:
  rms(total) = 0.51803E-02    rms(broyden)= 0.51803E-02
  rms(prec ) = 0.56077E-02
  weight for this iteration     100.00

 eigenvalues of (default mixing * dielectric matrix)
  average eigenvalue GAMMA=   1.6574
  2.3829  1.1830  1.1830  1.8808

 Free energy of the ion-electron system (eV)
  ---------------------------------------------------
  alpha Z        PSCENC =       104.05351890
  Ewald energy   TEWEN  =     -1524.50901088
  -Hartree energ DENC   =       -99.99686974
  -exchange      EXHF   =         0.00000000
  -V(xc)+E(xc)   XCENC  =       -30.00944986
  PAW double counting   =      2078.78003959    -1966.54727394
  entropy T*S    EENTRO =        -0.00274635
  eigenvalues    EBANDS =       -43.19444566
  atomic energy  EATOM  =      1448.48460880
  Solvation  Ediel_sol  =         0.00000000
  ---------------------------------------------------
  free energy    TOTEN  =       -32.94162914 eV

  energy without entropy =      -32.93888279  energy(sigma->0) =      -32.94025596


--------------------------------------------------------------------------------------------------------




--------------------------------------- Iteration      1(  10)  ---------------------------------------


    POTLOK:  cpu time      0.0047: real time      0.0049
    SETDIJ:  cpu time      0.1368: real time      0.1375
     EDDAV:  cpu time      0.2755: real time      0.2779
       DOS:  cpu time      0.0009: real time      0.0009
    CHARGE:  cpu time      0.0031: real time      0.0031
    MIXING:  cpu time      0.0005: real time      0.0006
    --------------------------------------------
      LOOP:  cpu time      0.4215: real time      0.4249

 eigenvalue-minimisations  :  3200
 total energy-change (2. order) :-0.2683717E-04  (-0.9840228E-05)
 number of electron      39.9999971 magnetization 
 augmentation part       -7.3499292 magnetization 

 Broyden mixing:
  rms(total) = 0.20555E-02    rms(broyden)= 0.20555E-02
  rms(prec ) = 0.24266E-02
  weight for this iteration     100.00

 eigenvalues of (default mixing * dielectric matrix)
  average eigenvalue GAMMA=   1.7495
  2.6649  2.3848  1.0826  1.3075  1.3075

 Free energy of the ion-electron system (eV)
  ---------------------------------------------------
  alpha Z        PSCENC =       104.05351890
  Ewald energy   TEWEN  =     -1524.50901088
  -Hartree energ DENC   =      -100.01972022
  -exchange      EXHF   =         0.00000000
  -V(xc)+E(xc)   XCENC  =       -30.00744218
  PAW double counting   =      2073.63976060    -1961.40331508
  entropy T*S    EENTRO =        -0.00273967
  eigenvalues    EBANDS =       -43.17731625
  atomic energy  EATOM  =      1448.48460880
  Solvation  Ediel_sol  =         0.00000000
  ---------------------------------------------------
  free energy    TOTEN  =       -32.94165598 eV

  energy without entropy =      -32.93891631  energy(sigma->0) =      -32.94028614


--------------------------------------------------------------------------------------------------------




--------------------------------------- Iteration      1(  11)  ---------------------------------------


    POTLOK:  cpu time      0.0033: real time      0.0035
    SETDIJ:  cpu time      0.1382: real time      0.1387
     EDDAV:  cpu time      0.1826: real time      0.1835
       DOS:  cpu time      0.0006: real time      0.0006
    CHARGE:  cpu time      0.0027: real time      0.0028
    MIXING:  cpu time      0.0003: real time      0.0003
    --------------------------------------------
      LOOP:  cpu time      0.3278: real time      0.3294

 eigenvalue-minimisations  :  3072
 total energy-change (2. order) :-0.1608710E-04  (-0.2199890E-05)
 number of electron      39.9999971 magnetization 
 augmentation part       -7.3500446 magnetization 

 Broyden mixing:
  rms(total) = 0.73485E-03    rms(broyden)= 0.73485E-03
  rms(prec ) = 0.83196E-03
  weight for this iteration     100.00

 eigenvalues of (default mixing * dielectric matrix)
  average eigenvalue GAMMA=   1.6822
  2.6437  2.4742  1.6670  1.2129  1.2129  0.8823

 Free energy of the ion-electron system (eV)
  ---------------------------------------------------
  alpha Z        PSCENC =       104.05351890
  Ewald energy   TEWEN  =     -1524.50901088
  -Hartree energ DENC   =      -100.03643068
  -exchange      EXHF   =         0.00000000
  -V(xc)+E(xc)   XCENC  =       -30.00254781
  PAW double counting   =      2074.45036856    -1962.21393341
  entropy T*S    EENTRO =        -0.00273802
  eigenvalues    EBANDS =       -43.16550752
  atomic energy  EATOM  =      1448.48460880
  Solvation  Ediel_sol  =         0.00000000
  ---------------------------------------------------
  free energy    TOTEN  =       -32.94167206 eV

  energy without entropy =      -32.93893404  energy(sigma->0) =      -32.94030305


--------------------------------------------------------------------------------------------------------




--------------------------------------- Iteration      1(  12)  ---------------------------------------


    POTLOK:  cpu time      0.0032: real time      0.0033
    SETDIJ:  cpu time      0.1366: real time      0.1370
     EDDAV:  cpu time      0.1470: real time      0.1477
       DOS:  cpu time      0.0006: real time      0.0006
    --------------------------------------------
      LOOP:  cpu time      0.2873: real time      0.2886

 eigenvalue-minimisations  :  2272
 total energy-change (2. order) : 0.2130220E-06  (-0.1990052E-06)
 number of electron      39.9999971 magnetization 
 augmentation part       -7.3500446 magnetization 

 Free energy of the ion-electron system (eV)
  ---------------------------------------------------
  alpha Z        PSCENC =       104.05351890
  Ewald energy   TEWEN  =     -1524.50901088
  -Hartree energ DENC   =      -100.04551397
  -exchange      EXHF   =         0.00000000
  -V(xc)+E(xc)   XCENC  =       -30.00187495
  PAW double counting   =      2074.01263165    -1961.77603780
  entropy T*S    EENTRO =        -0.00273940
  eigenvalues    EBANDS =       -43.15725419
  atomic energy  EATOM  =      1448.48460880
  Solvation  Ediel_sol  =         0.00000000
  ---------------------------------------------------
  free energy    TOTEN  =       -32.94167185 eV

  energy without entropy =      -32.93893245  energy(sigma->0) =      -32.94030215


--------------------------------------------------------------------------------------------------------




 average (electrostatic) potential at core
  the test charge radii are     1.1631  1.0808
  (the norm of the test charge is              1.0000)
       1 -31.9188       2 -31.9188       3 -31.9188       4 -31.9188       5 -53.5472
       6 -53.5472       7 -53.5472       8 -53.5472
 
 
 
 E-fermi :   4.9320     XC(G=0): -10.1249     alpha+bet :-10.3661

 Fermi energy:         4.9319847570

 k-point     1 :       0.0000    0.0000    0.0000
  band No.  band energies     occupation 
      1     -10.2646      2.00000
      2      -9.8747      2.00000
      3      -8.7558      2.00000
      4      -8.0565      2.00000
      5      -2.8821      2.00000
      6      -1.9543      2.00000
      7      -1.7597      2.00000
      8       0.0318      2.00000
      9       0.1133      2.00000
     10       0.7374      2.00000
     11       0.9399      2.00000
     12       1.2626      2.00000
     13       1.3097      2.00000
     14       1.7154      2.00000
     15       2.5839      2.00000
     16       2.5902      2.00000
     17       2.6853      2.00000
     18       3.3118      2.00000
     19       4.1199      2.00000
     20       4.7224      2.00000
     21       5.0128      0.02230
     22       7.9339      0.00000
     23       8.2499      0.00000
     24       8.6053      0.00000
     25       8.7475      0.00000
     26       8.9174      0.00000
     27       9.2530      0.00000
     28      10.0111      0.00000
     29      10.3687      0.00000
     30      10.3842      0.00000
     31      10.4156      0.00000
     32      10.7933      0.00000

 k-point     2 :       0.1667    0.0000    0.0000
  band No.  band energies     occupation 
      1     -10.0670      2.00000
      2      -9.6873      2.00000
      3      -8.6423      2.00000
      4      -8.0099      2.00000
      5      -3.6985      2.00000
      6      -2.6581      2.00000
      7      -2.0453      2.00000
      8      -1.1136      2.00000
      9      -0.6511      2.00000
     10       1.2263      2.00000
     11       1.5007      2.00000
     12       1.8308      2.00000
     13       1.8716      2.00000
     14       1.9406      2.00000
     15       2.7819      2.00000
     16       3.3639      2.00000
     17       3.4521      2.00000
     18       3.8175      2.00000
     19       3.9662      2.00000
     20       4.4932      2.00000
     21       4.8946      1.70946
     22       7.5993      0.00000
     23       8.1576      0.00000
     24       8.5183      0.00000
     25       8.5610      0.00000
     26       8.6817      0.00000
     27       9.2494      0.00000
     28       9.2541      0.00000
     29       9.2751      0.00000
     30      10.1087      0.00000
     31      10.3128      0.00000
     32      10.7348      0.00000

 k-point     3 :       0.3333    0.0000    0.0000
  band No.  band energies     occupation 
      1      -9.5174      2.00000
      2      -9.1684      2.00000
      3      -8.4916      2.00000
      4      -8.0493      2.00000
      5      -4.7534      2.00000
      6      -3.5756      2.00000
      7      -3.5273      2.00000
      8      -2.3661      2.00000
      9      -0.4795      2.00000
     10       1.6944      2.00000
     11       2.1704      2.00000
     12       2.4536      2.00000
     13       2.5631      2.00000
     14       2.9062      2.00000
     15       3.1883      2.00000
     16       3.3111      2.00000
     17       3.6582      2.00000
     18       4.3480      2.00000
     19       4.8113      1.99936
     20       5.2123      0.00000
     21       5.5379      0.00000
     22       6.1288      0.00000
     23       6.6335      0.00000
     24       6.8845      0.00000
     25       7.6161      0.00000
     26       7.8327      0.00000
     27       8.0452      0.00000
     28       8.6011      0.00000
     29       8.8303      0.00000
     30       8.9662      0.00000
     31      10.1385      0.00000
     32      11.1357      0.00000

 k-point     4 :       0.5000    0.0000    0.0000
  band No.  band energies     occupation 
      1      -8.8201      2.00000
      2      -8.8201      2.00000
      3      -8.4958      2.00000
      4      -8.4958      2.00000
      5      -4.7298      2.00000
      6      -4.7298      2.00000
      7      -3.4213      2.00000
      8      -3.4213      2.00000
      9       0.5727      2.00000
     10       0.5727      2.00000
     11       3.0183      2.00000
     12       3.0183      2.00000
     13       3.2103      2.00000
     14       3.2103      2.00000
     15       3.3286      2.00000
     16       3.3286      2.00000
     17       4.1000      2.00000
     18       4.1000      2.00000
     19       4.8608      1.95601
     20       4.8608      1.95601
     21       6.3860      0.00000
     22       6.3860      0.00000
     23       6.5771      0.00000
     24       6.5771      0.00000
     25       6.8516      0.00000
     26       6.8516      0.00000
     27       7.4545      0.00000
     28       7.4545      0.00000
     29       7.7262      0.00000
     30       7.7262      0.00000
     31      10.9143      0.00000
     32      10.9143      0.00000

 k-point     5 :       0.0000    0.1667    0.0000
  band No.  band energies     occupation 
      1     -10.0298      2.00000
      2      -9.6546      2.00000
      3      -8.5845      2.00000
      4      -7.9608      2.00000
      5      -3.3631      2.00000
      6      -2.7148      2.00000
      7      -1.6616      2.00000
      8      -1.1660      2.00000
      9      -0.5075      2.00000
     10       0.9048      2.00000
     11       1.1986      2.00000
     12       1.5471      2.00000
     13       1.6151      2.00000
     14       1.6559      2.00000
     15       2.5504      2.00000
     16       2.8845      2.00000
     17       3.3427      2.00000
     18       3.7620      2.00000
     19       4.4131      2.00000
     20       4.5405      2.00000
     21       4.7655      2.00000
     22       7.4089      0.00000
     23       8.2169      0.00000
     24       8.3474      0.00000
     25       8.5269      0.00000
     26       9.0775      0.00000
     27       9.1804      0.00000
     28       9.2429      0.00000
     29       9.5414      0.00000
     30       9.9993      0.00000
     31      10.1898      0.00000
     32      10.5543      0.00000

 k-point     6 :       0.1667    0.1667    0.0000
  band No.  band energies     occupation 
      1      -9.8378      2.00000
      2      -9.4739      2.00000
      3      -8.4794      2.00000
      4      -7.9180      2.00000
      5      -3.8040      2.00000
      6      -2.9084      2.00000
      7      -2.0575      2.00000
      8      -1.4554      2.00000
      9      -0.7020      2.00000
     10       0.1947      2.00000
     11       0.3199      2.00000
     12       1.6580      2.00000
     13       1.8264      2.00000
     14       2.3708      2.00000
     15       2.6730      2.00000
     16       3.0803      2.00000
     17       4.0636      2.00000
     18       4.3177      2.00000
     19       4.5675      2.00000
     20       4.5934      2.00000
     21       5.0152      0.01855
     22       6.6746      0.00000
     23       7.1482      0.00000
     24       7.2632      0.00000
     25       8.3072      0.00000
     26       8.8093      0.00000
     27       9.0950      0.00000
     28       9.3025      0.00000
     29       9.9683      0.00000
     30      10.0583      0.00000
     31      10.5320      0.00000
     32      10.7306      0.00000

 k-point     7 :      -0.1667    0.1667    0.0000
  band No.  band energies     occupation 
      1      -9.8378      2.00000
      2      -9.4739      2.00000
      3      -8.4794      2.00000
      4      -7.9180      2.00000
      5      -3.8040      2.00000
      6      -2.9084      2.00000
      7      -2.0575      2.00000
      8      -1.4554      2.00000
      9      -0.7020      2.00000
     10       0.1947      2.00000
     11       0.3199      2.00000
     12       1.6580      2.00000
     13       1.8264      2.00000
     14       2.3708      2.00000
     15       2.6730      2.00000
     16       3.0803      2.00000
     17       4.0636      2.00000
     18       4.3177      2.00000
     19       4.5675      2.00000
     20       4.5934      2.00000
     21       5.0152      0.01855
     22       6.6746      0.00000
     23       7.1482      0.00000
     24       7.2632      0.00000
     25       8.3072      0.00000
     26       8.8093      0.00000
     27       9.0950      0.00000
     28       9.3025      0.00000
     29       9.9683      0.00000
     30      10.0583      0.00000
     31      10.5320      0.00000
     32      10.7306      0.00000

 k-point     8 :       0.3333    0.1667    0.0000
  band No.  band energies     occupation 
      1      -9.3087      2.00000
      2      -8.9785      2.00000
      3      -8.3455      2.00000
      4      -7.9512      2.00000
      5      -4.5526      2.00000
      6      -3.4019      2.00000
      7      -3.3518      2.00000
      8      -2.3303      2.00000
      9      -0.2434      2.00000
     10       0.2714      2.00000
     11       0.4315      2.00000
     12       1.6460      2.00000
     13       1.9767      2.00000
     14       2.4242      2.00000
     15       2.5742      2.00000
     16       3.4786      2.00000
     17       3.6826      2.00000
     18       3.9597      2.00000
     19       3.9982      2.00000
     20       4.4134      2.00000
     21       5.6112      0.00000
     22       6.5242      0.00000
     23       7.2105      0.00000
     24       7.5306      0.00000
     25       7.6296      0.00000
     26       8.1303      0.00000
     27       9.1444      0.00000
     28       9.7420      0.00000
     29       9.9265      0.00000
     30      10.1668      0.00000
     31      10.7286      0.00000
     32      10.8006      0.00000

 k-point     9 :      -0.3333    0.1667    0.0000
  band No.  band energies     occupation 
      1      -9.3087      2.00000
      2      -8.9785      2.00000
      3      -8.3455      2.00000
      4      -7.9512      2.00000
      5      -4.5526      2.00000
      6      -3.4019      2.00000
      7      -3.3518      2.00000
      8      -2.3303      2.00000
      9      -0.2434      2.00000
     10       0.2714      2.00000
     11       0.4315      2.00000
     12       1.6460      2.00000
     13       1.9767      2.00000
     14       2.4242      2.00000
     15       2.5742      2.00000
     16       3.4786      2.00000
     17       3.6826      2.00000
     18       3.9597      2.00000
     19       3.9982      2.00000
     20       4.4134      2.00000
     21       5.6112      0.00000
     22       6.5242      0.00000
     23       7.2105      0.00000
     24       7.5306      0.00000
     25       7.6296      0.00000
     26       8.1303      0.00000
     27       9.1444      0.00000
     28       9.7420      0.00000
     29       9.9265      0.00000
     30      10.1668      0.00000
     31      10.7286      0.00000
     32      10.8006      0.00000

 k-point    10 :       0.5000    0.1667    0.0000
  band No.  band energies     occupation 
      1      -8.6515      2.00000
      2      -8.6515      2.00000
      3      -8.3520      2.00000
      4      -8.3520      2.00000
      5      -4.4748      2.00000
      6      -4.4748      2.00000
      7      -3.2086      2.00000
      8      -3.2086      2.00000
      9       0.5988      2.00000
     10       0.5988      2.00000
     11       1.2068      2.00000
     12       1.2068      2.00000
     13       1.6795      2.00000
     14       1.6795      2.00000
     15       2.9816      2.00000
     16       2.9816      2.00000
     17       3.4666      2.00000
     18       3.4666      2.00000
     19       4.1265      2.00000
     20       4.1265      2.00000
     21       5.7546      0.00000
     22       5.7546      0.00000
     23       7.7277      0.00000
     24       7.7277      0.00000
     25       8.6152      0.00000
     26       8.6152      0.00000
     27       9.1064      0.00000
     28       9.1064      0.00000
     29       9.8785      0.00000
     30       9.8785      0.00000
     31      10.4837      0.00000
     32      10.4837      0.00000

 k-point    11 :       0.0000    0.3333    0.0000
  band No.  band energies     occupation 
      1      -9.3692      2.00000
      2      -9.0552      2.00000
      3      -8.2454      2.00000
      4      -7.9231      2.00000
      5      -4.2865      2.00000
      6      -3.7561      2.00000
      7      -3.0588      2.00000
      8      -2.4885      2.00000
      9      -0.3806      2.00000
     10       1.5783      2.00000
     11       1.9186      2.00000
     12       1.9474      2.00000
     13       2.0242      2.00000
     14       2.1875      2.00000
     15       3.0405      2.00000
     16       3.2305      2.00000
     17       3.7386      2.00000
     18       3.7969      2.00000
     19       4.2307      2.00000
     20       4.8564      1.96739
     21       5.4360      0.00000
     22       5.4974      0.00000
     23       6.7353      0.00000
     24       6.8054      0.00000
     25       7.1336      0.00000
     26       7.1741      0.00000
     27       7.6331      0.00000
     28       8.2447      0.00000
     29       8.8011      0.00000
     30       8.8850      0.00000
     31       9.7623      0.00000
     32      10.3352      0.00000

 k-point    12 :       0.1667    0.3333    0.0000
  band No.  band energies     occupation 
      1      -9.1992      2.00000
      2      -8.8996      2.00000
      3      -8.1612      2.00000
      4      -7.8707      2.00000
      5      -4.2038      2.00000
      6      -3.5627      2.00000
      7      -2.9391      2.00000
      8      -2.5563      2.00000
      9      -0.1703      2.00000
     10      -0.0692      2.00000
     11       0.2677      2.00000
     12       1.3243      2.00000
     13       1.8769      2.00000
     14       2.5856      2.00000
     15       2.6442      2.00000
     16       3.3431      2.00000
     17       3.3657      2.00000
     18       3.3839      2.00000
     19       3.9435      2.00000
     20       4.1553      2.00000
     21       5.3925      0.00000
     22       6.4131      0.00000
     23       6.9784      0.00000
     24       7.1065      0.00000
     25       7.1107      0.00000
     26       8.1563      0.00000
     27       9.0031      0.00000
     28       9.0733      0.00000
     29       9.6009      0.00000
     30       9.6963      0.00000
     31      10.0213      0.00000
     32      11.0835      0.00000

 k-point    13 :      -0.1667    0.3333    0.0000
  band No.  band energies     occupation 
      1      -9.1992      2.00000
      2      -8.8996      2.00000
      3      -8.1612      2.00000
      4      -7.8707      2.00000
      5      -4.2038      2.00000
      6      -3.5627      2.00000
      7      -2.9391      2.00000
      8      -2.5563      2.00000
      9      -0.1703      2.00000
     10      -0.0692      2.00000
     11       0.2677      2.00000
     12       1.3243      2.00000
     13       1.8769      2.00000
     14       2.5856      2.00000
     15       2.6442      2.00000
     16       3.3431      2.00000
     17       3.3657      2.00000
     18       3.3839      2.00000
     19       3.9435      2.00000
     20       4.1553      2.00000
     21       5.3925      0.00000
     22       6.4131      0.00000
     23       6.9784      0.00000
     24       7.1065      0.00000
     25       7.1107      0.00000
     26       8.1563      0.00000
     27       9.0031      0.00000
     28       9.0733      0.00000
     29       9.6009      0.00000
     30       9.6963      0.00000
     31      10.0213      0.00000
     32      11.0835      0.00000

 k-point    14 :       0.3333    0.3333    0.0000
  band No.  band energies     occupation 
      1      -8.7487      2.00000
      2      -8.4930      2.00000
      3      -8.0489      2.00000
      4      -7.8291      2.00000
      5      -4.0672      2.00000
      6      -3.1032      2.00000
      7      -3.1001      2.00000
      8      -2.6537      2.00000
      9      -1.0182      2.00000
     10      -0.7755      2.00000
     11       0.2773      2.00000
     12       0.3895      2.00000
     13       0.6639      2.00000
     14       1.2455      2.00000
     15       1.9296      2.00000
     16       2.1701      2.00000
     17       2.7405      2.00000
     18       3.0078      2.00000
     19       3.0826      2.00000
     20       3.6027      2.00000
     21       5.2978      0.00000
     22       7.7318      0.00000
     23       8.4151      0.00000
     24       8.4229      0.00000
     25       8.8389      0.00000
     26       9.1398      0.00000
     27       9.2736      0.00000
     28       9.5525      0.00000
     29      10.1993      0.00000
     30      10.8623      0.00000
     31      11.1866      0.00000
     32      11.3450      0.00000

 k-point    15 :      -0.3333    0.3333    0.0000
  band No.  band energies     occupation 
      1      -8.7487      2.00000
      2      -8.4930      2.00000
      3      -8.0489      2.00000
      4      -7.8291      2.00000
      5      -4.0672      2.00000
      6      -3.1032      2.00000
      7      -3.1001      2.00000
      8      -2.6537      2.00000
      9      -1.0182      2.00000
     10      -0.7755      2.00000
     11       0.2773      2.00000
     12       0.3895      2.00000
     13       0.6639      2.00000
     14       1.2455      2.00000
     15       1.9296      2.00000
     16       2.1701      2.00000
     17       2.7405      2.00000
     18       3.0078      2.00000
     19       3.0826      2.00000
     20       3.6027      2.00000
     21       5.2978      0.00000
     22       7.7318      0.00000
     23       8.4151      0.00000
     24       8.4229      0.00000
     25       8.8389      0.00000
     26       9.1398      0.00000
     27       9.2736      0.00000
     28       9.5525      0.00000
     29      10.1993      0.00000
     30      10.8623      0.00000
     31      11.1866      0.00000
     32      11.3451      0.00000

 k-point    16 :       0.5000    0.3333    0.0000
  band No.  band energies     occupation 
      1      -8.2441      2.00000
      2      -8.2441      2.00000
      3      -8.0410      2.00000
      4      -8.0410      2.00000
      5      -3.7668      2.00000
      6      -3.7668      2.00000
      7      -2.7571      2.00000
      8      -2.7571      2.00000
      9      -0.7065      2.00000
     10      -0.7065      2.00000
     11      -0.3780      2.00000
     12      -0.3780      2.00000
     13       0.8650      2.00000
     14       0.8650      2.00000
     15       1.6661      2.00000
     16       1.6661      2.00000
     17       2.0288      2.00000
     18       2.0288      2.00000
     19       3.2772      2.00000
     20       3.2772      2.00000
     21       6.4449      0.00000
     22       6.4449      0.00000
     23       8.8918      0.00000
     24       8.8918      0.00000
     25       9.3672      0.00000
     26       9.3672      0.00000
     27      10.2631      0.00000
     28      10.2631      0.00000
     29      10.8310      0.00000
     30      10.8310      0.00000
     31      11.3885      0.00000
     32      11.3885      0.00000

 k-point    17 :       0.0000    0.5000    0.0000
  band No.  band energies     occupation 
      1      -8.4848      2.00000
      2      -8.4848      2.00000
      3      -8.3681      2.00000
      4      -8.3681      2.00000
      5      -4.3351      2.00000
      6      -4.3351      2.00000
      7      -3.6363      2.00000
      8      -3.6363      2.00000
      9       0.7511      2.00000
     10       0.7511      2.00000
     11       2.6774      2.00000
     12       2.6774      2.00000
     13       2.6954      2.00000
     14       2.6954      2.00000
     15       3.1154      2.00000
     16       3.1154      2.00000
     17       3.6528      2.00000
     18       3.6528      2.00000
     19       4.2344      2.00000
     20       4.2344      2.00000
     21       5.9279      0.00000
     22       5.9279      0.00000
     23       6.1563      0.00000
     24       6.1563      0.00000
     25       6.5206      0.00000
     26       6.5206      0.00000
     27       6.9300      0.00000
     28       6.9300      0.00000
     29       7.4531      0.00000
     30       7.4531      0.00000
     31      10.1199      0.00000
     32      10.1199      0.00000

 k-point    18 :       0.1667    0.5000    0.0000
  band No.  band energies     occupation 
      1      -8.3680      2.00000
      2      -8.3680      2.00000
      3      -8.2634      2.00000
      4      -8.2634      2.00000
      5      -4.1111      2.00000
      6      -4.1111      2.00000
      7      -3.4676      2.00000
      8      -3.4676      2.00000
      9       0.6183      2.00000
     10       0.6183      2.00000
     11       0.9304      2.00000
     12       0.9304      2.00000
     13       1.7793      2.00000
     14       1.7793      2.00000
     15       2.5219      2.00000
     16       2.5219      2.00000
     17       3.2028      2.00000
     18       3.2028      2.00000
     19       3.8075      2.00000
     20       3.8075      2.00000
     21       5.6227      0.00000
     22       5.6227      0.00000
     23       7.4295      0.00000
     24       7.4295      0.00000
     25       8.0481      0.00000
     26       8.0481      0.00000
     27       8.2924      0.00000
     28       8.2924      0.00000
     29       9.1855      0.00000
     30       9.1855      0.00000
     31      10.1037      0.00000
     32      10.1037      0.00000

 k-point    19 :       0.3333    0.5000    0.0000
  band No.  band energies     occupation 
      1      -8.1028      2.00000
      2      -8.1028      2.00000
      3      -8.0362      2.00000
      4      -8.0362      2.00000
      5      -3.4987      2.00000
      6      -3.4987      2.00000
      7      -3.0791      2.00000
      8      -3.0791      2.00000
      9      -0.7617      2.00000
     10      -0.7617      2.00000
     11      -0.2021      2.00000
     12      -0.2021      2.00000
     13       0.7029      2.00000
     14       0.7029      2.00000
     15       1.5520      2.00000
     16       1.5520      2.00000
     17       1.9392      2.00000
     18       1.9392      2.00000
     19       3.2588      2.00000
     20       3.2588      2.00000
     21       6.6023      0.00000
     22       6.6023      0.00000
     23       8.5110      0.00000
     24       8.5110      0.00000
     25       9.1827      0.00000
     26       9.1827      0.00000
     27       9.8909      0.00000
     28       9.8909      0.00000
     29      10.4520      0.00000
     30      10.4520      0.00000
     31      11.3163      0.00000
     32      11.3163      0.00000

 k-point    20 :       0.5000    0.5000    0.0000
  band No.  band energies     occupation 
      1      -7.9404      2.00000
      2      -7.9404      2.00000
      3      -7.9210      2.00000
      4      -7.9210      2.00000
      5      -2.9464      2.00000
      6      -2.9464      2.00000
      7      -2.9025      2.00000
      8      -2.9025      2.00000
      9      -1.3779      2.00000
     10      -1.3779      2.00000
     11      -0.8556      2.00000
     12      -0.8556      2.00000
     13       0.1809      2.00000
     14       0.1809      2.00000
     15       0.6513      2.00000
     16       0.6513      2.00000
     17       2.2554      2.00000
     18       2.2554      2.00000
[...]
     32       9.4628      0.00000

 k-point    32 :       0.1667    0.3333    0.5000
  band No.  band energies     occupation 
      1      -9.0733      2.00000
      2      -9.0733      2.00000
      3      -7.9893      2.00000
      4      -7.9893      2.00000
      5      -3.9477      2.00000
      6      -3.9477      2.00000
      7      -2.7362      2.00000
      8      -2.7362      2.00000
      9       0.0533      2.00000
     10       0.0533      2.00000
     11       0.9483      2.00000
     12       0.9483      2.00000
     13       1.5929      2.00000
     14       1.5929      2.00000
     15       3.1186      2.00000
     16       3.1186      2.00000
     17       3.2874      2.00000
     18       3.2874      2.00000
     19       4.1977      2.00000
     20       4.1977      2.00000
     21       6.4643      0.00000
     22       6.4643      0.00000
     23       7.0316      0.00000
     24       7.0316      0.00000
     25       7.7775      0.00000
     26       7.7775      0.00000
     27       8.3612      0.00000
     28       8.3612      0.00000
     29       9.1218      0.00000
     30       9.1218      0.00000
     31      10.9223      0.00000
     32      10.9223      0.00000

 k-point    33 :      -0.1667    0.3333    0.5000
  band No.  band energies     occupation 
      1      -9.0733      2.00000
      2      -9.0733      2.00000
      3      -7.9893      2.00000
      4      -7.9893      2.00000
      5      -3.9477      2.00000
      6      -3.9477      2.00000
      7      -2.7362      2.00000
      8      -2.7362      2.00000
      9       0.0533      2.00000
     10       0.0533      2.00000
     11       0.9483      2.00000
     12       0.9483      2.00000
     13       1.5929      2.00000
     14       1.5929      2.00000
     15       3.1186      2.00000
     16       3.1186      2.00000
     17       3.2874      2.00000
     18       3.2874      2.00000
     19       4.1977      2.00000
     20       4.1977      2.00000
     21       6.4643      0.00000
     22       6.4643      0.00000
     23       7.0316      0.00000
     24       7.0316      0.00000
     25       7.7775      0.00000
     26       7.7775      0.00000
     27       8.3612      0.00000
     28       8.3612      0.00000
     29       9.1218      0.00000
     30       9.1218      0.00000
     31      10.9223      0.00000
     32      10.9223      0.00000

 k-point    34 :       0.3333    0.3333    0.5000
  band No.  band energies     occupation 
      1      -8.6430      2.00000
      2      -8.6430      2.00000
      3      -7.9168      2.00000
      4      -7.9168      2.00000
      5      -3.7349      2.00000
      6      -3.7349      2.00000
      7      -2.7721      2.00000
      8      -2.7721      2.00000
      9      -0.8323      2.00000
     10      -0.8323      2.00000
     11       0.3709      2.00000
     12       0.3709      2.00000
     13       1.1029      2.00000
     14       1.1029      2.00000
     15       1.7047      2.00000
     16       1.7047      2.00000
     17       2.8116      2.00000
     18       2.8116      2.00000
     19       3.3936      2.00000
     20       3.3936      2.00000
     21       6.9371      0.00000
     22       6.9371      0.00000
     23       7.7459      0.00000
     24       7.7459      0.00000
     25       8.5341      0.00000
     26       8.5341      0.00000
     27      10.1967      0.00000
     28      10.1967      0.00000
     29      10.5568      0.00000
     30      10.5568      0.00000
     31      11.6753      0.00000
     32      11.6753      0.00000

 k-point    35 :      -0.3333    0.3333    0.5000
  band No.  band energies     occupation 
      1      -8.6430      2.00000
      2      -8.6430      2.00000
      3      -7.9168      2.00000
      4      -7.9168      2.00000
      5      -3.7349      2.00000
      6      -3.7349      2.00000
      7      -2.7721      2.00000
      8      -2.7721      2.00000
      9      -0.8323      2.00000
     10      -0.8323      2.00000
     11       0.3709      2.00000
     12       0.3709      2.00000
     13       1.1029      2.00000
     14       1.1029      2.00000
     15       1.7047      2.00000
     16       1.7047      2.00000
     17       2.8116      2.00000
     18       2.8116      2.00000
     19       3.3936      2.00000
     20       3.3936      2.00000
     21       6.9371      0.00000
     22       6.9371      0.00000
     23       7.7459      0.00000
     24       7.7459      0.00000
     25       8.5341      0.00000
     26       8.5341      0.00000
     27      10.1967      0.00000
     28      10.1967      0.00000
     29      10.5568      0.00000
     30      10.5568      0.00000
     31      11.6753      0.00000
     32      11.6753      0.00000

 k-point    36 :       0.5000    0.3333    0.5000
  band No.  band energies     occupation 
      1      -8.2383      2.00000
      2      -8.2383      2.00000
      3      -8.0482      2.00000
      4      -8.0482      2.00000
      5      -3.7228      2.00000
      6      -3.7228      2.00000
      7      -2.8303      2.00000
      8      -2.8303      2.00000
      9      -0.6083      2.00000
     10      -0.6083      2.00000
     11      -0.4763      2.00000
     12      -0.4763      2.00000
     13       1.0099      2.00000
     14       1.0099      2.00000
     15       1.3875      2.00000
     16       1.3875      2.00000
     17       2.6463      2.00000
     18       2.6463      2.00000
     19       2.7357      2.00000
     20       2.7357      2.00000
     21       6.8956      0.00000
     22       6.8956      0.00000
     23       7.8273      0.00000
     24       7.8273      0.00000
     25       9.9040      0.00000
     26       9.9040      0.00000
     27      10.2430      0.00000
     28      10.2430      0.00000
     29      11.4025      0.00000
     30      11.4025      0.00000
     31      11.5523      0.00000
     32      11.5523      0.00000

 k-point    37 :       0.0000    0.5000    0.5000
  band No.  band energies     occupation 
      1      -8.4284      2.00000
      2      -8.4284      2.00000
      3      -8.4284      2.00000
      4      -8.4284      2.00000
      5      -4.0152      2.00000
      6      -4.0152      2.00000
      7      -4.0152      2.00000
      8      -4.0152      2.00000
      9       1.6558      2.00000
     10       1.6558      2.00000
     11       1.6558      2.00000
     12       1.6558      2.00000
     13       2.7918      2.00000
     14       2.7918      2.00000
     15       2.7918      2.00000
     16       2.7918      2.00000
     17       3.9563      2.00000
     18       3.9563      2.00000
     19       3.9563      2.00000
     20       3.9563      2.00000
     21       6.3619      0.00000
     22       6.3619      0.00000
     23       6.3619      0.00000
     24       6.3619      0.00000
     25       6.6589      0.00000
     26       6.6589      0.00000
     27       6.6589      0.00000
     28       6.6589      0.00000
     29       8.4839      0.00000
     30       8.4839      0.00000
     31       8.4839      0.00000
     32       8.4839      0.00000

 k-point    38 :       0.1667    0.5000    0.5000
  band No.  band energies     occupation 
      1      -8.3173      2.00000
      2      -8.3173      2.00000
      3      -8.3173      2.00000
      4      -8.3173      2.00000
      5      -3.8149      2.00000
      6      -3.8149      2.00000
      7      -3.8149      2.00000
      8      -3.8149      2.00000
      9       0.9065      2.00000
     10       0.9065      2.00000
     11       0.9065      2.00000
     12       0.9065      2.00000
     13       2.1149      2.00000
     14       2.1149      2.00000
     15       2.1149      2.00000
     16       2.1149      2.00000
     17       3.1969      2.00000
     18       3.1969      2.00000
     19       3.1969      2.00000
     20       3.1969      2.00000
     21       6.9404      0.00000
     22       6.9404      0.00000
     23       6.9404      0.00000
     24       6.9404      0.00000
     25       8.0306      0.00000
     26       8.0306      0.00000
     27       8.0306      0.00000
     28       8.0306      0.00000
     29       9.4441      0.00000
     30       9.4441      0.00000
     31       9.4441      0.00000
     32       9.4441      0.00000

 k-point    39 :       0.3333    0.5000    0.5000
  band No.  band energies     occupation 
      1      -8.0701      2.00000
      2      -8.0701      2.00000
      3      -8.0701      2.00000
      4      -8.0701      2.00000
      5      -3.3024      2.00000
      6      -3.3024      2.00000
      7      -3.3024      2.00000
      8      -3.3024      2.00000
      9      -0.4932      2.00000
     10      -0.4932      2.00000
     11      -0.4932      2.00000
     12      -0.4932      2.00000
     13       1.0048      2.00000
     14       1.0048      2.00000
     15       1.0048      2.00000
     16       1.0048      2.00000
     17       2.7336      2.00000
     18       2.7336      2.00000
     19       2.7336      2.00000
     20       2.7336      2.00000
     21       7.2454      0.00000
     22       7.2454      0.00000
     23       7.2454      0.00000
     24       7.2454      0.00000
     25       9.6911      0.00000
     26       9.6911      0.00000
     27       9.6911      0.00000
     28       9.6911      0.00000
     29      11.2909      0.00000
     30      11.2909      0.00000
     31      11.2909      0.00000
     32      11.2909      0.00000

 k-point    40 :       0.5000    0.5000    0.5000
  band No.  band energies     occupation 
      1      -7.9307      2.00000
      2      -7.9307      2.00000
      3      -7.9307      2.00000
      4      -7.9307      2.00000
      5      -2.9423      2.00000
      6      -2.9423      2.00000
      7      -2.9423      2.00000
      8      -2.9423      2.00000
      9      -1.0146      2.00000
     10      -1.0146      2.00000
     11      -1.0146      2.00000
     12      -1.0146      2.00000
     13       0.1680      2.00000
     14       0.1680      2.00000
     15       0.1680      2.00000
     16       0.1680      2.00000
     17       2.8857      2.00000
     18       2.8857      2.00000
     19       2.8857      2.00000
     20       2.8857      2.00000
     21       6.9320      0.00000
     22       6.9320      0.00000
     23       6.9320      0.00000
     24       6.9320      0.00000
     25      10.5632      0.00000
     26      10.5632      0.00000
     27      10.5632      0.00000
     28      10.5632      0.00000
     29      11.7801      0.00000
     30      11.7801      0.00000
     31      11.7801      0.00000
     32      11.7801      0.00000


--------------------------------------------------------------------------------------------------------


 soft charge-density along one line, spin component            1
         0         1         2         3         4         5         6         7         8         9
 total charge-density along one line
 
 pseudopotential strength for first ion, spin component:            1
 14.062  17.531  -0.000   0.041   0.026  -0.000   0.074   0.047
 17.531  21.868  -0.000   0.052   0.033  -0.000   0.094   0.059
 -0.000  -0.000   3.152  -0.000  -0.000   5.360  -0.000  -0.000
  0.041   0.052  -0.000   3.149  -0.002  -0.000   5.355  -0.004
  0.026   0.033  -0.000  -0.002   3.151  -0.000  -0.004   5.359
 -0.000  -0.000   5.360  -0.000  -0.000   9.169  -0.000  -0.000
  0.074   0.094  -0.000   5.355  -0.004  -0.000   9.161  -0.006
  0.047   0.059  -0.000  -0.004   5.359  -0.000  -0.006   9.167
 -0.000  -0.000   0.005   0.000  -0.000   0.009   0.000  -0.000
 -0.000  -0.000   0.011  -0.000   0.000   0.019  -0.000   0.000
 -0.003  -0.004   0.000   0.011  -0.002   0.000   0.020  -0.005
 -0.005  -0.006   0.000   0.008   0.010   0.000   0.014   0.019
 -0.001  -0.001   0.000  -0.000   0.008   0.000  -0.000   0.014
 total augmentation occupancy for first ion, spin component:            1
  2.960  -0.889  -0.000   0.330   0.261   0.000  -0.063  -0.054   0.000   0.000  -0.026   0.007  -0.004
 -0.889   0.813   0.000  -0.434  -0.303  -0.000   0.071   0.049  -0.000  -0.000   0.029  -0.006   0.000
 -0.000   0.000   1.388  -0.000  -0.000  -0.253   0.000   0.000   0.104   0.041  -0.000  -0.000  -0.000
  0.330  -0.434  -0.000   1.338   0.096   0.000  -0.228  -0.013  -0.000   0.000   0.080  -0.000   0.006
  0.261  -0.303  -0.000   0.096   1.375   0.000  -0.013  -0.246   0.000   0.000  -0.065   0.047   0.003
  0.000  -0.000  -0.253   0.000   0.000   0.052  -0.000  -0.000  -0.018  -0.007   0.000   0.000  -0.000
 -0.063   0.071   0.000  -0.228  -0.013  -0.000   0.044   0.002   0.000  -0.000  -0.015  -0.000  -0.001
 -0.054   0.049   0.000  -0.013  -0.246  -0.000   0.002   0.050   0.000  -0.000   0.011  -0.009  -0.000
  0.000  -0.000   0.104  -0.000   0.000  -0.018   0.000   0.000   0.047   0.005  -0.000   0.000  -0.000
  0.000  -0.000   0.041   0.000   0.000  -0.007  -0.000  -0.000   0.005   0.014   0.000  -0.000   0.000
 -0.026   0.029  -0.000   0.080  -0.065   0.000  -0.015   0.011  -0.000   0.000   0.038  -0.005  -0.000
  0.007  -0.006  -0.000  -0.000   0.047   0.000  -0.000  -0.009   0.000  -0.000  -0.005   0.013  -0.001
 -0.004   0.000  -0.000   0.006   0.003  -0.000  -0.001  -0.000  -0.000   0.000  -0.000  -0.001   0.012


------------------------ aborting loop because EDIFF is reached ----------------------------------------


    CHARGE:  cpu time      0.0027: real time      0.0028
    FORLOC:  cpu time      0.0001: real time      0.0001
    FORNL :  cpu time      0.0183: real time      0.0184
    STRESS:  cpu time      0.1758: real time      0.1766
    FORCOR:  cpu time      0.0029: real time      0.0029
    FORHAR:  cpu time      0.0007: real time      0.0008
    MIXING:  cpu time      0.0016: real time      0.0016
    OFIELD:  cpu time      0.0000: real time      0.0000

  FORCE on cell =-STRESS in cart. coord.  units (eV):
  Direction    XX          YY          ZZ          XY          YZ          ZX
  --------------------------------------------------------------------------------------
  Alpha Z   104.05352   104.05352   104.05352
  Ewald    -478.56422  -474.29737  -571.64996    -0.00000     0.00000     0.00000
  Hartree    44.23873    47.29708     8.51496    -0.00000     0.00000    -0.00000
  E(xc)    -142.95713  -143.10272  -143.41340     0.00000    -0.00000     0.00000
  Local    -150.81131  -158.52783   -31.57777     0.00000    -0.00000     0.00000
  n-local   243.56663   244.47861   243.90709    -0.00000     0.00000    -0.00000
  augment   -11.43893   -11.58211   -12.06096    -0.00000    -0.00000     0.00000
  Kinetic   401.99297   402.94301   404.71653     0.00000    -0.00000     0.00000
  Fock        0.00000     0.00000     0.00000     0.00000     0.00000     0.00000
  -------------------------------------------------------------------------------------
  Total      10.08027    11.26219     2.49001     0.00000    -0.00000    -0.00000
  in kB      99.17726   110.80592    24.49860     0.00001    -0.00001    -0.00000
  external pressure =       78.16 kB  Pullay stress =        0.00 kB


 VOLUME and BASIS-vectors are now :
 -----------------------------------------------------------------------------
  energy-cutoff  :      360.00
  volume of cell :      162.84
      direct lattice vectors                 reciprocal lattice vectors
     3.950000000  0.000000000  0.000000000     0.253164557  0.000000000  0.000000000
     0.000000000  3.700000000  0.000000000     0.000000000  0.270270270  0.000000000
     0.000000000  0.000000000 11.142221000     0.000000000  0.000000000  0.089748713

  length of vectors
     3.950000000  3.700000000 11.142221000     0.253164557  0.270270270  0.089748713


 FORCES acting on ions
    electron-ion (+dipol)            ewald-force                    non-local-force                 convergence-correction
 -----------------------------------------------------------------------------------------------
   0.803E+01 -.750E-06 0.257E+02   -.940E+01 0.221E-14 -.282E+02   0.136E+01 0.443E-06 0.259E+01   0.138E-03 0.269E-06 -.599E-03
   0.803E+01 -.902E-07 -.257E+02   -.940E+01 -.120E-14 0.282E+02   0.136E+01 0.398E-07 -.259E+01   0.139E-03 -.875E-07 0.616E-03
   -.803E+01 -.974E-06 -.257E+02   0.940E+01 -.701E-15 0.282E+02   -.136E+01 0.515E-06 -.259E+01   -.139E-03 0.487E-06 0.601E-03
   -.803E+01 -.831E-06 0.257E+02   0.940E+01 0.516E-15 -.282E+02   -.136E+01 0.378E-06 0.259E+01   -.139E-03 0.398E-06 -.617E-03
   -.782E+01 -.765E-06 -.263E+02   0.872E+01 0.188E-14 0.270E+02   -.888E+00 0.236E-06 -.725E+00   0.128E-04 0.494E-06 0.155E-02
   -.782E+01 0.596E-06 0.263E+02   0.872E+01 -.175E-14 -.270E+02   -.888E+00 -.172E-06 0.725E+00   0.144E-04 -.491E-06 -.152E-02
   0.782E+01 0.908E-06 0.263E+02   -.872E+01 0.722E-15 -.270E+02   0.888E+00 0.231E-06 0.725E+00   -.137E-04 -.411E-06 -.156E-02
   0.782E+01 0.807E-06 -.263E+02   -.872E+01 0.722E-16 0.270E+02   0.888E+00 -.284E-07 -.725E+00   -.143E-04 -.605E-06 0.153E-02
 -----------------------------------------------------------------------------------------------
   0.135E-06 -.110E-05 0.268E-06   0.178E-14 0.175E-14 -.178E-13   -.605E-06 0.164E-05 0.602E-06   -.699E-06 0.533E-07 -.416E-06
 
 
 POSITION                                       TOTAL-FORCE (eV/Angst)
 -----------------------------------------------------------------------------------
      0.28419      0.92500      1.28682        -0.014201     -0.000000      0.001238
      2.25919      2.77500      4.28429        -0.014201     -0.000000     -0.001237
      3.66581      2.77500      9.85540         0.014201     -0.000000     -0.001238
      1.69081      0.92500      6.85793         0.014201     -0.000000      0.001237
      0.05669      0.92500      3.90334         0.010614     -0.000000      0.007406
      2.03169      2.77500      1.66777         0.010614     -0.000000     -0.007405
      3.89331      2.77500      7.23888        -0.010614      0.000001     -0.007406
      1.91831      0.92500      9.47445        -0.010614      0.000000      0.007405
 -----------------------------------------------------------------------------------
    total drift:                               -0.000001      0.000001      0.000000


--------------------------------------------------------------------------------------------------------



  FREE ENERGIE OF THE ION-ELECTRON SYSTEM (eV)
  ---------------------------------------------------
  free  energy   TOTEN  =       -32.94167185 eV

  energy  without entropy=      -32.93893245  energy(sigma->0) =      -32.94030215
 


--------------------------------------------------------------------------------------------------------


    POTLOK:  cpu time      0.1134: real time      0.1137


--------------------------------------------------------------------------------------------------------


     LOOP+:  cpu time      4.7598: real time      4.8049
    4ORBIT:  cpu time      0.0000: real time      0.0000

 total amount of memory used by VASP MPI-rank0    36982. kBytes
=======================================================================

   base      :      30000. kBytes
   nonl-proj :       5406. kBytes
   fftplans  :        284. kBytes
   grid      :        416. kBytes
   one-center:         16. kBytes
   wavefun   :        860. kBytes
 
  
  
 General timing and accounting informations for this job:
 ========================================================
  
                  Total CPU time used (sec):        5.550
                            User time (sec):        5.243
                          System time (sec):        0.307
                         Elapsed time (sec):        6.917
  
                   Maximum memory used (kb):      187552.
                   Average memory used (kb):          N/A
  
                          Minor page faults:        21837
                          Major page faults:           29
                 Voluntary context switches:         3614
