 vasp.6.4.2 20Jul23 (build Oct 12 2023 10:31:02) complex                         
 executed on              LinuxNV date 2025.05.27  15:04:15
 running   32 mpi-ranks, with    1 threads/rank, on    2 nodes
 distrk:  each k-point on   16 cores,    2 groups
 distr:  one band on NCORE=   1 cores,   16 groups


--------------------------------------------------------------------------------------------------------


 INCAR:
   ENCUT = 520.000000
   SIGMA = 0.050000
   EDIFF = 1.00e-06
   ALGO = N
   GGA = PE
   PREC = Accurate
   SYSTEM = 02_SCF
   ICHARG = 0
   ISMEAR = 0
   ISPIN = 2
   ISTART = 1
   KPAR = 2
   LORBIT = 11
   NBANDS = 220
   NELM = 100
   NELMIN = 5
   LASPH = .TRUE.
   LCHARG = .TRUE.
   LWAVE = .TRUE.
   LREAL = .FALSE.

 POTCAR:    PAW_PBE Ge 05Jan2001                  
 POTCAR:    PAW_PBE Se 06Sep2000                  
 -----------------------------------------------------------------------------
|                                                                             |
|           W    W    AA    RRRRR   N    N  II  N    N   GGGG   !!!           |
|           W    W   A  A   R    R  NN   N  II  NN   N  G    G  !!!           |
|           W    W  A    A  R    R  N N  N  II  N N  N  G       !!!           |
|           W WW W  AAAAAA  RRRRR   N  N N  II  N  N N  G  GGG   !            |
|           WW  WW  A    A  R   R   N   NN  II  N   NN  G    G                |
|           W    W  A    A  R    R  N    N  II  N    N   GGGG   !!!           |
|                                                                             |
|     You use a magnetic or noncollinear calculation, but did not specify     |
|     the initial magnetic moment with the MAGMOM tag. Note that a            |
|     default of 1 will be used for all atoms. This ferromagnetic setup       |
|     may break the symmetry of the crystal, in particular it may rule        |
|     out finding an antiferromagnetic solution. Thence, we recommend         |
|     setting the initial magnetic moment manually or verifying carefully     |
|     that this magnetic setup is desired.                                    |
|                                                                             |
 -----------------------------------------------------------------------------

 POTCAR:    PAW_PBE Ge 05Jan2001                  
   VRHFIN =Ge: s2p2                                                                                 
   LEXCH  = PE                                                                                      
   EATOM  =   104.9960 eV,    7.7170 Ry                                                             
                                                                                                    
   TITEL  = PAW_PBE Ge 05Jan2001                                                                    
   LULTRA =        F    use ultrasoft PP ?                                                          
   IUNSCR =        1    unscreen: 0-lin 1-nonlin 2-no                                               
   RPACOR =    2.170    partial core radius                                                         
   POMASS =   72.610; ZVAL   =    4.000    mass and valenz                                          
   RCORE  =    2.300    outmost cutoff radius                                                       
   RWIGS  =    2.300; RWIGS  =    1.217    wigner-seitz radius (au A)                               
   ENMAX  =  173.807; ENMIN  =  130.355 eV                                                          
   ICORE  =        3    local potential                                                             
   LCOR   =        T    correct aug charges                                                         
   LPAW   =        T    paw PP                                                                      
   EAUG   =  385.843                                                                                
   DEXC   =    0.000                                                                                
   RMAX   =    2.342    core radius for proj-oper                                                   
   RAUG   =    1.300    factor for augmentation sphere                                              
   RDEP   =    2.318    radius for radial grids                                                     
   RDEPT  =    2.103    core radius for aug-charge                                                  
                                                                                                    
   Atomic configuration                                                                             
   10 entries                                                                                       
     n  l   j            E        occ.                                                              
     1  0  0.50    -10959.8463   2.0000                                                             
     2  0  0.50     -1371.6056   2.0000                                                             
     2  1  1.50     -1198.4791   6.0000                                                             
     3  0  0.50      -168.4733   2.0000                                                             
     3  1  1.50      -115.6019   6.0000                                                             
     3  2  2.50       -29.3106  10.0000                                                             
     4  0  0.50       -11.7309   2.0000                                                             
     4  1  0.50        -3.8952   2.0000                                                             
     4  2  1.50        -4.0817   0.0000                                                             
     4  3  2.50        -4.0817   0.0000                                                             
   Description                                                                                      
     l       E           TYP  RCUT    TYP  RCUT                                                     
     0    -11.7309493     23  2.300                                                                 
     0     -7.4578696     23  2.300                                                                 
     1     -3.8952261     23  2.300                                                                 
     1      6.1178114     23  2.300                                                                 
     2     -4.0817478     23  2.300                                                                 
     3     -1.3605826      7  2.300                                                                 
  local pseudopotential read in
  partial core-charges read in
  partial kinetic energy density read in
  atomic valenz-charges read in
  non local Contribution for L=            0  read in
    real space projection operators read in
  non local Contribution for L=            0  read in
    real space projection operators read in
  non local Contribution for L=            1  read in
    real space projection operators read in
  non local Contribution for L=            1  read in
    real space projection operators read in
  non local Contribution for L=            2  read in
    real space projection operators read in
    PAW grid and wavefunctions read in
 
   number of l-projection  operators is LMAX  =            5
   number of lm-projection operators is LMMAX =           13
 
 POTCAR:    PAW_PBE Se 06Sep2000                  
   VRHFIN =Se: s2p4                                                                                 
   LEXCH  = PE                                                                                      
   EATOM  =   257.1286 eV,   18.8984 Ry                                                             
                                                                                                    
   TITEL  = PAW_PBE Se 06Sep2000                                                                    
   LULTRA =        F    use ultrasoft PP ?                                                          
   IUNSCR =        1    unscreen: 0-lin 1-nonlin 2-no                                               
   RPACOR =    1.900    partial core radius                                                         
   POMASS =   78.960; ZVAL   =    6.000    mass and valenz                                          
   RCORE  =    2.100    outmost cutoff radius                                                       
   RWIGS  =    2.200; RWIGS  =    1.164    wigner-seitz radius (au A)                               
   ENMAX  =  211.555; ENMIN  =  158.666 eV                                                          
   ICORE  =        3    local potential                                                             
   LCOR   =        T    correct aug charges                                                         
   LPAW   =        T    paw PP                                                                      
   EAUG   =  446.842                                                                                
   DEXC   =    0.000                                                                                
   RMAX   =    2.147    core radius for proj-oper                                                   
   RAUG   =    1.300    factor for augmentation sphere                                              
   RDEP   =    2.177    radius for radial grids                                                     
   RDEPT  =    1.928    core radius for aug-charge                                                  
                                                                                                    
   Atomic configuration                                                                             
   10 entries                                                                                       
     n  l   j            E        occ.                                                              
     1  0  0.50    -12503.4787   2.0000                                                             
     2  0  0.50     -1606.9547   2.0000                                                             
     2  1  1.50     -1413.3140   6.0000                                                             
     3  0  0.50      -213.4885   2.0000                                                             
     3  1  1.50      -152.9538   6.0000                                                             
     3  2  2.50       -53.1221  10.0000                                                             
     4  0  0.50       -17.2865   2.0000                                                             
     4  1  0.50        -6.5110   4.0000                                                             
     4  2  2.50        -6.8029   0.0000                                                             
     4  3  2.50        -6.8029   0.0000                                                             
   Description                                                                                      
     l       E           TYP  RCUT    TYP  RCUT                                                     
     0    -17.2865377     23  2.100                                                                 
     0    -15.3094411     23  2.100                                                                 
     1     -6.5110275     23  2.100                                                                 
     1     -0.0695192     23  2.100                                                                 
     2     -6.8029130     23  2.100                                                                 
     3     -1.3605826      7  2.100                                                                 
  local pseudopotential read in
  partial core-charges read in
  partial kinetic energy density read in
  atomic valenz-charges read in
  non local Contribution for L=            0  read in
    real space projection operators read in
  non local Contribution for L=            0  read in
    real space projection operators read in
  non local Contribution for L=            1  read in
    real space projection operators read in
  non local Contribution for L=            1  read in
    real space projection operators read in
  non local Contribution for L=            2  read in
    real space projection operators read in
    PAW grid and wavefunctions read in
 
   number of l-projection  operators is LMAX  =            5
   number of lm-projection operators is LMMAX =           13
 
  PAW_PBE Ge 05Jan2001                  :
 energy of atom  1       EATOM= -104.9960
 kinetic energy error for atom=    0.0002 (will be added to EATOM!!)
  PAW_PBE Se 06Sep2000                  :
 energy of atom  2       EATOM= -257.1286
 kinetic energy error for atom=    0.0007 (will be added to EATOM!!)
 
 
 POSCAR: Ge Se
  positions in cartesian coordinates
  No initial velocities read in
 exchange correlation table for  LEXCH =        8
   RHO(1)=    0.500       N(1)  =     2000
   RHO(2)=  100.500       N(2)  =     4000
 


--------------------------------------------------------------------------------------------------------


 ion  position               nearest neighbor table
   1  0.250  0.116  0.047-   3 2.60   3 2.60   4 2.60
   2  0.750  0.616  0.143-   4 2.60   4 2.60   3 2.60
   3  0.750  0.495  0.056-   1 2.60   1 2.60   2 2.60
   4  0.250  0.995  0.134-   2 2.60   2 2.60   1 2.60
 
  LATTYP: Found a simple orthorhombic cell.
 ALAT       =     3.8581001759
 B/A-ratio  =     1.1732653073
 C/A-ratio  =     7.5387302407
  
  Lattice vectors:
  
 A1 = (   3.8581001759,   0.0000000000,   0.0000000000)
 A2 = (   0.0000000000,   4.5265750885,   0.0000000000)
 A3 = (   0.0000000000,   0.0000000000,  29.0851764679)


Analysis of symmetry for initial positions (statically):
=====================================================================
 Subroutine PRICEL returns:
 Original cell was already a primitive cell.
 

 Routine SETGRP: Setting up the symmetry group for a 
 simple orthorhombic supercell.


 Subroutine GETGRP returns: Found  4 space group operations
 (whereof  1 operations were pure point group operations)
 out of a pool of  8 trial point group operations.


The static configuration has the point symmetry C_1 .
 The point group associated with its full space group is C_2v.


Analysis of symmetry for dynamics (positions and initial velocities):
=====================================================================
 Subroutine PRICEL returns:
 Original cell was already a primitive cell.
 

 Routine SETGRP: Setting up the symmetry group for a 
 simple orthorhombic supercell.


 Subroutine GETGRP returns: Found  4 space group operations
 (whereof  1 operations were pure point group operations)
 out of a pool of  8 trial point group operations.


The dynamic configuration has the point symmetry C_1 .
 The point group associated with its full space group is C_2v.


Analysis of structural, dynamic, and magnetic symmetry:
=====================================================================
 Subroutine PRICEL returns:
 Original cell was already a primitive cell.
 

 Routine SETGRP: Setting up the symmetry group for a 
 simple orthorhombic supercell.


 Subroutine GETGRP returns: Found  4 space group operations
 (whereof  1 operations were pure point group operations)
 out of a pool of  8 trial point group operations.


The overall configuration has the point symmetry C_1 .
 The point group associated with its full space group is C_2v.


 Subroutine INISYM returns: Found  4 space group operations
 (whereof  1 operations are pure point group operations),
 and found     1 'primitive' translations


----------------------------------------------------------------------------------------

                                     Primitive cell                                     

  volume of cell :     507.9429

  direct lattice vectors                    reciprocal lattice vectors
     3.858100176  0.000000000  0.000000000     0.259194929  0.000000000  0.000000000
     0.000000000  4.526575088  0.000000000     0.000000000  0.220917577  0.000000000
     0.000000000  0.000000000 29.085176468     0.000000000  0.000000000  0.034381775

  length of vectors
     3.858100176  4.526575088 29.085176468     0.259194929  0.220917577  0.034381775

  position of ions in fractional coordinates (direct lattice)
     0.250000000  0.115641899  0.047084664
     0.750000000  0.615641892  0.143479357
     0.750000000  0.495050967  0.056166799
     0.250000000  0.995051026  0.134397224

  ion indices of the primitive-cell ions
   primitive index   ion index
                 1           1
                 2           2
                 3           3
                 4           4

----------------------------------------------------------------------------------------

 
 
 KPOINTS: KPOINTS created by Atomic Simulation Env

Automatic generation of k-mesh.
 Grid dimensions read from file:
 generate k-points for:    6    6    2

 Generating k-lattice:

  Cartesian coordinates                     Fractional coordinates (reciprocal lattice)
     0.043199155  0.000000000  0.000000000     0.166666667  0.000000000  0.000000000
     0.000000000  0.036819596  0.000000000     0.000000000  0.166666667  0.000000000
     0.000000000  0.000000000  0.017190888     0.000000000  0.000000000  0.500000000

  Length of vectors
     0.043199155  0.036819596  0.017190888

  Shift w.r.t. Gamma in fractional coordinates (k-lattice)
     0.000000000  0.000000000  0.000000000

 
 Subroutine IBZKPT returns following result:
 ===========================================
 
 Found     32 irreducible k-points:
 
 Following reciprocal coordinates:
            Coordinates               Weight
  0.000000  0.000000  0.000000      1.000000
  0.166667  0.000000  0.000000      2.000000
  0.333333  0.000000  0.000000      2.000000
  0.500000  0.000000  0.000000      1.000000
  0.000000  0.166667  0.000000      2.000000
  0.166667  0.166667  0.000000      4.000000
  0.333333  0.166667  0.000000      4.000000
  0.500000  0.166667  0.000000      2.000000
  0.000000  0.333333  0.000000      2.000000
  0.166667  0.333333  0.000000      4.000000
  0.333333  0.333333  0.000000      4.000000
  0.500000  0.333333  0.000000      2.000000
  0.000000  0.500000  0.000000      1.000000
  0.166667  0.500000  0.000000      2.000000
  0.333333  0.500000  0.000000      2.000000
  0.500000  0.500000  0.000000      1.000000
  0.000000  0.000000  0.500000      1.000000
  0.166667  0.000000  0.500000      2.000000
  0.333333  0.000000  0.500000      2.000000
  0.500000  0.000000  0.500000      1.000000
  0.000000  0.166667  0.500000      2.000000
  0.166667  0.166667  0.500000      4.000000
  0.333333  0.166667  0.500000      4.000000
  0.500000  0.166667  0.500000      2.000000
  0.000000  0.333333  0.500000      2.000000
  0.166667  0.333333  0.500000      4.000000
  0.333333  0.333333  0.500000      4.000000
  0.500000  0.333333  0.500000      2.000000
  0.000000  0.500000  0.500000      1.000000
  0.166667  0.500000  0.500000      2.000000
  0.333333  0.500000  0.500000      2.000000
  0.500000  0.500000  0.500000      1.000000
 
 Following cartesian coordinates:
            Coordinates               Weight
  0.000000  0.000000  0.000000      1.000000
  0.043199  0.000000  0.000000      2.000000
  0.086398  0.000000  0.000000      2.000000
  0.129597  0.000000  0.000000      1.000000
  0.000000  0.036820  0.000000      2.000000
  0.043199  0.036820  0.000000      4.000000
  0.086398  0.036820  0.000000      4.000000
  0.129597  0.036820  0.000000      2.000000
  0.000000  0.073639  0.000000      2.000000
  0.043199  0.073639  0.000000      4.000000
  0.086398  0.073639  0.000000      4.000000
  0.129597  0.073639  0.000000      2.000000
  0.000000  0.110459  0.000000      1.000000
  0.043199  0.110459  0.000000      2.000000
  0.086398  0.110459  0.000000      2.000000
  0.129597  0.110459  0.000000      1.000000
  0.000000  0.000000  0.017191      1.000000
  0.043199  0.000000  0.017191      2.000000
  0.086398  0.000000  0.017191      2.000000
  0.129597  0.000000  0.017191      1.000000
  0.000000  0.036820  0.017191      2.000000
  0.043199  0.036820  0.017191      4.000000
  0.086398  0.036820  0.017191      4.000000
  0.129597  0.036820  0.017191      2.000000
  0.000000  0.073639  0.017191      2.000000
  0.043199  0.073639  0.017191      4.000000
  0.086398  0.073639  0.017191      4.000000
  0.129597  0.073639  0.017191      2.000000
  0.000000  0.110459  0.017191      1.000000
  0.043199  0.110459  0.017191      2.000000
  0.086398  0.110459  0.017191      2.000000
  0.129597  0.110459  0.017191      1.000000
 
 -----------------------------------------------------------------------------
|                                                                             |
|           W    W    AA    RRRRR   N    N  II  N    N   GGGG   !!!           |
|           W    W   A  A   R    R  NN   N  II  NN   N  G    G  !!!           |
|           W    W  A    A  R    R  N N  N  II  N N  N  G       !!!           |
|           W WW W  AAAAAA  RRRRR   N  N N  II  N  N N  G  GGG   !            |
|           WW  WW  A    A  R   R   N   NN  II  N   NN  G    G                |
|           W    W  A    A  R    R  N    N  II  N    N   GGGG   !!!           |
|                                                                             |
|     The number of bands has been changed from the values supplied in        |
|     the INCAR file. This is a result of running the parallel version.       |
|     The orbitals not found in the WAVECAR file will be initialized with     |
|     random numbers, which is usually adequate. For correlated               |
|     calculations, however, you should redo the groundstate calculation.     |
|     I found NBANDS = 220. Now, NBANDS = 224.                                |
|                                                                             |
 -----------------------------------------------------------------------------



--------------------------------------------------------------------------------------------------------




 Dimension of arrays:
   k-points           NKPTS =     32   k-points in BZ     NKDIM =     32   number of bands    NBANDS=    224
   number of dos      NEDOS =    301   number of ions     NIONS =      4
   non local maximal  LDIM  =      5   non local SUM 2l+1 LMDIM =     13
   total plane-waves  NPLWV = 233280
   max r-space proj   IRMAX =      1   max aug-charges    IRDMAX=  25158
   dimension x,y,z NGX =    30 NGY =   36 NGZ =  216
   dimension x,y,z NGXF=    60 NGYF=   72 NGZF=  432
   support grid    NGXF=    60 NGYF=   72 NGZF=  432
   ions per type =               2   2
   NGX,Y,Z   is equivalent  to a cutoff of  12.93, 13.22, 12.35 a.u.
   NGXF,Y,Z  is equivalent  to a cutoff of  25.85, 26.44, 24.69 a.u.

 SYSTEM =  02_SCF                                  
 POSCAR =  Ge Se                                   

 Startparameter for this run:
   NWRITE =      2    write-flag & timer
   PREC   = accura    normal or accurate (medium, high low for compatibility)
   ISTART =      0    job   : 0-new  1-cont  2-samecut
   ICHARG =      2    charge: 1-file 2-atom 10-const
   ISPIN  =      2    spin polarized calculation?
   LNONCOLLINEAR =      F non collinear calculations
   LSORBIT =      F    spin-orbit coupling
   INIWAV =      1    electr: 0-lowe 1-rand  2-diag
   LASPH  =      T    aspherical Exc in radial PAW
 Electronic Relaxation 1
   ENCUT  =  520.0 eV  38.22 Ry    6.18 a.u.   7.17  8.42 54.08*2*pi/ulx,y,z
   ENINI  =  520.0     initial cutoff
   ENAUG  =  446.8 eV  augmentation charge cutoff
   NELM   =    100;   NELMIN=  5; NELMDL=  0     # of ELM steps 
   EDIFF  = 0.1E-05   stopping-criterion for ELM
   LREAL  =      F    real-space projection
   NLSPLINE    = F    spline interpolate recip. space projectors
   LCOMPAT=      F    compatible to vasp.4.4
   GGA_COMPAT  = T    GGA compatible to vasp.4.4-vasp.4.6
   LMAXPAW     = -100 max onsite density
   LMAXMIX     =    2 max onsite mixed and CHGCAR
   VOSKOWN=      0    Vosko Wilk Nusair interpolation
   ROPT   =    0.00000   0.00000
 Ionic relaxation
   EDIFFG = 0.1E-04   stopping-criterion for IOM
   NSW    =      0    number of steps for IOM
   NBLOCK =      1;   KBLOCK =      1    inner block; outer block 
   IBRION =     -1    ionic relax: 0-MD 1-quasi-New 2-CG
   NFREE  =      0    steps in history (QN), initial steepest desc. (CG)
   ISIF   =      2    stress and relaxation
   IWAVPR =     10    prediction:  0-non 1-charg 2-wave 3-comb
   ISYM   =      2    0-nonsym 1-usesym 2-fastsym
   LCORR  =      T    Harris-Foulkes like correction to forces

   POTIM  = 0.5000    time-step for ionic-motion
   TEIN   =    0.0    initial temperature
   TEBEG  =    0.0;   TEEND  =   0.0 temperature during run
   SMASS  =  -3.00    Nose mass-parameter (am)
   estimated Nose-frequenzy (Omega)   =  0.10E-29 period in steps = 0.13E+47 mass=  -0.340E-27a.u.
   SCALEE = 1.0000    scale energy and forces
   NPACO  =    256;   APACO  = 10.0  distance and # of slots for P.C.
   PSTRESS=    0.0 pullay stress

  Mass of Ions in am
   POMASS =  72.61 78.96
  Ionic Valenz
   ZVAL   =   4.00  6.00
  Atomic Wigner-Seitz radii
   RWIGS  =  -1.00 -1.00
  virtual crystal weights 
   VCA    =   1.00  1.00
   NELECT =      20.0000    total number of electrons
   NUPDOWN=      -1.0000    fix difference up-down

 DOS related values:
   EMIN   =  10.00;   EMAX   =-10.00  energy-range for DOS
   EFERMI =   0.00;   METHOD = LEGACY      
   ISMEAR =     0;   SIGMA  =   0.05  broadening in eV -4-tet -1-fermi 0-gaus

 Electronic relaxation 2 (details)
   IALGO  =     38    algorithm
   LDIAG  =      T    sub-space diagonalisation (order eigenvalues)
   LSUBROT=      F    optimize rotation matrix (better conditioning)
   TURBO    =      0    0=normal 1=particle mesh
   IRESTART =      0    0=no restart 2=restart with 2 vectors
   NREBOOT  =      0    no. of reboots
   NMIN     =      0    reboot dimension
   EREF     =   0.00    reference energy to select bands
   IMIX   =      4    mixing-type and parameters
     AMIX     =   0.40;   BMIX     =  1.00
     AMIX_MAG =   1.60;   BMIX_MAG =  1.00
     AMIN     =   0.10
     WC   =   100.;   INIMIX=   1;  MIXPRE=   1;  MAXMIX= -45

 Intra band minimization:
   WEIMIN = 0.0000     energy-eigenvalue tresh-hold
   EBREAK =  0.11E-08  absolut break condition
   DEPER  =   0.30     relativ break condition  

   TIME   =   0.40     timestep for ELM

  volume/ion in A,a.u.               =     126.99       856.94
  Fermi-wavevector in a.u.,A,eV,Ry     =   0.556946  1.052476  4.220377  0.310189
  Thomas-Fermi vector in A             =   1.591331
 
 Write flags
   LWAVE        =      T    write WAVECAR
   LDOWNSAMPLE  =      F    k-point downsampling of WAVECAR
   LCHARG       =      T    write CHGCAR
   LVTOT        =      F    write LOCPOT, total local potential
   LVHAR        =      F    write LOCPOT, Hartree potential only
   LELF         =      F    write electronic localiz. function (ELF)
   LORBIT       =     11    0 simple, 1 ext, 2 COOP (PROOUT), +10 PAW based schemes


 Dipole corrections
   LMONO  =      F    monopole corrections only (constant potential shift)
   LDIPOL =      F    correct potential (dipole corrections)
   IDIPOL =      0    1-x, 2-y, 3-z, 4-all directions 
   EPSILON=  1.0000000 bulk dielectric constant

 Exchange correlation treatment:
   GGA     =    PE    GGA type
   LEXCH   =     8    internal setting for exchange type
   LIBXC   =     F    Libxc                    
   VOSKOWN =     0    Vosko Wilk Nusair interpolation
   LHFCALC =     F    Hartree Fock is set to
   LHFONE  =     F    Hartree Fock one center treatment
   AEXX    =    0.0000 exact exchange contribution

 Linear response parameters
   LEPSILON=     F    determine dielectric tensor
   LRPA    =     F    only Hartree local field effects (RPA)
   LNABLA  =     F    use nabla operator in PAW spheres
   LVEL    =     F    velocity operator in full k-point grid
   CSHIFT  =0.1000    complex shift for real part using Kramers Kronig
   OMEGAMAX=  -1.0    maximum frequency
   DEG_THRESHOLD= 0.2000000E-02 threshold for treating states as degnerate
   RTIME   =   -0.100 relaxation time in fs
  (WPLASMAI=    0.000 imaginary part of plasma frequency in eV, 0.658/RTIME)
   DFIELD  = 0.0000000 0.0000000 0.0000000 field for delta impulse in time
 
  Optional k-point grid parameters
   LKPOINTS_OPT  =     F    use optional k-point grid
   KPOINTS_OPT_MODE=     1    mode for optional k-point grid
 
 Orbital magnetization related:
   ORBITALMAG=     F  switch on orbital magnetization
   LCHIMAG   =     F  perturbation theory with respect to B field
   DQ        =  0.001000  dq finite difference perturbation B field
   LLRAUG    =     F  two centre corrections for induced B field
   LBONE     =     F  B-component reconstruction in AE one-centre
   LVGVCALC  =     T  calculate vGv susceptibility
   LVGVAPPL  =     F  apply vGv susceptibility instead of pGv for G=0

 Random number generation:
   RANDOM_GENERATOR = DEFAULT
   PCG_SEED         = not used


--------------------------------------------------------------------------------------------------------


 Static calculation
 charge density and potential will be updated during run
 spin polarized calculation
 Variant of blocked Davidson
 Davidson routine will perform the subspace rotation
 perform sub-space diagonalisation
    after iterative eigenvector-optimisation
 modified Broyden-mixing scheme, WC =      100.0
 initial mixing is a Kerker type mixing with AMIX =  0.4000 and BMIX =      1.0000
 Hartree-type preconditioning will be used
 using additional bands           214
 reciprocal scheme for non local part
 use partial core corrections
 calculate Harris-corrections to forces 
   (improved forces if not selfconsistent)
 use gradient corrections 
 use of overlap-Matrix (Vanderbilt PP)
 Gauss-broadening in eV      SIGMA  =   0.05


--------------------------------------------------------------------------------------------------------


  energy-cutoff  :      520.00
  volume of cell :      507.94
      direct lattice vectors                 reciprocal lattice vectors
     3.858100176  0.000000000  0.000000000     0.259194929  0.000000000  0.000000000
     0.000000000  4.526575088  0.000000000     0.000000000  0.220917577  0.000000000
     0.000000000  0.000000000 29.085176468     0.000000000  0.000000000  0.034381775

  length of vectors
     3.858100176  4.526575088 29.085176468     0.259194929  0.220917577  0.034381775


 
 k-points in units of 2pi/SCALE and weight: KPOINTS created by Atomic Simulation Env
   0.00000000  0.00000000  0.00000000       0.014
   0.04319915  0.00000000  0.00000000       0.028
   0.08639831  0.00000000  0.00000000       0.028
   0.12959746  0.00000000  0.00000000       0.014
   0.00000000  0.03681960  0.00000000       0.028
   0.04319915  0.03681960  0.00000000       0.056
   0.08639831  0.03681960  0.00000000       0.056
   0.12959746  0.03681960  0.00000000       0.028
   0.00000000  0.07363919  0.00000000       0.028
   0.04319915  0.07363919  0.00000000       0.056
   0.08639831  0.07363919  0.00000000       0.056
   0.12959746  0.07363919  0.00000000       0.028
   0.00000000  0.11045879  0.00000000       0.014
   0.04319915  0.11045879  0.00000000       0.028
   0.08639831  0.11045879  0.00000000       0.028
   0.12959746  0.11045879  0.00000000       0.014
   0.00000000  0.00000000  0.01719089       0.014
   0.04319915  0.00000000  0.01719089       0.028
   0.08639831  0.00000000  0.01719089       0.028
   0.12959746  0.00000000  0.01719089       0.014
   0.00000000  0.03681960  0.01719089       0.028
   0.04319915  0.03681960  0.01719089       0.056
   0.08639831  0.03681960  0.01719089       0.056
   0.12959746  0.03681960  0.01719089       0.028
   0.00000000  0.07363919  0.01719089       0.028
   0.04319915  0.07363919  0.01719089       0.056
   0.08639831  0.07363919  0.01719089       0.056
   0.12959746  0.07363919  0.01719089       0.028
   0.00000000  0.11045879  0.01719089       0.014
   0.04319915  0.11045879  0.01719089       0.028
   0.08639831  0.11045879  0.01719089       0.028
   0.12959746  0.11045879  0.01719089       0.014
 
 k-points in reciprocal lattice and weights: KPOINTS created by Atomic Simulation Env
   0.00000000  0.00000000  0.00000000       0.014
   0.16666667  0.00000000  0.00000000       0.028
   0.33333333  0.00000000  0.00000000       0.028
   0.50000000  0.00000000  0.00000000       0.014
   0.00000000  0.16666667  0.00000000       0.028
   0.16666667  0.16666667  0.00000000       0.056
   0.33333333  0.16666667  0.00000000       0.056
   0.50000000  0.16666667  0.00000000       0.028
   0.00000000  0.33333333  0.00000000       0.028
   0.16666667  0.33333333  0.00000000       0.056
   0.33333333  0.33333333  0.00000000       0.056
   0.50000000  0.33333333  0.00000000       0.028
   0.00000000  0.50000000  0.00000000       0.014
   0.16666667  0.50000000  0.00000000       0.028
   0.33333333  0.50000000  0.00000000       0.028
   0.50000000  0.50000000  0.00000000       0.014
   0.00000000  0.00000000  0.50000000       0.014
   0.16666667  0.00000000  0.50000000       0.028
   0.33333333  0.00000000  0.50000000       0.028
   0.50000000  0.00000000  0.50000000       0.014
   0.00000000  0.16666667  0.50000000       0.028
   0.16666667  0.16666667  0.50000000       0.056
   0.33333333  0.16666667  0.50000000       0.056
   0.50000000  0.16666667  0.50000000       0.028
   0.00000000  0.33333333  0.50000000       0.028
   0.16666667  0.33333333  0.50000000       0.056
   0.33333333  0.33333333  0.50000000       0.056
   0.50000000  0.33333333  0.50000000       0.028
   0.00000000  0.50000000  0.50000000       0.014
   0.16666667  0.50000000  0.50000000       0.028
   0.33333333  0.50000000  0.50000000       0.028
   0.50000000  0.50000000  0.50000000       0.014
 
 position of ions in fractional coordinates (direct lattice) 
   0.25000000  0.11564190  0.04708466
   0.75000000  0.61564189  0.14347936
   0.75000000  0.49505097  0.05616680
   0.25000000  0.99505103  0.13439722
 
 position of ions in cartesian coordinates  (Angst):
   0.96452504  0.52346174  1.36946575
   2.89357513  2.78674925  4.17312240
   2.89357513  2.24088537  1.63362125
   0.96452504  4.50417319  3.90896698
 


--------------------------------------------------------------------------------------------------------


 k-point   1 :   0.0000 0.0000 0.0000  plane waves:   13631
 k-point   2 :   0.1667 0.0000 0.0000  plane waves:   13673
 k-point   3 :   0.3333 0.0000 0.0000  plane waves:   13720
 k-point   4 :   0.5000 0.0000 0.0000  plane waves:   13766
 k-point   5 :   0.0000 0.1667 0.0000  plane waves:   13689
 k-point   6 :   0.1667 0.1667 0.0000  plane waves:   13675
 k-point   7 :   0.3333 0.1667 0.0000  plane waves:   13694
 k-point   8 :   0.5000 0.1667 0.0000  plane waves:   13748
 k-point   9 :   0.0000 0.3333 0.0000  plane waves:   13667
 k-point  10 :   0.1667 0.3333 0.0000  plane waves:   13649
 k-point  11 :   0.3333 0.3333 0.0000  plane waves:   13685
 k-point  12 :   0.5000 0.3333 0.0000  plane waves:   13670
 k-point  13 :   0.0000 0.5000 0.0000  plane waves:   13684
 k-point  14 :   0.1667 0.5000 0.0000  plane waves:   13628
 k-point  15 :   0.3333 0.5000 0.0000  plane waves:   13646
 k-point  16 :   0.5000 0.5000 0.0000  plane waves:   13628
 k-point  17 :   0.0000 0.0000 0.5000  plane waves:   13668
 k-point  18 :   0.1667 0.0000 0.5000  plane waves:   13690
 k-point  19 :   0.3333 0.0000 0.5000  plane waves:   13726
 k-point  20 :   0.5000 0.0000 0.5000  plane waves:   13716
 k-point  21 :   0.0000 0.1667 0.5000  plane waves:   13690
 k-point  22 :   0.1667 0.1667 0.5000  plane waves:   13660
 k-point  23 :   0.3333 0.1667 0.5000  plane waves:   13692
 k-point  24 :   0.5000 0.1667 0.5000  plane waves:   13756
 k-point  25 :   0.0000 0.3333 0.5000  plane waves:   13642
 k-point  26 :   0.1667 0.3333 0.5000  plane waves:   13652
 k-point  27 :   0.3333 0.3333 0.5000  plane waves:   13670
 k-point  28 :   0.5000 0.3333 0.5000  plane waves:   13676
 k-point  29 :   0.0000 0.5000 0.5000  plane waves:   13696
 k-point  30 :   0.1667 0.5000 0.5000  plane waves:   13652
 k-point  31 :   0.3333 0.5000 0.5000  plane waves:   13656
 k-point  32 :   0.5000 0.5000 0.5000  plane waves:   13632

 maximum and minimum number of plane-waves per node :     13766    13628

 maximum number of plane-waves:     13766
 maximum index in each direction: 
   IXMAX=    7   IYMAX=    8   IZMAX=   54
   IXMIN=   -7   IYMIN=   -8   IZMIN=  -54


 serial   3D FFT for wavefunctions
 parallel 3D FFT for charge:
    minimum data exchange during FFTs selected (reduces bandwidth)


 total amount of memory used by VASP MPI-rank0   354806. kBytes
=======================================================================

   base      :      30000. kBytes
   nonl-proj :      92574. kBytes
   fftplans  :       5071. kBytes
   grid      :      28687. kBytes
   one-center:         64. kBytes
   wavefun   :     198410. kBytes
 
     INWAV:  cpu time      0.0000: real time      0.0001
 Broyden mixing: mesh for mixing (old mesh)
   NGX = 15   NGY = 17   NGZ =109
  (NGX  = 60   NGY  = 72   NGZ  =432)
  gives a total of  27795 points

 initial charge density was supplied:
 charge density of overlapping atoms calculated
 number of electron      20.0000000 magnetization       4.0000000
 keeping initial charge density in first step


--------------------------------------------------------------------------------------------------------


 Maximum index for augmentation-charges          1775 (set IRDMAX)


--------------------------------------------------------------------------------------------------------


 First call to EWALD:  gamma=   0.222
 Maximum number of real-space cells 5x 4x 1
 Maximum number of reciprocal cells 2x 2x 9

    FEWALD:  cpu time      0.0009: real time      0.0009


--------------------------------------- Ionic step        1  -------------------------------------------




--------------------------------------- Iteration      1(   1)  ---------------------------------------


    POTLOK:  cpu time      0.2577: real time      0.2599
    SETDIJ:  cpu time      1.1186: real time      1.1206
     EDDAV:  cpu time     30.6233: real time     30.8717
       DOS:  cpu time      0.0027: real time      0.0027
    --------------------------------------------
      LOOP:  cpu time     32.0024: real time     32.2549

 eigenvalue-minimisations  : 28672
 total energy-change (2. order) : 0.9697238E+02  (-0.3718072E+03)
 number of electron      20.0000000 magnetization       4.0000000
 augmentation part       20.0000000 magnetization       4.0000000

 Free energy of the ion-electron system (eV)
  ---------------------------------------------------
  alpha Z        PSCENC =         8.33973856
  Ewald energy   TEWEN  =      2884.48405846
  -Hartree energ DENC   =     -3481.68665860
  -exchange      EXHF   =         0.00000000
  -V(xc)+E(xc)   XCENC  =       -17.01245813
  PAW double counting   =       596.57894437     -539.99618860
  entropy T*S    EENTRO =        -0.00342276
  eigenvalues    EBANDS =       -77.97893906
  atomic energy  EATOM  =       724.24730435
  Solvation  Ediel_sol  =         0.00000000
  ---------------------------------------------------
  free energy    TOTEN  =        96.97237859 eV

  energy without entropy =       96.97580135  energy(sigma->0) =       96.97408997


--------------------------------------------------------------------------------------------------------




--------------------------------------- Iteration      1(   2)  ---------------------------------------


     EDDAV:  cpu time     35.0419: real time     35.3544
       DOS:  cpu time      0.0020: real time      0.0020
    --------------------------------------------
      LOOP:  cpu time     35.0439: real time     35.3563

 eigenvalue-minimisations  : 34352
 total energy-change (2. order) :-0.1070604E+03  (-0.9680927E+02)
 number of electron      20.0000000 magnetization       4.0000000
 augmentation part       20.0000000 magnetization       4.0000000

 Free energy of the ion-electron system (eV)
  ---------------------------------------------------
  alpha Z        PSCENC =         8.33973856
  Ewald energy   TEWEN  =      2884.48405846
  -Hartree energ DENC   =     -3481.68665860
  -exchange      EXHF   =         0.00000000
  -V(xc)+E(xc)   XCENC  =       -17.01245813
  PAW double counting   =       596.57894437     -539.99618860
  entropy T*S    EENTRO =        -0.00000000
  eigenvalues    EBANDS =      -185.04276802
  atomic energy  EATOM  =       724.24730435
  Solvation  Ediel_sol  =         0.00000000
  ---------------------------------------------------
  free energy    TOTEN  =       -10.08802761 eV

  energy without entropy =      -10.08802761  energy(sigma->0) =      -10.08802761


--------------------------------------------------------------------------------------------------------




--------------------------------------- Iteration      1(   3)  ---------------------------------------


     EDDAV:  cpu time     35.0308: real time     35.3468
       DOS:  cpu time      0.0019: real time      0.0020
    --------------------------------------------
      LOOP:  cpu time     35.0328: real time     35.3488

 eigenvalue-minimisations  : 34480
 total energy-change (2. order) :-0.6107226E+01  (-0.6033040E+01)
 number of electron      20.0000000 magnetization       4.0000000
 augmentation part       20.0000000 magnetization       4.0000000

 Free energy of the ion-electron system (eV)
  ---------------------------------------------------
  alpha Z        PSCENC =         8.33973856
  Ewald energy   TEWEN  =      2884.48405846
  -Hartree energ DENC   =     -3481.68665860
  -exchange      EXHF   =         0.00000000
  -V(xc)+E(xc)   XCENC  =       -17.01245813
  PAW double counting   =       596.57894437     -539.99618860
  entropy T*S    EENTRO =        -0.00000000
  eigenvalues    EBANDS =      -191.14999391
  atomic energy  EATOM  =       724.24730435
  Solvation  Ediel_sol  =         0.00000000
  ---------------------------------------------------
  free energy    TOTEN  =       -16.19525350 eV

  energy without entropy =      -16.19525350  energy(sigma->0) =      -16.19525350


--------------------------------------------------------------------------------------------------------




--------------------------------------- Iteration      1(   4)  ---------------------------------------


     EDDAV:  cpu time     34.4552: real time     34.7588
       DOS:  cpu time      0.0019: real time      0.0019
    --------------------------------------------
      LOOP:  cpu time     34.4571: real time     34.7608

 eigenvalue-minimisations  : 33648
 total energy-change (2. order) :-0.4284528E-01  (-0.4283576E-01)
 number of electron      20.0000000 magnetization       4.0000000
 augmentation part       20.0000000 magnetization       4.0000000

 Free energy of the ion-electron system (eV)
  ---------------------------------------------------
  alpha Z        PSCENC =         8.33973856
  Ewald energy   TEWEN  =      2884.48405846
  -Hartree energ DENC   =     -3481.68665860
  -exchange      EXHF   =         0.00000000
  -V(xc)+E(xc)   XCENC  =       -17.01245813
  PAW double counting   =       596.57894437     -539.99618860
  entropy T*S    EENTRO =        -0.00000000
  eigenvalues    EBANDS =      -191.19283919
  atomic energy  EATOM  =       724.24730435
  Solvation  Ediel_sol  =         0.00000000
  ---------------------------------------------------
  free energy    TOTEN  =       -16.23809878 eV

  energy without entropy =      -16.23809878  energy(sigma->0) =      -16.23809878


--------------------------------------------------------------------------------------------------------




--------------------------------------- Iteration      1(   5)  ---------------------------------------


     EDDAV:  cpu time     34.0927: real time     34.3929
       DOS:  cpu time      0.0020: real time      0.0020
    CHARGE:  cpu time      0.2724: real time      0.2738
    MIXING:  cpu time      0.0100: real time      0.0101
    --------------------------------------------
      LOOP:  cpu time     34.3771: real time     34.6787

 eigenvalue-minimisations  : 33200
 total energy-change (2. order) :-0.2581535E-03  (-0.2581457E-03)
 number of electron      20.0000001 magnetization       3.7146437
 augmentation part       -3.7328802 magnetization       3.7233874

 Broyden mixing:
  rms(total) = 0.68406E+00    rms(broyden)= 0.68406E+00
  rms(prec ) = 0.69257E+00
  weight for this iteration     100.00

 Free energy of the ion-electron system (eV)
  ---------------------------------------------------
  alpha Z        PSCENC =         8.33973856
  Ewald energy   TEWEN  =      2884.48405846
  -Hartree energ DENC   =     -3481.68665860
  -exchange      EXHF   =         0.00000000
  -V(xc)+E(xc)   XCENC  =       -17.01245813
  PAW double counting   =       596.57894437     -539.99618860
  entropy T*S    EENTRO =        -0.00000000
  eigenvalues    EBANDS =      -191.19309734
  atomic energy  EATOM  =       724.24730435
  Solvation  Ediel_sol  =         0.00000000
  ---------------------------------------------------
  free energy    TOTEN  =       -16.23835693 eV

  energy without entropy =      -16.23835693  energy(sigma->0) =      -16.23835693


--------------------------------------------------------------------------------------------------------




--------------------------------------- Iteration      1(   6)  ---------------------------------------


    POTLOK:  cpu time      0.2427: real time      0.2445
    SETDIJ:  cpu time      1.1056: real time      1.1081
     EDDAV:  cpu time     33.0378: real time     33.3396
       DOS:  cpu time      0.0020: real time      0.0020
    CHARGE:  cpu time      0.2643: real time      0.2657
    MIXING:  cpu time      0.0099: real time      0.0099
    --------------------------------------------
      LOOP:  cpu time     34.6623: real time     34.9697

 eigenvalue-minimisations  : 31968
 total energy-change (2. order) : 0.4255634E+01  (-0.4204554E+00)
 number of electron      20.0000001 magnetization       3.3631295
 augmentation part       -3.7334490 magnetization       3.4723176

 Broyden mixing:
  rms(total) = 0.44921E+00    rms(broyden)= 0.44921E+00
  rms(prec ) = 0.45421E+00
  weight for this iteration     100.00

 eigenvalues of (default mixing * dielectric matrix)
  average eigenvalue GAMMA=   1.0472
  1.0472

 Free energy of the ion-electron system (eV)
  ---------------------------------------------------
  alpha Z        PSCENC =         8.33973856
  Ewald energy   TEWEN  =      2884.48405846
  -Hartree energ DENC   =     -3488.18432435
  -exchange      EXHF   =         0.00000000
  -V(xc)+E(xc)   XCENC  =       -13.63558835
  PAW double counting   =       725.21376827     -668.84000873
  entropy T*S    EENTRO =        -0.00000000
  eigenvalues    EBANDS =      -183.60767140
  atomic energy  EATOM  =       724.24730435
  Solvation  Ediel_sol  =         0.00000000
  ---------------------------------------------------
  free energy    TOTEN  =       -11.98272320 eV

  energy without entropy =      -11.98272320  energy(sigma->0) =      -11.98272320


--------------------------------------------------------------------------------------------------------




--------------------------------------- Iteration      1(   7)  ---------------------------------------


    POTLOK:  cpu time      0.2409: real time      0.2422
    SETDIJ:  cpu time      1.1165: real time      1.1191
     EDDAV:  cpu time     32.8576: real time     33.1612
       DOS:  cpu time      0.0020: real time      0.0020
    CHARGE:  cpu time      0.2660: real time      0.2677
    MIXING:  cpu time      0.0096: real time      0.0097
    --------------------------------------------
      LOOP:  cpu time     34.4926: real time     34.8019

 eigenvalue-minimisations  : 31776
 total energy-change (2. order) : 0.6330995E+00  (-0.5234298E-01)
 number of electron      20.0000001 magnetization       2.8520877
 augmentation part       -3.7226922 magnetization       2.9678424

 Broyden mixing:
  rms(total) = 0.30933E+00    rms(broyden)= 0.30933E+00
  rms(prec ) = 0.31238E+00
  weight for this iteration     100.00

 eigenvalues of (default mixing * dielectric matrix)
  average eigenvalue GAMMA=   1.3897
  0.8514  1.9281

 Free energy of the ion-electron system (eV)
  ---------------------------------------------------
  alpha Z        PSCENC =         8.33973856
  Ewald energy   TEWEN  =      2884.48405846
  -Hartree energ DENC   =     -3495.46827737
  -exchange      EXHF   =         0.00000000
  -V(xc)+E(xc)   XCENC  =       -12.98665001
  PAW double counting   =       854.31611622     -798.06785904
  entropy T*S    EENTRO =        -0.00000000
  eigenvalues    EBANDS =      -176.21405489
  atomic energy  EATOM  =       724.24730435
  Solvation  Ediel_sol  =         0.00000000
  ---------------------------------------------------
  free energy    TOTEN  =       -11.34962372 eV

  energy without entropy =      -11.34962372  energy(sigma->0) =      -11.34962372


--------------------------------------------------------------------------------------------------------




--------------------------------------- Iteration      1(   8)  ---------------------------------------


    POTLOK:  cpu time      0.2522: real time      0.2534
    SETDIJ:  cpu time      1.1113: real time      1.1136
     EDDAV:  cpu time     33.8829: real time     34.1656
       DOS:  cpu time      0.0020: real time      0.0020
    CHARGE:  cpu time      0.2636: real time      0.2649
    MIXING:  cpu time      0.0104: real time      0.0104
    --------------------------------------------
      LOOP:  cpu time     35.5224: real time     35.8098

 eigenvalue-minimisations  : 33056
 total energy-change (2. order) :-0.4535582E+00  (-0.1498106E-01)
 number of electron      20.0000001 magnetization       2.5297839
 augmentation part       -3.7079840 magnetization       2.6465662

 Broyden mixing:
  rms(total) = 0.20885E+00    rms(broyden)= 0.20885E+00
  rms(prec ) = 0.20984E+00
  weight for this iteration     100.00

 eigenvalues of (default mixing * dielectric matrix)
  average eigenvalue GAMMA=   1.4338
  2.5709  1.0436  0.6871

 Free energy of the ion-electron system (eV)
  ---------------------------------------------------
  alpha Z        PSCENC =         8.33973856
  Ewald energy   TEWEN  =      2884.48405846
  -Hartree energ DENC   =     -3503.77281301
  -exchange      EXHF   =         0.00000000
  -V(xc)+E(xc)   XCENC  =       -13.16991709
  PAW double counting   =       979.33718978     -923.15507687
  entropy T*S    EENTRO =        -0.00000000
  eigenvalues    EBANDS =      -168.11366614
  atomic energy  EATOM  =       724.24730435
  Solvation  Ediel_sol  =         0.00000000
  ---------------------------------------------------
  free energy    TOTEN  =       -11.80318196 eV

  energy without entropy =      -11.80318196  energy(sigma->0) =      -11.80318196


--------------------------------------------------------------------------------------------------------




--------------------------------------- Iteration      1(   9)  ---------------------------------------


    POTLOK:  cpu time      0.2398: real time      0.2411
    SETDIJ:  cpu time      1.1069: real time      1.1091
     EDDAV:  cpu time     33.4082: real time     33.6845
       DOS:  cpu time      0.0020: real time      0.0020
    CHARGE:  cpu time      0.2634: real time      0.2647
    MIXING:  cpu time      0.0099: real time      0.0099
    --------------------------------------------
      LOOP:  cpu time     35.0302: real time     35.3113

 eigenvalue-minimisations  : 32288
 total energy-change (2. order) :-0.9270348E+00  (-0.9554024E-02)
 number of electron      20.0000001 magnetization       1.9515211
 augmentation part       -3.6961357 magnetization       2.0521015

 Broyden mixing:
  rms(total) = 0.17469E+00    rms(broyden)= 0.17469E+00
  rms(prec ) = 0.17523E+00
  weight for this iteration     100.00

 eigenvalues of (default mixing * dielectric matrix)
  average eigenvalue GAMMA=   1.4621
  2.6333  1.6659  0.8977  0.6515

 Free energy of the ion-electron system (eV)
  ---------------------------------------------------
  alpha Z        PSCENC =         8.33973856
  Ewald energy   TEWEN  =      2884.48405846
  -Hartree energ DENC   =     -3507.06525822
  -exchange      EXHF   =         0.00000000
  -V(xc)+E(xc)   XCENC  =       -13.71391976
  PAW double counting   =      1000.57195307     -944.41821419
  entropy T*S    EENTRO =        -0.00000000
  eigenvalues    EBANDS =      -165.17587909
  atomic energy  EATOM  =       724.24730435
  Solvation  Ediel_sol  =         0.00000000
  ---------------------------------------------------
  free energy    TOTEN  =       -12.73021681 eV

  energy without entropy =      -12.73021681  energy(sigma->0) =      -12.73021681


--------------------------------------------------------------------------------------------------------




--------------------------------------- Iteration      1(  10)  ---------------------------------------


    POTLOK:  cpu time      0.2470: real time      0.2489
    SETDIJ:  cpu time      1.1033: real time      1.1058
     EDDAV:  cpu time     32.6702: real time     32.9576
       DOS:  cpu time      0.0020: real time      0.0020
    CHARGE:  cpu time      0.2640: real time      0.2657
    MIXING:  cpu time      0.0099: real time      0.0099
    --------------------------------------------
      LOOP:  cpu time     34.2965: real time     34.5899

 eigenvalue-minimisations  : 31568
 total energy-change (2. order) :-0.1737471E+01  (-0.4161761E-01)
 number of electron      20.0000001 magnetization       1.2282115
 augmentation part       -3.6819344 magnetization       1.2926200

 Broyden mixing:
  rms(total) = 0.12518E+00    rms(broyden)= 0.12518E+00
  rms(prec ) = 0.12574E+00
  weight for this iteration     100.00

 eigenvalues of (default mixing * dielectric matrix)
  average eigenvalue GAMMA=   1.8591
  4.2557  2.5846  1.0176  0.8115  0.6263

 Free energy of the ion-electron system (eV)
  ---------------------------------------------------
  alpha Z        PSCENC =         8.33973856
  Ewald energy   TEWEN  =      2884.48405846
  -Hartree energ DENC   =     -3510.21678428
  -exchange      EXHF   =         0.00000000
  -V(xc)+E(xc)   XCENC  =       -14.78043879
  PAW double counting   =       983.75889428     -927.57197453
  entropy T*S    EENTRO =        -0.00000000
  eigenvalues    EBANDS =      -162.72848586
  atomic energy  EATOM  =       724.24730435
  Solvation  Ediel_sol  =         0.00000000
  ---------------------------------------------------
  free energy    TOTEN  =       -14.46768780 eV

  energy without entropy =      -14.46768780  energy(sigma->0) =      -14.46768780


--------------------------------------------------------------------------------------------------------




--------------------------------------- Iteration      1(  11)  ---------------------------------------


    POTLOK:  cpu time      0.2390: real time      0.2406
    SETDIJ:  cpu time      1.0995: real time      1.1018
     EDDAV:  cpu time     33.4467: real time     33.7238
       DOS:  cpu time      0.0020: real time      0.0020
    CHARGE:  cpu time      0.2610: real time      0.2629
    MIXING:  cpu time      0.0103: real time      0.0103
    --------------------------------------------
      LOOP:  cpu time     35.0585: real time     35.3414

 eigenvalue-minimisations  : 32384
 total energy-change (2. order) :-0.1520367E+01  (-0.3672086E-01)
 number of electron      20.0000001 magnetization       0.8862683
 augmentation part       -3.6687942 magnetization       0.9143801

 Broyden mixing:
  rms(total) = 0.77145E-01    rms(broyden)= 0.77145E-01
  rms(prec ) = 0.79135E-01
  weight for this iteration     100.00

 eigenvalues of (default mixing * dielectric matrix)
  average eigenvalue GAMMA=   2.0294
  5.9717  2.6172  1.2016  1.0024  0.7598  0.6234

 Free energy of the ion-electron system (eV)
  ---------------------------------------------------
  alpha Z        PSCENC =         8.33973856
  Ewald energy   TEWEN  =      2884.48405846
  -Hartree energ DENC   =     -3512.49750382
  -exchange      EXHF   =         0.00000000
  -V(xc)+E(xc)   XCENC  =       -15.72745055
  PAW double counting   =       961.59161361     -905.37947854
  entropy T*S    EENTRO =        -0.00000000
  eigenvalues    EBANDS =      -161.04633719
  atomic energy  EATOM  =       724.24730435
  Solvation  Ediel_sol  =         0.00000000
  ---------------------------------------------------
  free energy    TOTEN  =       -15.98805512 eV

  energy without entropy =      -15.98805512  energy(sigma->0) =      -15.98805512


--------------------------------------------------------------------------------------------------------




--------------------------------------- Iteration      1(  12)  ---------------------------------------


    POTLOK:  cpu time      0.2508: real time      0.2523
    SETDIJ:  cpu time      1.1008: real time      1.1029
     EDDAV:  cpu time     33.8703: real time     34.1559
       DOS:  cpu time      0.0020: real time      0.0020
    CHARGE:  cpu time      0.2633: real time      0.2651
    MIXING:  cpu time      0.0100: real time      0.0100
    --------------------------------------------
      LOOP:  cpu time     35.4972: real time     35.7881

 eigenvalue-minimisations  : 32800
 total energy-change (2. order) :-0.3466126E+00  (-0.5378852E-02)
 number of electron      20.0000001 magnetization       0.5756030
 augmentation part       -3.6665882 magnetization       0.5878867

 Broyden mixing:
  rms(total) = 0.53756E-01    rms(broyden)= 0.53756E-01
  rms(prec ) = 0.55975E-01
  weight for this iteration     100.00

 eigenvalues of (default mixing * dielectric matrix)
  average eigenvalue GAMMA=   2.1869
  7.5349  2.6610  1.8540  1.0494  0.8531  0.7309  0.6254

 Free energy of the ion-electron system (eV)
  ---------------------------------------------------
  alpha Z        PSCENC =         8.33973856
  Ewald energy   TEWEN  =      2884.48405846
  -Hartree energ DENC   =     -3511.34958312
  -exchange      EXHF   =         0.00000000
  -V(xc)+E(xc)   XCENC  =       -15.96922514
  PAW double counting   =       953.36682415     -897.14843042
  entropy T*S    EENTRO =        -0.00000000
  eigenvalues    EBANDS =      -162.30535452
  atomic energy  EATOM  =       724.24730435
  Solvation  Ediel_sol  =         0.00000000
  ---------------------------------------------------
  free energy    TOTEN  =       -16.33466768 eV

  energy without entropy =      -16.33466768  energy(sigma->0) =      -16.33466768


--------------------------------------------------------------------------------------------------------




--------------------------------------- Iteration      1(  13)  ---------------------------------------


    POTLOK:  cpu time      0.2384: real time      0.2401
    SETDIJ:  cpu time      1.0999: real time      1.1022
     EDDAV:  cpu time     32.5682: real time     32.8427
       DOS:  cpu time      0.0020: real time      0.0020
    CHARGE:  cpu time      0.2657: real time      0.2673
    MIXING:  cpu time      0.0103: real time      0.0104
    --------------------------------------------
      LOOP:  cpu time     34.1845: real time     34.4646

 eigenvalue-minimisations  : 31424
 total energy-change (2. order) : 0.1591181E-01  (-0.2486656E-02)
 number of electron      20.0000001 magnetization       0.4188227
 augmentation part       -3.6705513 magnetization       0.4231777

 Broyden mixing:
  rms(total) = 0.33842E-01    rms(broyden)= 0.33842E-01
  rms(prec ) = 0.35344E-01
  weight for this iteration     100.00

 eigenvalues of (default mixing * dielectric matrix)
  average eigenvalue GAMMA=   2.2911
  9.0190  2.6882  2.4968  1.0962  0.9957  0.7578  0.6376  0.6376

 Free energy of the ion-electron system (eV)
  ---------------------------------------------------
  alpha Z        PSCENC =         8.33973856
  Ewald energy   TEWEN  =      2884.48405846
  -Hartree energ DENC   =     -3508.81688898
  -exchange      EXHF   =         0.00000000
  -V(xc)+E(xc)   XCENC  =       -15.98014485
  PAW double counting   =       950.49268216     -894.27200387
  entropy T*S    EENTRO =        -0.00000000
  eigenvalues    EBANDS =      -164.81350169
  atomic energy  EATOM  =       724.24730435
  Solvation  Ediel_sol  =         0.00000000
  ---------------------------------------------------
  free energy    TOTEN  =       -16.31875586 eV

  energy without entropy =      -16.31875586  energy(sigma->0) =      -16.31875586


--------------------------------------------------------------------------------------------------------




--------------------------------------- Iteration      1(  14)  ---------------------------------------


    POTLOK:  cpu time      0.2386: real time      0.2409
    SETDIJ:  cpu time      1.0999: real time      1.1022
     EDDAV:  cpu time     32.6831: real time     32.9836
       DOS:  cpu time      0.0020: real time      0.0020
    CHARGE:  cpu time      0.2606: real time      0.2625
    MIXING:  cpu time      0.0102: real time      0.0103
    --------------------------------------------
      LOOP:  cpu time     34.2943: real time     34.6014

 eigenvalue-minimisations  : 31504
 total energy-change (2. order) :-0.1136506E+00  (-0.3938664E-03)
 number of electron      20.0000001 magnetization       0.3142744
 augmentation part       -3.6724029 magnetization       0.3166559

 Broyden mixing:
  rms(total) = 0.23328E-01    rms(broyden)= 0.23328E-01
  rms(prec ) = 0.24664E-01
  weight for this iteration     100.00

 eigenvalues of (default mixing * dielectric matrix)
  average eigenvalue GAMMA=   2.3697
 10.1272  3.1590  2.7315  1.4039  1.0451  0.8583  0.7489  0.6265  0.6265

 Free energy of the ion-electron system (eV)
  ---------------------------------------------------
  alpha Z        PSCENC =         8.33973856
  Ewald energy   TEWEN  =      2884.48405846
  -Hartree energ DENC   =     -3507.31408491
  -exchange      EXHF   =         0.00000000
  -V(xc)+E(xc)   XCENC  =       -16.11820916
  PAW double counting   =       952.65745181     -896.43881493
  entropy T*S    EENTRO =        -0.00000000
  eigenvalues    EBANDS =      -166.28985064
  atomic energy  EATOM  =       724.24730435
  Solvation  Ediel_sol  =         0.00000000
  ---------------------------------------------------
  free energy    TOTEN  =       -16.43240645 eV

  energy without entropy =      -16.43240645  energy(sigma->0) =      -16.43240645


--------------------------------------------------------------------------------------------------------




--------------------------------------- Iteration      1(  15)  ---------------------------------------


    POTLOK:  cpu time      0.2382: real time      0.2398
    SETDIJ:  cpu time      1.0976: real time      1.1002
     EDDAV:  cpu time     32.8825: real time     33.1762
       DOS:  cpu time      0.0020: real time      0.0020
    CHARGE:  cpu time      0.2606: real time      0.2621
    MIXING:  cpu time      0.0106: real time      0.0106
    --------------------------------------------
      LOOP:  cpu time     34.4915: real time     34.7910

 eigenvalue-minimisations  : 31776
 total energy-change (2. order) :-0.1557614E+00  (-0.1268619E-03)
 number of electron      20.0000001 magnetization       0.2120174
 augmentation part       -3.6723121 magnetization       0.2135829

 Broyden mixing:
  rms(total) = 0.17135E-01    rms(broyden)= 0.17135E-01
  rms(prec ) = 0.18160E-01
  weight for this iteration     100.00

 eigenvalues of (default mixing * dielectric matrix)
  average eigenvalue GAMMA=   2.3924
 10.7716  3.6157  2.6758  1.8985  1.0777  1.0777  0.8066  0.7555  0.6223  0.6223

 Free energy of the ion-electron system (eV)
  ---------------------------------------------------
  alpha Z        PSCENC =         8.33973856
  Ewald energy   TEWEN  =      2884.48405846
  -Hartree energ DENC   =     -3506.00029947
  -exchange      EXHF   =         0.00000000
  -V(xc)+E(xc)   XCENC  =       -16.29138000
  PAW double counting   =       954.82944424     -898.61380082
  entropy T*S    EENTRO =        -0.00000000
  eigenvalues    EBANDS =      -167.58323320
  atomic energy  EATOM  =       724.24730435
  Solvation  Ediel_sol  =         0.00000000
  ---------------------------------------------------
  free energy    TOTEN  =       -16.58816788 eV

  energy without entropy =      -16.58816788  energy(sigma->0) =      -16.58816788


--------------------------------------------------------------------------------------------------------




--------------------------------------- Iteration      1(  16)  ---------------------------------------


    POTLOK:  cpu time      0.2372: real time      0.2392
    SETDIJ:  cpu time      1.0972: real time      1.0997
     EDDAV:  cpu time     33.0879: real time     33.3922
       DOS:  cpu time      0.0020: real time      0.0020
    CHARGE:  cpu time      0.2591: real time      0.2604
    MIXING:  cpu time      0.0108: real time      0.0108
    --------------------------------------------
      LOOP:  cpu time     34.6942: real time     35.0045

 eigenvalue-minimisations  : 31968
 total energy-change (2. order) :-0.1113709E+00  (-0.1190081E-03)
 number of electron      20.0000001 magnetization       0.1486224
 augmentation part       -3.6724199 magnetization       0.1490954

 Broyden mixing:
  rms(total) = 0.12329E-01    rms(broyden)= 0.12329E-01
  rms(prec ) = 0.12856E-01
  weight for this iteration     100.00

 eigenvalues of (default mixing * dielectric matrix)
  average eigenvalue GAMMA=   2.4177
 11.2442  4.0656  2.6468  2.6468  1.2828  1.0449  0.9346  0.7778  0.7096  0.6211
  0.6211

 Free energy of the ion-electron system (eV)
  ---------------------------------------------------
  alpha Z        PSCENC =         8.33973856
  Ewald energy   TEWEN  =      2884.48405846
  -Hartree energ DENC   =     -3504.39577715
  -exchange      EXHF   =         0.00000000
  -V(xc)+E(xc)   XCENC  =       -16.42368685
  PAW double counting   =       954.94446502     -898.73001732
  entropy T*S    EENTRO =        -0.00000000
  eigenvalues    EBANDS =      -169.16562380
  atomic energy  EATOM  =       724.24730435
  Solvation  Ediel_sol  =         0.00000000
  ---------------------------------------------------
  free energy    TOTEN  =       -16.69953873 eV

  energy without entropy =      -16.69953873  energy(sigma->0) =      -16.69953873


--------------------------------------------------------------------------------------------------------




--------------------------------------- Iteration      1(  17)  ---------------------------------------


    POTLOK:  cpu time      0.2355: real time      0.2371
    SETDIJ:  cpu time      1.0989: real time      1.1011
     EDDAV:  cpu time     33.6112: real time     33.9093
       DOS:  cpu time      0.0020: real time      0.0020
    CHARGE:  cpu time      0.2597: real time      0.2613
    MIXING:  cpu time      0.0107: real time      0.0110
    --------------------------------------------
      LOOP:  cpu time     35.2180: real time     35.5217

 eigenvalue-minimisations  : 32608
 total energy-change (2. order) :-0.2673719E-01  (-0.3799170E-04)
 number of electron      20.0000001 magnetization       0.0741700
 augmentation part       -3.6726426 magnetization       0.0745120

 Broyden mixing:
  rms(total) = 0.92458E-02    rms(broyden)= 0.92458E-02
  rms(prec ) = 0.95008E-02
  weight for this iteration     100.00

 eigenvalues of (default mixing * dielectric matrix)
  average eigenvalue GAMMA=   2.4690
 11.4858  4.9165  3.1794  2.5675  1.7083  1.0816  1.0816  0.9048  0.7753  0.6846
  0.6212  0.6212

 Free energy of the ion-electron system (eV)
  ---------------------------------------------------
  alpha Z        PSCENC =         8.33973856
  Ewald energy   TEWEN  =      2884.48405846
  -Hartree energ DENC   =     -3503.39745316
  -exchange      EXHF   =         0.00000000
  -V(xc)+E(xc)   XCENC  =       -16.45857369
  PAW double counting   =       955.55209170     -899.33809463
  entropy T*S    EENTRO =        -0.00000000
  eigenvalues    EBANDS =      -170.15534751
  atomic energy  EATOM  =       724.24730435
  Solvation  Ediel_sol  =         0.00000000
  ---------------------------------------------------
  free energy    TOTEN  =       -16.72627592 eV

  energy without entropy =      -16.72627592  energy(sigma->0) =      -16.72627592


--------------------------------------------------------------------------------------------------------




--------------------------------------- Iteration      1(  18)  ---------------------------------------


    POTLOK:  cpu time      0.2317: real time      0.2336
    SETDIJ:  cpu time      1.1068: real time      1.1093
     EDDAV:  cpu time     33.5231: real time     33.8115
       DOS:  cpu time      0.0020: real time      0.0020
    CHARGE:  cpu time      0.2611: real time      0.2627
    MIXING:  cpu time      0.0116: real time      0.0117
    --------------------------------------------
      LOOP:  cpu time     35.1364: real time     35.4308

 eigenvalue-minimisations  : 32416
 total energy-change (2. order) :-0.1413878E-01  (-0.2524216E-04)
 number of electron      20.0000001 magnetization       0.0380561
 augmentation part       -3.6731171 magnetization       0.0382431

 Broyden mixing:
  rms(total) = 0.52729E-02    rms(broyden)= 0.52729E-02
  rms(prec ) = 0.54207E-02
  weight for this iteration     100.00

 eigenvalues of (default mixing * dielectric matrix)
  average eigenvalue GAMMA=   2.6103
 11.9892  6.9155  3.4236  2.6611  2.2016  1.2631  0.9876  0.9876  0.8205  0.7693
  0.6741  0.6285  0.6123

 Free energy of the ion-electron system (eV)
  ---------------------------------------------------
  alpha Z        PSCENC =         8.33973856
  Ewald energy   TEWEN  =      2884.48405846
  -Hartree energ DENC   =     -3502.22913233
  -exchange      EXHF   =         0.00000000
  -V(xc)+E(xc)   XCENC  =       -16.47901460
  PAW double counting   =       956.26575240     -900.05208932
  entropy T*S    EENTRO =        -0.00000000
  eigenvalues    EBANDS =      -171.31703222
  atomic energy  EATOM  =       724.24730435
  Solvation  Ediel_sol  =         0.00000000
  ---------------------------------------------------
  free energy    TOTEN  =       -16.74041470 eV

  energy without entropy =      -16.74041470  energy(sigma->0) =      -16.74041470


--------------------------------------------------------------------------------------------------------




--------------------------------------- Iteration      1(  19)  ---------------------------------------


    POTLOK:  cpu time      0.2325: real time      0.2341
    SETDIJ:  cpu time      1.1030: real time      1.1053
     EDDAV:  cpu time     33.4117: real time     33.7026
       DOS:  cpu time      0.0020: real time      0.0020
    CHARGE:  cpu time      0.2583: real time      0.2602
    MIXING:  cpu time      0.0112: real time      0.0113
    --------------------------------------------
      LOOP:  cpu time     35.0186: real time     35.3155

 eigenvalue-minimisations  : 32336
 total energy-change (2. order) :-0.7056230E-02  (-0.9267229E-05)
 number of electron      20.0000001 magnetization       0.0171488
 augmentation part       -3.6736363 magnetization       0.0171753

 Broyden mixing:
  rms(total) = 0.31501E-02    rms(broyden)= 0.31501E-02
  rms(prec ) = 0.33897E-02
  weight for this iteration     100.00

 eigenvalues of (default mixing * dielectric matrix)
  average eigenvalue GAMMA=   2.6751
 12.5171  8.2746  3.5262  2.7322  2.4138  1.4866  1.0720  1.0720  0.9228  0.7999
  0.7272  0.6673  0.6279  0.6114

 Free energy of the ion-electron system (eV)
  ---------------------------------------------------
  alpha Z        PSCENC =         8.33973856
  Ewald energy   TEWEN  =      2884.48405846
  -Hartree energ DENC   =     -3501.71961582
  -exchange      EXHF   =         0.00000000
  -V(xc)+E(xc)   XCENC  =       -16.49051326
  PAW double counting   =       955.79930197     -899.58527635
  entropy T*S    EENTRO =        -0.00000000
  eigenvalues    EBANDS =      -171.82246884
  atomic energy  EATOM  =       724.24730435
  Solvation  Ediel_sol  =         0.00000000
  ---------------------------------------------------
  free energy    TOTEN  =       -16.74747093 eV

  energy without entropy =      -16.74747093  energy(sigma->0) =      -16.74747093


--------------------------------------------------------------------------------------------------------




--------------------------------------- Iteration      1(  20)  ---------------------------------------


    POTLOK:  cpu time      0.2340: real time      0.2354
    SETDIJ:  cpu time      1.0997: real time      1.1019
     EDDAV:  cpu time     32.9843: real time     33.2760
       DOS:  cpu time      0.0020: real time      0.0020
    CHARGE:  cpu time      0.2599: real time      0.2621
    MIXING:  cpu time      0.0115: real time      0.0116
    --------------------------------------------
      LOOP:  cpu time     34.5914: real time     34.8890

 eigenvalue-minimisations  : 31696
 total energy-change (2. order) :-0.6442415E-02  (-0.5409450E-05)
 number of electron      20.0000001 magnetization       0.0086073
 augmentation part       -3.6737306 magnetization       0.0086048

 Broyden mixing:
  rms(total) = 0.16385E-02    rms(broyden)= 0.16385E-02
  rms(prec ) = 0.19362E-02
  weight for this iteration     100.00

 eigenvalues of (default mixing * dielectric matrix)
  average eigenvalue GAMMA=   2.7406
 13.2502  9.2877  3.7260  2.8289  2.6692  1.8522  1.2164  1.0272  1.0272  0.8196
  0.8196  0.6995  0.6477  0.6113  0.6272

 Free energy of the ion-electron system (eV)
  ---------------------------------------------------
  alpha Z        PSCENC =         8.33973856
  Ewald energy   TEWEN  =      2884.48405846
  -Hartree energ DENC   =     -3501.57212845
  -exchange      EXHF   =         0.00000000
  -V(xc)+E(xc)   XCENC  =       -16.49809338
  PAW double counting   =       955.59182517     -899.37803822
  entropy T*S    EENTRO =        -0.00000000
  eigenvalues    EBANDS =      -171.96857984
  atomic energy  EATOM  =       724.24730435
  Solvation  Ediel_sol  =         0.00000000
  ---------------------------------------------------
  free energy    TOTEN  =       -16.75391334 eV

  energy without entropy =      -16.75391334  energy(sigma->0) =      -16.75391334


--------------------------------------------------------------------------------------------------------




--------------------------------------- Iteration      1(  21)  ---------------------------------------


    POTLOK:  cpu time      0.2370: real time      0.2385
    SETDIJ:  cpu time      1.0985: real time      1.1006
     EDDAV:  cpu time     32.1081: real time     32.3971
       DOS:  cpu time      0.0020: real time      0.0020
    CHARGE:  cpu time      0.2607: real time      0.2620
    MIXING:  cpu time      0.0117: real time      0.0118
    --------------------------------------------
      LOOP:  cpu time     33.7180: real time     34.0120

 eigenvalue-minimisations  : 30768
 total energy-change (2. order) :-0.3115006E-02  (-0.2822405E-05)
 number of electron      20.0000001 magnetization       0.0048218
 augmentation part       -3.6736105 magnetization       0.0047992

 Broyden mixing:
  rms(total) = 0.90306E-03    rms(broyden)= 0.90306E-03
  rms(prec ) = 0.11882E-02
  weight for this iteration     100.00

 eigenvalues of (default mixing * dielectric matrix)
  average eigenvalue GAMMA=   2.7188
 13.6410  9.6277  3.9141  3.0798  2.6410  2.0007  1.3721  1.0456  1.0456  0.9728
  0.8100  0.7833  0.6988  0.6108  0.6288  0.6281

 Free energy of the ion-electron system (eV)
  ---------------------------------------------------
  alpha Z        PSCENC =         8.33973856
  Ewald energy   TEWEN  =      2884.48405846
  -Hartree energ DENC   =     -3501.62006085
  -exchange      EXHF   =         0.00000000
  -V(xc)+E(xc)   XCENC  =       -16.49999690
  PAW double counting   =       955.50591159     -899.29233586
  entropy T*S    EENTRO =        -0.00000000
  eigenvalues    EBANDS =      -171.92164769
  atomic energy  EATOM  =       724.24730435
  Solvation  Ediel_sol  =         0.00000000
  ---------------------------------------------------
  free energy    TOTEN  =       -16.75702835 eV

  energy without entropy =      -16.75702835  energy(sigma->0) =      -16.75702835


--------------------------------------------------------------------------------------------------------




--------------------------------------- Iteration      1(  22)  ---------------------------------------


    POTLOK:  cpu time      0.2366: real time      0.2392
    SETDIJ:  cpu time      1.0997: real time      1.1020
     EDDAV:  cpu time     31.9570: real time     32.2194
       DOS:  cpu time      0.0020: real time      0.0020
    CHARGE:  cpu time      0.2602: real time      0.2618
    MIXING:  cpu time      0.0118: real time      0.0119
    --------------------------------------------
      LOOP:  cpu time     33.5674: real time     33.8363

 eigenvalue-minimisations  : 30416
 total energy-change (2. order) :-0.1457970E-02  (-0.9726124E-06)
 number of electron      20.0000001 magnetization       0.0024980
 augmentation part       -3.6735239 magnetization       0.0024925

 Broyden mixing:
  rms(total) = 0.57108E-03    rms(broyden)= 0.57108E-03
  rms(prec ) = 0.79122E-03
  weight for this iteration     100.00

 eigenvalues of (default mixing * dielectric matrix)
  average eigenvalue GAMMA=   2.6814
 13.8024  9.7302  4.1011  3.2524  2.5455  2.1568  1.7287  1.2148  1.0272  1.0272
  0.8714  0.8085  0.7544  0.7001  0.6287  0.6151  0.6193

 Free energy of the ion-electron system (eV)
  ---------------------------------------------------
  alpha Z        PSCENC =         8.33973856
  Ewald energy   TEWEN  =      2884.48405846
  -Hartree energ DENC   =     -3501.70785362
  -exchange      EXHF   =         0.00000000
  -V(xc)+E(xc)   XCENC  =       -16.50029584
  PAW double counting   =       955.32118323     -899.10747756
  entropy T*S    EENTRO =        -0.00000000
  eigenvalues    EBANDS =      -171.83514390
  atomic energy  EATOM  =       724.24730435
  Solvation  Ediel_sol  =         0.00000000
  ---------------------------------------------------
  free energy    TOTEN  =       -16.75848632 eV

  energy without entropy =      -16.75848632  energy(sigma->0) =      -16.75848632


--------------------------------------------------------------------------------------------------------




--------------------------------------- Iteration      1(  23)  ---------------------------------------


    POTLOK:  cpu time      0.2363: real time      0.2379
    SETDIJ:  cpu time      1.0953: real time      1.1022
     EDDAV:  cpu time     31.9989: real time     32.3007
       DOS:  cpu time      0.0020: real time      0.0020
    CHARGE:  cpu time      0.2651: real time      0.2667
    MIXING:  cpu time      0.0123: real time      0.0124
    --------------------------------------------
      LOOP:  cpu time     33.6100: real time     33.9219

 eigenvalue-minimisations  : 30592
 total energy-change (2. order) :-0.7606357E-03  (-0.6378657E-06)
 number of electron      20.0000001 magnetization       0.0011944
 augmentation part       -3.6734451 magnetization       0.0011824

 Broyden mixing:
  rms(total) = 0.36405E-03    rms(broyden)= 0.36405E-03
  rms(prec ) = 0.49959E-03
[...]
      5      -7.4368      1.00000
      6      -7.4368      1.00000
      7      -6.6181      1.00000
      8      -6.6181      1.00000
      9      -4.5447      1.00000
     10      -4.5447      1.00000
     11      -0.2098      0.00000
     12      -0.2098      0.00000
     13       1.5518      0.00000
     14       1.5518      0.00000
     15       2.2664      0.00000
     16       2.2665      0.00000
     17       3.8866      0.00000
     18       3.8866      0.00000
     19       4.4567      0.00000
     20       4.4567      0.00000
     21       5.1635      0.00000
     22       5.1637      0.00000
     23       5.5337      0.00000
     24       5.5338      0.00000
     25       5.7511      0.00000
     26       5.7511      0.00000
     27       5.8623      0.00000
     28       5.8624      0.00000
     29       6.0301      0.00000
     30       6.0301      0.00000
     31       6.1988      0.00000
     32       6.1989      0.00000
     33       6.3221      0.00000
     34       6.3221      0.00000
     35       6.3816      0.00000
     36       6.3817      0.00000
     37       6.9219      0.00000
     38       6.9220      0.00000
     39       7.1205      0.00000
     40       7.1205      0.00000
     41       7.2682      0.00000
     42       7.2682      0.00000
     43       7.4189      0.00000
     44       7.4190      0.00000
     45       7.8038      0.00000
     46       7.8038      0.00000
     47       8.3019      0.00000
     48       8.3019      0.00000
     49       8.5836      0.00000
     50       8.5837      0.00000
     51       8.7900      0.00000
     52       8.7900      0.00000
     53       9.1596      0.00000
     54       9.1596      0.00000
     55       9.6291      0.00000
     56       9.6291      0.00000
     57      10.2149      0.00000
     58      10.2150      0.00000
     59      10.6336      0.00000
     60      10.6336      0.00000
     61      10.9867      0.00000
     62      10.9867      0.00000
     63      11.0567      0.00000
     64      11.0567      0.00000
     65      11.3169      0.00000
     66      11.3169      0.00000
     67      11.4138      0.00000
     68      11.4138      0.00000
     69      12.4027      0.00000
     70      12.4027      0.00000
     71      12.9614      0.00000
     72      12.9614      0.00000
     73      13.1010      0.00000
     74      13.1011      0.00000
     75      13.5787      0.00000
     76      13.5787      0.00000
     77      13.6333      0.00000
     78      13.6333      0.00000
     79      14.3269      0.00000
     80      14.3269      0.00000
     81      14.9950      0.00000
     82      14.9951      0.00000
     83      15.2794      0.00000
     84      15.2794      0.00000
     85      15.4323      0.00000
     86      15.4323      0.00000
     87      16.0912      0.00000
     88      16.0913      0.00000
     89      16.2059      0.00000
     90      16.2059      0.00000
     91      16.3518      0.00000
     92      16.3518      0.00000
     93      17.3379      0.00000
     94      17.3379      0.00000
     95      17.9861      0.00000
     96      17.9861      0.00000
     97      18.6439      0.00000
     98      18.6439      0.00000
     99      18.7371      0.00000
    100      18.7372      0.00000
    101      19.2686      0.00000
    102      19.2686      0.00000
    103      19.4825      0.00000
    104      19.4826      0.00000
    105      19.6092      0.00000
    106      19.6092      0.00000
    107      19.9871      0.00000
    108      19.9871      0.00000
    109      20.3609      0.00000
    110      20.3609      0.00000
    111      20.5093      0.00000
    112      20.5094      0.00000
    113      20.5679      0.00000
    114      20.5679      0.00000
    115      20.6331      0.00000
    116      20.6332      0.00000
    117      20.8452      0.00000
    118      20.8452      0.00000
    119      20.9518      0.00000
    120      20.9519      0.00000
    121      21.0500      0.00000
    122      21.0500      0.00000
    123      21.1511      0.00000
    124      21.1511      0.00000
    125      21.6611      0.00000
    126      21.6611      0.00000
    127      21.7589      0.00000
    128      21.7591      0.00000
    129      21.9914      0.00000
    130      21.9915      0.00000
    131      22.0203      0.00000
    132      22.0204      0.00000
    133      22.1218      0.00000
    134      22.1219      0.00000
    135      22.1649      0.00000
    136      22.1650      0.00000
    137      22.7144      0.00000
    138      22.7144      0.00000
    139      22.8175      0.00000
    140      22.8175      0.00000
    141      23.0052      0.00000
    142      23.0052      0.00000
    143      23.1514      0.00000
    144      23.1514      0.00000
    145      23.3954      0.00000
    146      23.3954      0.00000
    147      23.6259      0.00000
    148      23.6259      0.00000
    149      23.8391      0.00000
    150      23.8392      0.00000
    151      24.0800      0.00000
    152      24.0800      0.00000
    153      24.4094      0.00000
    154      24.4094      0.00000
    155      24.7186      0.00000
    156      24.7186      0.00000
    157      24.9077      0.00000
    158      24.9077      0.00000
    159      25.2170      0.00000
    160      25.2170      0.00000
    161      25.3807      0.00000
    162      25.3808      0.00000
    163      25.6131      0.00000
    164      25.6131      0.00000
    165      25.6642      0.00000
    166      25.6643      0.00000
    167      25.7252      0.00000
    168      25.7253      0.00000
    169      25.8930      0.00000
    170      25.8931      0.00000
    171      25.9060      0.00000
    172      25.9060      0.00000
    173      26.0658      0.00000
    174      26.0658      0.00000
    175      26.0710      0.00000
    176      26.0710      0.00000
    177      26.4647      0.00000
    178      26.4647      0.00000
    179      26.5011      0.00000
    180      26.5012      0.00000
    181      26.5436      0.00000
    182      26.5436      0.00000
    183      26.5656      0.00000
    184      26.5657      0.00000
    185      26.6975      0.00000
    186      26.6975      0.00000
    187      26.7471      0.00000
    188      26.7471      0.00000
    189      27.1201      0.00000
    190      27.1201      0.00000
    191      27.2334      0.00000
    192      27.2335      0.00000
    193      27.4782      0.00000
    194      27.4782      0.00000
    195      27.6822      0.00000
    196      27.6822      0.00000
    197      27.7750      0.00000
    198      27.7750      0.00000
    199      27.8422      0.00000
    200      27.8422      0.00000
    201      27.9171      0.00000
    202      27.9171      0.00000
    203      28.0064      0.00000
    204      28.0065      0.00000
    205      28.0789      0.00000
    206      28.0789      0.00000
    207      28.6352      0.00000
    208      28.6352      0.00000
    209      28.9820      0.00000
    210      28.9820      0.00000
    211      29.0433      0.00000
    212      29.0434      0.00000
    213      29.2193      0.00000
    214      29.2193      0.00000
    215      29.2427      0.00000
    216      29.2427      0.00000
    217      29.9404      0.00000
    218      29.9404      0.00000
    219      30.1446      0.00000
    220      30.1447      0.00000
    221      30.2713      0.00000
    222      30.2715      0.00000
    223      30.3804      0.00000
    224      30.3807      0.00000


--------------------------------------------------------------------------------------------------------


 soft charge-density along one line, spin component            1
         0         1         2         3         4         5         6         7         8         9
 total charge-density along one line
 
 soft charge-density along one line, spin component            2
         0         1         2         3         4         5         6         7         8         9
 total charge-density along one line
 
 pseudopotential strength for first ion, spin component:            1
 16.433  20.560   0.042   0.053  -0.000   0.076   0.095  -0.000
 20.560  25.741   0.053   0.066  -0.000   0.096   0.119  -0.000
  0.042   0.053   3.544  -0.003  -0.000   6.060  -0.005  -0.000
  0.053   0.066  -0.003   3.541  -0.000  -0.005   6.056  -0.000
 -0.000  -0.000  -0.000  -0.000   3.545  -0.000  -0.000   6.062
  0.076   0.096   6.060  -0.005  -0.000  10.427  -0.009  -0.000
  0.095   0.119  -0.005   6.056  -0.000  -0.009  10.420  -0.000
 -0.000  -0.000  -0.000  -0.000   6.062  -0.000  -0.000  10.431
 -0.000  -0.000  -0.000  -0.000   0.007  -0.000  -0.000   0.013
 -0.007  -0.008   0.013   0.013  -0.000   0.024   0.024  -0.000
 -0.003  -0.004  -0.004   0.013   0.000  -0.007   0.025   0.000
 -0.000  -0.000  -0.000  -0.000   0.013  -0.000  -0.000   0.024
  0.001   0.002  -0.013   0.000  -0.000  -0.023   0.000  -0.000
 pseudopotential strength for first ion, spin component:            2
 16.433  20.560   0.042   0.053  -0.000   0.076   0.095  -0.000
 20.560  25.741   0.053   0.066  -0.000   0.096   0.119  -0.000
  0.042   0.053   3.544  -0.003  -0.000   6.060  -0.005  -0.000
  0.053   0.066  -0.003   3.541  -0.000  -0.005   6.056  -0.000
 -0.000  -0.000  -0.000  -0.000   3.545  -0.000  -0.000   6.062
  0.076   0.096   6.060  -0.005  -0.000  10.427  -0.009  -0.000
  0.095   0.119  -0.005   6.056  -0.000  -0.009  10.420  -0.000
 -0.000  -0.000  -0.000  -0.000   6.062  -0.000  -0.000  10.431
 -0.000  -0.000  -0.000  -0.000   0.007  -0.000  -0.000   0.013
 -0.007  -0.008   0.013   0.013  -0.000   0.024   0.024  -0.000
 -0.003  -0.004  -0.004   0.013   0.000  -0.007   0.025   0.000
 -0.000  -0.000  -0.000  -0.000   0.013  -0.000  -0.000   0.024
  0.001   0.002  -0.013   0.000  -0.000  -0.023   0.000  -0.000
 total augmentation occupancy for first ion, spin component:            1
  2.687  -0.651   0.352   0.400  -0.000  -0.066  -0.073   0.000  -0.000  -0.009  -0.014   0.000   0.009
 -0.651   0.614  -0.445  -0.550  -0.000   0.071   0.087   0.000   0.000   0.002   0.017   0.000  -0.005
  0.352  -0.445   1.226   0.076  -0.000  -0.198   0.000   0.000   0.000   0.051  -0.099   0.000   0.001
  0.400  -0.550   0.076   1.275   0.000   0.000  -0.199   0.000  -0.000  -0.016   0.111   0.000  -0.003
 -0.000  -0.000  -0.000   0.000   1.240   0.000   0.000  -0.211   0.148   0.000   0.000   0.045   0.000
 -0.066   0.071  -0.198   0.000   0.000   0.036  -0.002   0.000  -0.000  -0.009   0.017   0.000   0.000
 -0.073   0.087   0.000  -0.199   0.000  -0.002   0.035   0.000   0.000   0.003  -0.020  -0.000   0.001
  0.000   0.000   0.000   0.000  -0.211   0.000   0.000   0.040  -0.026  -0.000   0.000  -0.008   0.000
 -0.000   0.000   0.000   0.000   0.148   0.000   0.000  -0.026   0.030   0.000   0.000   0.003   0.000
 -0.009   0.002   0.051  -0.016   0.000  -0.009   0.003   0.000   0.000   0.010  -0.007   0.000   0.001
 -0.014   0.017  -0.099   0.111   0.000   0.017  -0.020   0.000   0.000  -0.007   0.028   0.000  -0.002
  0.000   0.000   0.000   0.000   0.045   0.000   0.000  -0.008   0.003  -0.000  -0.000   0.009   0.000
  0.009  -0.005   0.001  -0.003   0.000   0.000   0.001   0.000   0.000   0.001  -0.002   0.000   0.008
 total augmentation occupancy for first ion, spin component:            2
  0.000  -0.000  -0.000  -0.000   0.000   0.000   0.000   0.000   0.000   0.000  -0.000   0.000   0.000
 -0.000  -0.000   0.000   0.000   0.000  -0.000  -0.000   0.000   0.000   0.000  -0.000   0.000  -0.000
 -0.000   0.000   0.000   0.000   0.000  -0.000  -0.000   0.000   0.000  -0.000   0.000   0.000   0.000
 -0.000   0.000   0.000  -0.000   0.000  -0.000   0.000   0.000   0.000  -0.000   0.000   0.000  -0.000
  0.000   0.000   0.000   0.000   0.000   0.000   0.000  -0.000  -0.000   0.000   0.000  -0.000   0.000
  0.000  -0.000  -0.000  -0.000   0.000   0.000   0.000   0.000   0.000   0.000  -0.000   0.000  -0.000
  0.000  -0.000  -0.000   0.000   0.000   0.000  -0.000   0.000   0.000   0.000   0.000   0.000   0.000
  0.000   0.000   0.000   0.000  -0.000   0.000   0.000   0.000   0.000  -0.000  -0.000   0.000   0.000
  0.000   0.000   0.000   0.000  -0.000   0.000   0.000   0.000  -0.000   0.000   0.000  -0.000   0.000
  0.000   0.000  -0.000  -0.000   0.000   0.000   0.000  -0.000   0.000  -0.000  -0.000   0.000   0.000
 -0.000  -0.000   0.000   0.000   0.000  -0.000   0.000  -0.000   0.000  -0.000  -0.000   0.000  -0.000
  0.000   0.000   0.000   0.000  -0.000   0.000   0.000   0.000  -0.000   0.000   0.000  -0.000   0.000
  0.000  -0.000   0.000  -0.000   0.000  -0.000   0.000   0.000   0.000   0.000  -0.000   0.000  -0.000


------------------------ aborting loop because EDIFF is reached ----------------------------------------





 total charge

# of ion       s       p       d       tot
------------------------------------------
    1        1.318   0.790   0.051   2.158
    2        1.318   0.790   0.051   2.158
    3        1.472   2.313   0.029   3.813
    4        1.472   2.313   0.029   3.813
--------------------------------------------------
tot          5.579   6.205   0.159  11.943



 magnetization (x)

# of ion       s       p       d       tot
------------------------------------------
    1       -0.000  -0.000  -0.000  -0.000
    2       -0.000  -0.000  -0.000  -0.000
    3        0.000   0.000  -0.000   0.000
    4        0.000   0.000  -0.000   0.000
--------------------------------------------------
tot         -0.000   0.000  -0.000   0.000
 
    CHARGE:  cpu time      0.2606: real time      0.2620
    FORLOC:  cpu time      0.0070: real time      0.0070
    FORNL :  cpu time      2.1263: real time      2.1368
    STRESS:  cpu time      7.9972: real time      8.0796
    FORCOR:  cpu time      0.2167: real time      0.2179
    FORHAR:  cpu time      0.0252: real time      0.0253
    MIXING:  cpu time      0.0143: real time      0.0144
    OFIELD:  cpu time      0.0000: real time      0.0000

  FORCE on cell =-STRESS in cart. coord.  units (eV):
  Direction    XX          YY          ZZ          XY          YZ          ZX
  --------------------------------------------------------------------------------------
  Alpha Z     8.33974     8.33974     8.33974
  Ewald    3373.29064  3345.10788 -3833.91475     0.00000     0.00000    -0.00000
  Hartree  3464.04495  3452.40113 -3414.44945    -0.00000    -0.00000    -0.00000
  E(xc)     -70.25650   -70.27421   -70.89134    -0.00000     0.00000     0.00000
  Local   -7083.91140 -7047.40858  6996.27562    -0.00000     0.00000    -0.00000
  n-local   120.12183   119.81521   120.87750     0.43084     0.00000     0.00000
  augment    -5.65227    -5.87479    -6.08112     0.00000    -0.00002     0.00000
  Kinetic   194.43017   198.24380   199.02601     3.34409    -0.00000     0.00000
  Fock        0.00000     0.00000     0.00000     0.00000     0.00000     0.00000
  -------------------------------------------------------------------------------------
  Total       0.40715     0.35017    -0.81779     0.00000     0.00000     0.00000
  in kB       1.28427     1.10453    -2.57951     0.00000     0.00000     0.00000
  external pressure =       -0.06 kB  Pullay stress =        0.00 kB


 VOLUME and BASIS-vectors are now :
 -----------------------------------------------------------------------------
  energy-cutoff  :      520.00
  volume of cell :      507.94
      direct lattice vectors                 reciprocal lattice vectors
     3.858100176  0.000000000  0.000000000     0.259194929  0.000000000  0.000000000
     0.000000000  4.526575088  0.000000000     0.000000000  0.220917577  0.000000000
     0.000000000  0.000000000 29.085176468     0.000000000  0.000000000  0.034381775

  length of vectors
     3.858100176  4.526575088 29.085176468     0.259194929  0.220917577  0.034381775


 FORCES acting on ions
    electron-ion (+dipol)            ewald-force                    non-local-force                 convergence-correction
 -----------------------------------------------------------------------------------------------
   0.384E-09 0.159E+02 0.192E+03   0.206E-08 -.186E+02 -.196E+03   0.000E+00 0.254E+01 0.364E+01   0.277E-14 0.145E-06 -.557E-04
   -.408E-08 0.159E+02 -.192E+03   -.206E-08 -.186E+02 0.196E+03   0.000E+00 0.254E+01 -.364E+01   -.194E-14 0.145E-06 0.557E-04
   -.197E-07 -.170E+02 0.231E+03   -.238E-08 0.186E+02 -.233E+03   0.000E+00 -.149E+01 0.185E+01   0.111E-15 -.538E-05 -.595E-04
   0.417E-09 -.170E+02 -.231E+03   0.238E-08 0.186E+02 0.233E+03   0.000E+00 -.149E+01 -.185E+01   0.655E-14 -.538E-05 0.595E-04
 -----------------------------------------------------------------------------------------------
   -.230E-07 -.210E+01 -.624E-04   0.312E-14 0.000E+00 0.000E+00   0.000E+00 0.210E+01 0.222E-15   0.749E-14 -.105E-04 0.361E-10
 
 
 POSITION                                       TOTAL-FORCE (eV/Angst)
 -----------------------------------------------------------------------------------
      0.96453      0.52346      1.36947        -0.000000     -0.082579      0.271936
      2.89358      2.78675      4.17312        -0.000000     -0.082579     -0.271936
      2.89358      2.24089      1.63362        -0.000000      0.082579      0.023474
      0.96453      4.50417      3.90897         0.000000      0.082579     -0.023474
 -----------------------------------------------------------------------------------
    total drift:                               -0.000000     -0.000214     -0.000062


--------------------------------------------------------------------------------------------------------



  FREE ENERGIE OF THE ION-ELECTRON SYSTEM (eV)
  ---------------------------------------------------
  free  energy   TOTEN  =       -16.75987163 eV

  energy  without entropy=      -16.75987163  energy(sigma->0) =      -16.75987163
 


--------------------------------------------------------------------------------------------------------


    POTLOK:  cpu time      1.3308: real time      1.3351


--------------------------------------------------------------------------------------------------------


 writing wavefunctions
     LOOP+:  cpu time   1121.2402: real time   1143.7330
    4ORBIT:  cpu time      0.0000: real time      0.0000



 total charge

# of ion       s       p       d       tot
------------------------------------------
    1        1.318   0.790   0.051   2.158
    2        1.318   0.790   0.051   2.158
    3        1.472   2.313   0.029   3.813
    4        1.472   2.313   0.029   3.813
--------------------------------------------------
tot          5.579   6.205   0.159  11.943



 magnetization (x)

# of ion       s       p       d       tot
------------------------------------------
    1       -0.000  -0.000  -0.000  -0.000
    2       -0.000  -0.000  -0.000  -0.000
    3        0.000   0.000  -0.000   0.000
    4        0.000   0.000  -0.000   0.000
--------------------------------------------------
tot         -0.000   0.000  -0.000   0.000
 

 total amount of memory used by VASP MPI-rank0   354806. kBytes
=======================================================================

   base      :      30000. kBytes
   nonl-proj :      92574. kBytes
   fftplans  :       5071. kBytes
   grid      :      28687. kBytes
   one-center:         64. kBytes
   wavefun   :     198410. kBytes
 
  
  
 General timing and accounting informations for this job:
 ========================================================
  
                  Total CPU time used (sec):     1137.594
                            User time (sec):     1115.164
                          System time (sec):       22.430
                         Elapsed time (sec):     1161.019
  
                   Maximum memory used (kb):      523676.
                   Average memory used (kb):          N/A
  
                          Minor page faults:       404224
                          Major page faults:           74
                 Voluntary context switches:       194667
