 running  128 mpi-ranks, with    1 threads/rank, on    2 nodes
 distrk:  each k-point on   64 cores,    2 groups
 distr:  one band on    8 cores,    8 groups
 vasp.6.4.2 20Jul23 (build Oct 12 2023 10:31:02) complex                         
 POSCAR found type information on POSCAR GeSe
 POSCAR found :  2 types and      72 ions
 Reading from existing POTCAR
 -----------------------------------------------------------------------------
|                                                                             |
|           W    W    AA    RRRRR   N    N  II  N    N   GGGG   !!!           |
|           W    W   A  A   R    R  NN   N  II  NN   N  G    G  !!!           |
|           W    W  A    A  R    R  N N  N  II  N N  N  G       !!!           |
|           W WW W  AAAAAA  RRRRR   N  N N  II  N  N N  G  GGG   !            |
|           WW  WW  A    A  R   R   N   NN  II  N   NN  G    G                |
|           W    W  A    A  R    R  N    N  II  N    N   GGGG   !!!           |
|                                                                             |
|     You use a magnetic or noncollinear calculation, but did not specify     |
|     the initial magnetic moment with the MAGMOM tag. Note that a            |
|     default of 1 will be used for all atoms. This ferromagnetic setup       |
|     may break the symmetry of the crystal, in particular it may rule        |
|     out finding an antiferromagnetic solution. Thence, we recommend         |
|     setting the initial magnetic moment manually or verifying carefully     |
|     that this magnetic setup is desired.                                    |
|                                                                             |
 -----------------------------------------------------------------------------

 scaLAPACK will be used
 Reading from existing POTCAR
 -----------------------------------------------------------------------------
|                                                                             |
|               ----> ADVICE to this user running VASP <----                  |
|                                                                             |
|     You have a (more or less) 'large supercell' and for larger cells it     |
|     might be more efficient to use real-space projection operators.         |
|     Therefore, try LREAL= Auto in the INCAR file.                           |
|     Mind: For very accurate calculation, you might also keep the            |
|     reciprocal projection scheme (i.e. LREAL=.FALSE.).                      |
|                                                                             |
 -----------------------------------------------------------------------------

 LDA part: xc-table for Pade appr. of Perdew
 -----------------------------------------------------------------------------
|                                                                             |
|           W    W    AA    RRRRR   N    N  II  N    N   GGGG   !!!           |
|           W    W   A  A   R    R  NN   N  II  NN   N  G    G  !!!           |
|           W    W  A    A  R    R  N N  N  II  N N  N  G       !!!           |
|           W WW W  AAAAAA  RRRRR   N  N N  II  N  N N  G  GGG   !            |
|           WW  WW  A    A  R   R   N   NN  II  N   NN  G    G                |
|           W    W  A    A  R    R  N    N  II  N    N   GGGG   !!!           |
|                                                                             |
|     The number of bands has been changed from the values supplied in        |
|     the INCAR file. This is a result of running the parallel version.       |
|     The orbitals not found in the WAVECAR file will be initialized with     |
|     random numbers, which is usually adequate. For correlated               |
|     calculations, however, you should redo the groundstate calculation.     |
|     I found NBANDS = 220. Now, NBANDS = 224.                                |
|                                                                             |
 -----------------------------------------------------------------------------

 POSCAR, INCAR and KPOINTS ok, starting setup
 FFT: planning ... GRIDC
 FFT: planning ... GRID_SOFT
 FFT: planning ... GRID
 WAVECAR not read
 WARNING: random wavefunctions but no delay for mixing, default for NELMDL
 entering main loop
       N       E                     dE             d eps       ncg     rms          rms(c)
DAV:   1     0.181662463485E+04    0.18166E+04   -0.14191E+05  7168   0.135E+03
DAV:   2    -0.642923760989E+02   -0.18809E+04   -0.18068E+04  8480   0.205E+02
DAV:   3    -0.281554268640E+03   -0.21726E+03   -0.21122E+03  8560   0.691E+01
DAV:   4    -0.289439559064E+03   -0.78853E+01   -0.77936E+01  8704   0.130E+01
DAV:   5    -0.289741609512E+03   -0.30205E+00   -0.30123E+00  9136   0.215E+00    0.292E+01
DAV:   6    -0.289270400730E+03    0.47121E+00   -0.26753E+01  7912   0.763E+00    0.173E+01
DAV:   7    -0.296740317690E+03   -0.74699E+01   -0.87199E+00  8008   0.449E+00    0.908E+00
DAV:   8    -0.299946165747E+03   -0.32058E+01   -0.17404E+00  8224   0.225E+00    0.333E+00
DAV:   9    -0.300319605445E+03   -0.37344E+00   -0.42131E-01  9032   0.100E+00    0.149E+00
DAV:  10    -0.300428206849E+03   -0.10860E+00   -0.98236E-02  8192   0.470E-01    0.729E-01
DAV:  11    -0.300459324851E+03   -0.31118E-01   -0.35083E-02  8760   0.279E-01    0.286E-01
DAV:  12    -0.300462790509E+03   -0.34657E-02   -0.47460E-03  8640   0.119E-01    0.101E-01
DAV:  13    -0.300462894388E+03   -0.10388E-03   -0.54688E-04  9808   0.367E-02    0.408E-02
DAV:  14    -0.300462907086E+03   -0.12697E-04   -0.84541E-05  8296   0.181E-02    0.159E-02
DAV:  15    -0.300462909939E+03   -0.28535E-05   -0.14297E-05  8616   0.843E-03    0.738E-03
DAV:  16    -0.300462910732E+03   -0.79338E-06   -0.13664E-06  4832   0.260E-03
   1 F= -.30046291E+03 E0= -.30046291E+03  d E =-.176691E-12  mag=     0.0005
