 running  128 mpi-ranks, with    1 threads/rank, on    2 nodes
 distrk:  each k-point on   64 cores,    2 groups
 distr:  one band on    4 cores,   16 groups
 vasp.6.4.2 20Jul23 (build Oct 12 2023 10:31:02) complex                         
 POSCAR found type information on POSCAR GeSe
 POSCAR found :  2 types and       8 ions
 Reading from existing POTCAR
 scaLAPACK will be used
 Reading from existing POTCAR
 LDA part: xc-table for Pade appr. of Perdew
 POSCAR, INCAR and KPOINTS ok, starting setup
 FFT: planning ... GRIDC
 FFT: planning ... GRID_SOFT
 FFT: planning ... GRID
 WAVECAR not read
 entering main loop
       N       E                     dE             d eps       ncg     rms          rms(c)
DAV:   1     0.130170640170E+03    0.13017E+03   -0.12900E+04  2560   0.774E+02
DAV:   2    -0.255764970207E+02   -0.15575E+03   -0.15152E+03  3776   0.138E+02
DAV:   3    -0.341700636253E+02   -0.85936E+01   -0.85769E+01  3136   0.377E+01
DAV:   4    -0.342274875942E+02   -0.57424E-01   -0.57418E-01  3344   0.354E+00
DAV:   5    -0.342278376029E+02   -0.35001E-03   -0.35000E-03  3152   0.267E-01    0.630E+00
DAV:   6    -0.338141069382E+02    0.41373E+00   -0.85086E-01  3104   0.309E+00    0.395E+00
DAV:   7    -0.338037437984E+02    0.10363E-01   -0.24011E-01  3008   0.173E+00    0.136E+00
DAV:   8    -0.338025341657E+02    0.12096E-02   -0.23964E-02  3040   0.586E-01    0.176E-01
DAV:   9    -0.338027011324E+02   -0.16697E-03   -0.36661E-03  3168   0.261E-01    0.659E-02
DAV:  10    -0.338027822245E+02   -0.81092E-04   -0.31244E-04  2944   0.774E-02    0.238E-02
DAV:  11    -0.338028025842E+02   -0.20360E-04   -0.36146E-05  3024   0.276E-02    0.128E-02
DAV:  12    -0.338028024295E+02    0.15474E-06   -0.54191E-06  3232   0.986E-03
   1 F= -.33802802E+02 E0= -.33802802E+02  d E =-.140864E-12
