 running  128 mpi-ranks, with    1 threads/rank, on    2 nodes
 distrk:  each k-point on   64 cores,    2 groups
 distr:  one band on    4 cores,   16 groups
 vasp.6.4.2 20Jul23 (build Oct 12 2023 10:31:02) complex                         
 POSCAR found type information on POSCAR GeSe
 POSCAR found :  2 types and       8 ions
 Reading from existing POTCAR
 scaLAPACK will be used
 Reading from existing POTCAR
 LDA part: xc-table for Pade appr. of Perdew
 POSCAR, INCAR and KPOINTS ok, starting setup
 FFT: planning ... GRIDC
 FFT: planning ... GRID_SOFT
 FFT: planning ... GRID
 WAVECAR not read
 entering main loop
       N       E                     dE             d eps       ncg     rms          rms(c)
DAV:   1     0.130489665588E+03    0.13049E+03   -0.12905E+04  2560   0.776E+02
DAV:   2    -0.256716953411E+02   -0.15616E+03   -0.15163E+03  3760   0.139E+02
DAV:   3    -0.341530564482E+02   -0.84814E+01   -0.84649E+01  3328   0.376E+01
DAV:   4    -0.342067195790E+02   -0.53663E-01   -0.53658E-01  3152   0.342E+00
DAV:   5    -0.342070460679E+02   -0.32649E-03   -0.32648E-03  3360   0.260E-01    0.641E+00
DAV:   6    -0.338215343371E+02    0.38551E+00   -0.77449E-01  3056   0.298E+00    0.402E+00
DAV:   7    -0.338117730651E+02    0.97613E-02   -0.23653E-01  3136   0.172E+00    0.129E+00
DAV:   8    -0.338100042236E+02    0.17688E-02   -0.24685E-02  2928   0.588E-01    0.174E-01
DAV:   9    -0.338101951719E+02   -0.19095E-03   -0.34620E-03  3152   0.256E-01    0.642E-02
DAV:  10    -0.338102533604E+02   -0.58188E-04   -0.25027E-04  2992   0.693E-02    0.240E-02
DAV:  11    -0.338102747176E+02   -0.21357E-04   -0.33943E-05  2992   0.270E-02    0.126E-02
DAV:  12    -0.338102743888E+02    0.32889E-06   -0.44089E-06  3184   0.886E-03
   1 F= -.33810274E+02 E0= -.33810274E+02  d E =-.200064E-10
