 vasp.6.4.2 20Jul23 (build Oct 12 2023 10:31:02) complex                         
 executed on              LinuxNV date 2025.05.28  10:43:27
 running  128 mpi-ranks, with    1 threads/rank, on    2 nodes
 distrk:  each k-point on   64 cores,    2 groups
 distr:  one band on NCORE=   4 cores,   16 groups


--------------------------------------------------------------------------------------------------------


 INCAR:
   ENCUT = 360.000000
   SIGMA = 0.050000
   EDIFF = 1.00e-06
   ALGO = Normal
   GGA = PE
   PREC = Normal
   SYSTEM = ./
   ICHARG = 2
   ISMEAR = 0
   ISPIN = 1
   ISTART = 0
   ISYM = 0
   KPAR = 2
   LMAXMIX = 4
   NELM = 100
   NPAR = 16
   LASPH = .TRUE.
   LCHARG = .FALSE.
   LWAVE = .FALSE.

 POTCAR:    PAW_PBE Ge 05Jan2001                  
 POTCAR:    PAW_PBE Se 06Sep2000                  
 POTCAR:    PAW_PBE Ge 05Jan2001                  
   VRHFIN =Ge: s2p2                                                                                 
   LEXCH  = PE                                                                                      
   EATOM  =   104.9960 eV,    7.7170 Ry                                                             
                                                                                                    
   TITEL  = PAW_PBE Ge 05Jan2001                                                                    
   LULTRA =        F    use ultrasoft PP ?                                                          
   IUNSCR =        1    unscreen: 0-lin 1-nonlin 2-no                                               
   RPACOR =    2.170    partial core radius                                                         
   POMASS =   72.610; ZVAL   =    4.000    mass and valenz                                          
   RCORE  =    2.300    outmost cutoff radius                                                       
   RWIGS  =    2.300; RWIGS  =    1.217    wigner-seitz radius (au A)                               
   ENMAX  =  173.807; ENMIN  =  130.355 eV                                                          
   ICORE  =        3    local potential                                                             
   LCOR   =        T    correct aug charges                                                         
   LPAW   =        T    paw PP                                                                      
   EAUG   =  385.843                                                                                
   DEXC   =    0.000                                                                                
   RMAX   =    2.342    core radius for proj-oper                                                   
   RAUG   =    1.300    factor for augmentation sphere                                              
   RDEP   =    2.318    radius for radial grids                                                     
   RDEPT  =    2.103    core radius for aug-charge                                                  
                                                                                                    
   Atomic configuration                                                                             
   10 entries                                                                                       
     n  l   j            E        occ.                                                              
     1  0  0.50    -10959.8463   2.0000                                                             
     2  0  0.50     -1371.6056   2.0000                                                             
     2  1  1.50     -1198.4791   6.0000                                                             
     3  0  0.50      -168.4733   2.0000                                                             
     3  1  1.50      -115.6019   6.0000                                                             
     3  2  2.50       -29.3106  10.0000                                                             
     4  0  0.50       -11.7309   2.0000                                                             
     4  1  0.50        -3.8952   2.0000                                                             
     4  2  1.50        -4.0817   0.0000                                                             
     4  3  2.50        -4.0817   0.0000                                                             
   Description                                                                                      
     l       E           TYP  RCUT    TYP  RCUT                                                     
     0    -11.7309493     23  2.300                                                                 
     0     -7.4578696     23  2.300                                                                 
     1     -3.8952261     23  2.300                                                                 
     1      6.1178114     23  2.300                                                                 
     2     -4.0817478     23  2.300                                                                 
     3     -1.3605826      7  2.300                                                                 
  local pseudopotential read in
  partial core-charges read in
  partial kinetic energy density read in
  atomic valenz-charges read in
  non local Contribution for L=            0  read in
    real space projection operators read in
  non local Contribution for L=            0  read in
    real space projection operators read in
  non local Contribution for L=            1  read in
    real space projection operators read in
  non local Contribution for L=            1  read in
    real space projection operators read in
  non local Contribution for L=            2  read in
    real space projection operators read in
    PAW grid and wavefunctions read in
 
   number of l-projection  operators is LMAX  =            5
   number of lm-projection operators is LMMAX =           13
 
 POTCAR:    PAW_PBE Se 06Sep2000                  
   VRHFIN =Se: s2p4                                                                                 
   LEXCH  = PE                                                                                      
   EATOM  =   257.1286 eV,   18.8984 Ry                                                             
                                                                                                    
   TITEL  = PAW_PBE Se 06Sep2000                                                                    
   LULTRA =        F    use ultrasoft PP ?                                                          
   IUNSCR =        1    unscreen: 0-lin 1-nonlin 2-no                                               
   RPACOR =    1.900    partial core radius                                                         
   POMASS =   78.960; ZVAL   =    6.000    mass and valenz                                          
   RCORE  =    2.100    outmost cutoff radius                                                       
   RWIGS  =    2.200; RWIGS  =    1.164    wigner-seitz radius (au A)                               
   ENMAX  =  211.555; ENMIN  =  158.666 eV                                                          
   ICORE  =        3    local potential                                                             
   LCOR   =        T    correct aug charges                                                         
   LPAW   =        T    paw PP                                                                      
   EAUG   =  446.842                                                                                
   DEXC   =    0.000                                                                                
   RMAX   =    2.147    core radius for proj-oper                                                   
   RAUG   =    1.300    factor for augmentation sphere                                              
   RDEP   =    2.177    radius for radial grids                                                     
   RDEPT  =    1.928    core radius for aug-charge                                                  
                                                                                                    
   Atomic configuration                                                                             
   10 entries                                                                                       
     n  l   j            E        occ.                                                              
     1  0  0.50    -12503.4787   2.0000                                                             
     2  0  0.50     -1606.9547   2.0000                                                             
     2  1  1.50     -1413.3140   6.0000                                                             
     3  0  0.50      -213.4885   2.0000                                                             
     3  1  1.50      -152.9538   6.0000                                                             
     3  2  2.50       -53.1221  10.0000                                                             
     4  0  0.50       -17.2865   2.0000                                                             
     4  1  0.50        -6.5110   4.0000                                                             
     4  2  2.50        -6.8029   0.0000                                                             
     4  3  2.50        -6.8029   0.0000                                                             
   Description                                                                                      
     l       E           TYP  RCUT    TYP  RCUT                                                     
     0    -17.2865377     23  2.100                                                                 
     0    -15.3094411     23  2.100                                                                 
     1     -6.5110275     23  2.100                                                                 
     1     -0.0695192     23  2.100                                                                 
     2     -6.8029130     23  2.100                                                                 
     3     -1.3605826      7  2.100                                                                 
  local pseudopotential read in
  partial core-charges read in
  partial kinetic energy density read in
  atomic valenz-charges read in
  non local Contribution for L=            0  read in
    real space projection operators read in
  non local Contribution for L=            0  read in
    real space projection operators read in
  non local Contribution for L=            1  read in
    real space projection operators read in
  non local Contribution for L=            1  read in
    real space projection operators read in
  non local Contribution for L=            2  read in
    real space projection operators read in
    PAW grid and wavefunctions read in
 
   number of l-projection  operators is LMAX  =            5
   number of lm-projection operators is LMMAX =           13
 
  PAW_PBE Ge 05Jan2001                  :
 energy of atom  1       EATOM= -104.9960
 kinetic energy error for atom=    0.0005 (will be added to EATOM!!)
  PAW_PBE Se 06Sep2000                  :
 energy of atom  2       EATOM= -257.1286
 kinetic energy error for atom=    0.0030 (will be added to EATOM!!)
 
 
 POSCAR: Ge Se
  positions in cartesian coordinates
  No initial velocities read in
 exchange correlation table for  LEXCH =        8
   RHO(1)=    0.500       N(1)  =     2000
   RHO(2)=  100.500       N(2)  =     4000
 


--------------------------------------------------------------------------------------------------------


 ion  position               nearest neighbor table
   1  0.000  0.250  0.142-   5 2.47
   2  0.500  0.750  0.358-   6 2.47
   3  0.000  0.750  0.858-   7 2.47
   4  0.500  0.250  0.642-   8 2.47
   5  0.000  0.250  0.364-   1 2.47
   6  0.500  0.750  0.136-   2 2.47
   7  0.000  0.750  0.636-   3 2.47
   8  0.500  0.250  0.864-   4 2.47
 

IMPORTANT INFORMATION: All symmetrisations will be switched off!
NOSYMM: (Re-)initialisation of all symmetry stuff for point group C_1.


----------------------------------------------------------------------------------------

                                     Primitive cell                                     

  volume of cell :     210.8387

  direct lattice vectors                    reciprocal lattice vectors
     4.350000000  0.000000000  0.000000000     0.229885057  0.000000000  0.000000000
     0.000000000  4.350000000  0.000000000     0.000000000  0.229885057  0.000000000
     0.000000000  0.000000000 11.142221000     0.000000000  0.000000000  0.089748713

  length of vectors
     4.350000000  4.350000000 11.142221000     0.229885057  0.229885057  0.089748713

  position of ions in fractional coordinates (direct lattice)
     0.000000000  0.250000000  0.141827810
     0.500000000  0.750000000  0.358172190
     0.000000000  0.750000000  0.858172190
     0.500000000  0.250000000  0.641827810
     0.000000000  0.250000000  0.363849406
     0.500000000  0.750000000  0.136150594
     0.000000000  0.750000000  0.636150594
     0.500000000  0.250000000  0.863849406

  ion indices of the primitive-cell ions
   primitive index   ion index
                 1           1
                 2           2
                 3           3
                 4           4
                 5           5
                 6           6
                 7           7
                 8           8

----------------------------------------------------------------------------------------

 
 
 KPOINTS: KPOINTS created by Atomic Simulation Env

Automatic generation of k-mesh.
 Grid dimensions read from file:
 generate k-points for:    6    6    2

 Generating k-lattice:

  Cartesian coordinates                     Fractional coordinates (reciprocal lattice)
     0.038314176  0.000000000  0.000000000     0.166666667  0.000000000  0.000000000
     0.000000000  0.038314176  0.000000000     0.000000000  0.166666667  0.000000000
     0.000000000  0.000000000  0.044874357     0.000000000  0.000000000  0.500000000

  Length of vectors
     0.038314176  0.038314176  0.044874357

  Shift w.r.t. Gamma in fractional coordinates (k-lattice)
     0.000000000  0.000000000  0.000000000

 
 Subroutine IBZKPT returns following result:
 ===========================================
 
 Found     40 irreducible k-points:
 
 Following reciprocal coordinates:
            Coordinates               Weight
  0.000000  0.000000  0.000000      1.000000
  0.166667  0.000000  0.000000      2.000000
  0.000000  0.166667  0.000000      2.000000
  0.333333  0.000000  0.000000      2.000000
  0.000000  0.333333  0.000000      2.000000
  0.500000  0.000000  0.000000      1.000000
  0.000000  0.500000  0.000000      1.000000
  0.166667  0.166667  0.000000      2.000000
 -0.166667  0.166667  0.000000      2.000000
  0.333333  0.166667  0.000000      2.000000
 -0.166667  0.333333  0.000000      2.000000
 -0.333333  0.166667  0.000000      2.000000
  0.166667  0.333333  0.000000      2.000000
  0.500000  0.166667  0.000000      2.000000
 -0.166667  0.500000  0.000000      2.000000
  0.333333  0.333333  0.000000      2.000000
 -0.333333  0.333333  0.000000      2.000000
  0.500000  0.333333  0.000000      2.000000
 -0.333333  0.500000  0.000000      2.000000
  0.500000  0.500000  0.000000      1.000000
  0.000000  0.000000  0.500000      1.000000
  0.166667  0.000000  0.500000      2.000000
  0.000000  0.166667  0.500000      2.000000
  0.333333  0.000000  0.500000      2.000000
  0.000000  0.333333  0.500000      2.000000
  0.500000  0.000000  0.500000      1.000000
  0.000000  0.500000  0.500000      1.000000
  0.166667  0.166667  0.500000      2.000000
 -0.166667  0.166667  0.500000      2.000000
  0.333333  0.166667  0.500000      2.000000
 -0.166667  0.333333  0.500000      2.000000
 -0.333333  0.166667  0.500000      2.000000
  0.166667  0.333333  0.500000      2.000000
  0.500000  0.166667  0.500000      2.000000
 -0.166667  0.500000  0.500000      2.000000
  0.333333  0.333333  0.500000      2.000000
 -0.333333  0.333333  0.500000      2.000000
  0.500000  0.333333  0.500000      2.000000
 -0.333333  0.500000  0.500000      2.000000
  0.500000  0.500000  0.500000      1.000000
 
 Following cartesian coordinates:
            Coordinates               Weight
  0.000000  0.000000  0.000000      1.000000
  0.038314  0.000000  0.000000      2.000000
  0.000000  0.038314  0.000000      2.000000
  0.076628  0.000000  0.000000      2.000000
  0.000000  0.076628  0.000000      2.000000
  0.114943  0.000000  0.000000      1.000000
  0.000000  0.114943  0.000000      1.000000
  0.038314  0.038314  0.000000      2.000000
 -0.038314  0.038314  0.000000      2.000000
  0.076628  0.038314  0.000000      2.000000
 -0.038314  0.076628  0.000000      2.000000
 -0.076628  0.038314  0.000000      2.000000
  0.038314  0.076628  0.000000      2.000000
  0.114943  0.038314  0.000000      2.000000
 -0.038314  0.114943  0.000000      2.000000
  0.076628  0.076628  0.000000      2.000000
 -0.076628  0.076628  0.000000      2.000000
  0.114943  0.076628  0.000000      2.000000
 -0.076628  0.114943  0.000000      2.000000
  0.114943  0.114943  0.000000      1.000000
  0.000000  0.000000  0.044874      1.000000
  0.038314  0.000000  0.044874      2.000000
  0.000000  0.038314  0.044874      2.000000
  0.076628  0.000000  0.044874      2.000000
  0.000000  0.076628  0.044874      2.000000
  0.114943  0.000000  0.044874      1.000000
  0.000000  0.114943  0.044874      1.000000
  0.038314  0.038314  0.044874      2.000000
 -0.038314  0.038314  0.044874      2.000000
  0.076628  0.038314  0.044874      2.000000
 -0.038314  0.076628  0.044874      2.000000
 -0.076628  0.038314  0.044874      2.000000
  0.038314  0.076628  0.044874      2.000000
  0.114943  0.038314  0.044874      2.000000
 -0.038314  0.114943  0.044874      2.000000
  0.076628  0.076628  0.044874      2.000000
 -0.076628  0.076628  0.044874      2.000000
  0.114943  0.076628  0.044874      2.000000
 -0.076628  0.114943  0.044874      2.000000
  0.114943  0.114943  0.044874      1.000000
 


--------------------------------------------------------------------------------------------------------




 Dimension of arrays:
   k-points           NKPTS =     40   k-points in BZ     NKDIM =     40   number of bands    NBANDS=     32
   number of dos      NEDOS =    301   number of ions     NIONS =      8
   non local maximal  LDIM  =      5   non local SUM 2l+1 LMDIM =     13
   total plane-waves  NPLWV =  21600
   max r-space proj   IRMAX =      1   max aug-charges    IRDMAX=   5767
   dimension x,y,z NGX =    20 NGY =   20 NGZ =   54
   dimension x,y,z NGXF=    40 NGYF=   40 NGZF=  108
   support grid    NGXF=    40 NGYF=   40 NGZF=  108
   ions per type =               4   4
   NGX,Y,Z   is equivalent  to a cutoff of   7.64,  7.64,  8.06 a.u.
   NGXF,Y,Z  is equivalent  to a cutoff of  15.29, 15.29, 16.11 a.u.

 SYSTEM =  ./                                      
 POSCAR =  Ge Se                                   

 Startparameter for this run:
   NWRITE =      2    write-flag & timer
   PREC   = normal    normal or accurate (medium, high low for compatibility)
   ISTART =      0    job   : 0-new  1-cont  2-samecut
   ICHARG =      2    charge: 1-file 2-atom 10-const
   ISPIN  =      1    spin polarized calculation?
   LNONCOLLINEAR =      F non collinear calculations
   LSORBIT =      F    spin-orbit coupling
   INIWAV =      1    electr: 0-lowe 1-rand  2-diag
   LASPH  =      T    aspherical Exc in radial PAW
 Electronic Relaxation 1
   ENCUT  =  360.0 eV  26.46 Ry    5.14 a.u.   6.73  6.73 17.24*2*pi/ulx,y,z
   ENINI  =  360.0     initial cutoff
   ENAUG  =  446.8 eV  augmentation charge cutoff
   NELM   =    100;   NELMIN=  2; NELMDL= -5     # of ELM steps 
   EDIFF  = 0.1E-05   stopping-criterion for ELM
   LREAL  =      F    real-space projection
   NLSPLINE    = F    spline interpolate recip. space projectors
   LCOMPAT=      F    compatible to vasp.4.4
   GGA_COMPAT  = T    GGA compatible to vasp.4.4-vasp.4.6
   LMAXPAW     = -100 max onsite density
   LMAXMIX     =    4 max onsite mixed and CHGCAR
   VOSKOWN=      0    Vosko Wilk Nusair interpolation
   ROPT   =    0.00000   0.00000
 Ionic relaxation
   EDIFFG = 0.1E-04   stopping-criterion for IOM
   NSW    =      0    number of steps for IOM
   NBLOCK =      1;   KBLOCK =      1    inner block; outer block 
   IBRION =     -1    ionic relax: 0-MD 1-quasi-New 2-CG
   NFREE  =      0    steps in history (QN), initial steepest desc. (CG)
   ISIF   =      2    stress and relaxation
   IWAVPR =     10    prediction:  0-non 1-charg 2-wave 3-comb
   ISYM   =      0    0-nonsym 1-usesym 2-fastsym
   LCORR  =      T    Harris-Foulkes like correction to forces

   POTIM  = 0.5000    time-step for ionic-motion
   TEIN   =    0.0    initial temperature
   TEBEG  =    0.0;   TEEND  =   0.0 temperature during run
   SMASS  =  -3.00    Nose mass-parameter (am)
   estimated Nose-frequenzy (Omega)   =  0.10E-29 period in steps = 0.13E+47 mass=  -0.432E-27a.u.
   SCALEE = 1.0000    scale energy and forces
   NPACO  =    256;   APACO  = 10.0  distance and # of slots for P.C.
   PSTRESS=    0.0 pullay stress

  Mass of Ions in am
   POMASS =  72.61 78.96
  Ionic Valenz
   ZVAL   =   4.00  6.00
  Atomic Wigner-Seitz radii
   RWIGS  =  -1.00 -1.00
  virtual crystal weights 
   VCA    =   1.00  1.00
   NELECT =      40.0000    total number of electrons
   NUPDOWN=      -1.0000    fix difference up-down

 DOS related values:
   EMIN   =  10.00;   EMAX   =-10.00  energy-range for DOS
   EFERMI =   0.00;   METHOD = LEGACY      
   ISMEAR =     0;   SIGMA  =   0.05  broadening in eV -4-tet -1-fermi 0-gaus

 Electronic relaxation 2 (details)
   IALGO  =     38    algorithm
   LDIAG  =      T    sub-space diagonalisation (order eigenvalues)
   LSUBROT=      F    optimize rotation matrix (better conditioning)
   TURBO    =      0    0=normal 1=particle mesh
   IRESTART =      0    0=no restart 2=restart with 2 vectors
   NREBOOT  =      0    no. of reboots
   NMIN     =      0    reboot dimension
   EREF     =   0.00    reference energy to select bands
   IMIX   =      4    mixing-type and parameters
     AMIX     =   0.40;   BMIX     =  1.00
     AMIX_MAG =   1.60;   BMIX_MAG =  1.00
     AMIN     =   0.10
     WC   =   100.;   INIMIX=   1;  MIXPRE=   1;  MAXMIX= -45

 Intra band minimization:
   WEIMIN = 0.0000     energy-eigenvalue tresh-hold
   EBREAK =  0.78E-08  absolut break condition
   DEPER  =   0.30     relativ break condition  

   TIME   =   0.40     timestep for ELM

  volume/ion in A,a.u.               =      26.35       177.85
  Fermi-wavevector in a.u.,A,eV,Ry     =   0.940686  1.777639 12.039664  0.884890
  Thomas-Fermi vector in A             =   2.068123
 
 Write flags
   LWAVE        =      F    write WAVECAR
   LDOWNSAMPLE  =      F    k-point downsampling of WAVECAR
   LCHARG       =      F    write CHGCAR
   LVTOT        =      F    write LOCPOT, total local potential
   LVHAR        =      F    write LOCPOT, Hartree potential only
   LELF         =      F    write electronic localiz. function (ELF)
   LORBIT       =      0    0 simple, 1 ext, 2 COOP (PROOUT), +10 PAW based schemes


 Dipole corrections
   LMONO  =      F    monopole corrections only (constant potential shift)
   LDIPOL =      F    correct potential (dipole corrections)
   IDIPOL =      0    1-x, 2-y, 3-z, 4-all directions 
   EPSILON=  1.0000000 bulk dielectric constant

 Exchange correlation treatment:
   GGA     =    PE    GGA type
   LEXCH   =     8    internal setting for exchange type
   LIBXC   =     F    Libxc                    
   VOSKOWN =     0    Vosko Wilk Nusair interpolation
   LHFCALC =     F    Hartree Fock is set to
   LHFONE  =     F    Hartree Fock one center treatment
   AEXX    =    0.0000 exact exchange contribution

 Linear response parameters
   LEPSILON=     F    determine dielectric tensor
   LRPA    =     F    only Hartree local field effects (RPA)
   LNABLA  =     F    use nabla operator in PAW spheres
   LVEL    =     F    velocity operator in full k-point grid
   CSHIFT  =0.1000    complex shift for real part using Kramers Kronig
   OMEGAMAX=  -1.0    maximum frequency
   DEG_THRESHOLD= 0.2000000E-02 threshold for treating states as degnerate
   RTIME   =   -0.100 relaxation time in fs
  (WPLASMAI=    0.000 imaginary part of plasma frequency in eV, 0.658/RTIME)
   DFIELD  = 0.0000000 0.0000000 0.0000000 field for delta impulse in time
 
  Optional k-point grid parameters
   LKPOINTS_OPT  =     F    use optional k-point grid
   KPOINTS_OPT_MODE=     1    mode for optional k-point grid
 
 Orbital magnetization related:
   ORBITALMAG=     F  switch on orbital magnetization
   LCHIMAG   =     F  perturbation theory with respect to B field
   DQ        =  0.001000  dq finite difference perturbation B field
   LLRAUG    =     F  two centre corrections for induced B field
   LBONE     =     F  B-component reconstruction in AE one-centre
   LVGVCALC  =     T  calculate vGv susceptibility
   LVGVAPPL  =     F  apply vGv susceptibility instead of pGv for G=0

 Random number generation:
   RANDOM_GENERATOR = DEFAULT
   PCG_SEED         = not used


--------------------------------------------------------------------------------------------------------


 Static calculation
 charge density and potential will be updated during run
 non-spin polarized calculation
 Variant of blocked Davidson
 Davidson routine will perform the subspace rotation
 perform sub-space diagonalisation
    after iterative eigenvector-optimisation
 modified Broyden-mixing scheme, WC =      100.0
 initial mixing is a Kerker type mixing with AMIX =  0.4000 and BMIX =      1.0000
 Hartree-type preconditioning will be used
 using additional bands            12
 reciprocal scheme for non local part
 use partial core corrections
 calculate Harris-corrections to forces 
   (improved forces if not selfconsistent)
 use gradient corrections 
 use of overlap-Matrix (Vanderbilt PP)
 Gauss-broadening in eV      SIGMA  =   0.05


--------------------------------------------------------------------------------------------------------


  energy-cutoff  :      360.00
  volume of cell :      210.84
      direct lattice vectors                 reciprocal lattice vectors
     4.350000000  0.000000000  0.000000000     0.229885057  0.000000000  0.000000000
     0.000000000  4.350000000  0.000000000     0.000000000  0.229885057  0.000000000
     0.000000000  0.000000000 11.142221000     0.000000000  0.000000000  0.089748713

  length of vectors
     4.350000000  4.350000000 11.142221000     0.229885057  0.229885057  0.089748713


 
 k-points in units of 2pi/SCALE and weight: KPOINTS created by Atomic Simulation Env
   0.00000000  0.00000000  0.00000000       0.014
   0.03831418  0.00000000  0.00000000       0.028
   0.00000000  0.03831418  0.00000000       0.028
   0.07662835  0.00000000  0.00000000       0.028
   0.00000000  0.07662835  0.00000000       0.028
   0.11494253  0.00000000  0.00000000       0.014
   0.00000000  0.11494253  0.00000000       0.014
   0.03831418  0.03831418  0.00000000       0.028
  -0.03831418  0.03831418  0.00000000       0.028
   0.07662835  0.03831418  0.00000000       0.028
  -0.03831418  0.07662835  0.00000000       0.028
  -0.07662835  0.03831418  0.00000000       0.028
   0.03831418  0.07662835  0.00000000       0.028
   0.11494253  0.03831418  0.00000000       0.028
  -0.03831418  0.11494253  0.00000000       0.028
   0.07662835  0.07662835  0.00000000       0.028
  -0.07662835  0.07662835  0.00000000       0.028
   0.11494253  0.07662835  0.00000000       0.028
  -0.07662835  0.11494253  0.00000000       0.028
   0.11494253  0.11494253  0.00000000       0.014
   0.00000000  0.00000000  0.04487436       0.014
   0.03831418  0.00000000  0.04487436       0.028
   0.00000000  0.03831418  0.04487436       0.028
   0.07662835  0.00000000  0.04487436       0.028
   0.00000000  0.07662835  0.04487436       0.028
   0.11494253  0.00000000  0.04487436       0.014
   0.00000000  0.11494253  0.04487436       0.014
   0.03831418  0.03831418  0.04487436       0.028
  -0.03831418  0.03831418  0.04487436       0.028
   0.07662835  0.03831418  0.04487436       0.028
  -0.03831418  0.07662835  0.04487436       0.028
  -0.07662835  0.03831418  0.04487436       0.028
   0.03831418  0.07662835  0.04487436       0.028
   0.11494253  0.03831418  0.04487436       0.028
  -0.03831418  0.11494253  0.04487436       0.028
   0.07662835  0.07662835  0.04487436       0.028
  -0.07662835  0.07662835  0.04487436       0.028
   0.11494253  0.07662835  0.04487436       0.028
  -0.07662835  0.11494253  0.04487436       0.028
   0.11494253  0.11494253  0.04487436       0.014
 
 k-points in reciprocal lattice and weights: KPOINTS created by Atomic Simulation Env
   0.00000000  0.00000000  0.00000000       0.014
   0.16666667  0.00000000  0.00000000       0.028
   0.00000000  0.16666667  0.00000000       0.028
   0.33333333  0.00000000  0.00000000       0.028
   0.00000000  0.33333333  0.00000000       0.028
   0.50000000  0.00000000  0.00000000       0.014
   0.00000000  0.50000000  0.00000000       0.014
   0.16666667  0.16666667  0.00000000       0.028
  -0.16666667  0.16666667  0.00000000       0.028
   0.33333333  0.16666667  0.00000000       0.028
  -0.16666667  0.33333333  0.00000000       0.028
  -0.33333333  0.16666667  0.00000000       0.028
   0.16666667  0.33333333  0.00000000       0.028
   0.50000000  0.16666667  0.00000000       0.028
  -0.16666667  0.50000000  0.00000000       0.028
   0.33333333  0.33333333  0.00000000       0.028
  -0.33333333  0.33333333  0.00000000       0.028
   0.50000000  0.33333333  0.00000000       0.028
  -0.33333333  0.50000000  0.00000000       0.028
   0.50000000  0.50000000  0.00000000       0.014
   0.00000000  0.00000000  0.50000000       0.014
   0.16666667  0.00000000  0.50000000       0.028
   0.00000000  0.16666667  0.50000000       0.028
   0.33333333  0.00000000  0.50000000       0.028
   0.00000000  0.33333333  0.50000000       0.028
   0.50000000  0.00000000  0.50000000       0.014
   0.00000000  0.50000000  0.50000000       0.014
   0.16666667  0.16666667  0.50000000       0.028
  -0.16666667  0.16666667  0.50000000       0.028
   0.33333333  0.16666667  0.50000000       0.028
  -0.16666667  0.33333333  0.50000000       0.028
  -0.33333333  0.16666667  0.50000000       0.028
   0.16666667  0.33333333  0.50000000       0.028
   0.50000000  0.16666667  0.50000000       0.028
  -0.16666667  0.50000000  0.50000000       0.028
   0.33333333  0.33333333  0.50000000       0.028
  -0.33333333  0.33333333  0.50000000       0.028
   0.50000000  0.33333333  0.50000000       0.028
  -0.33333333  0.50000000  0.50000000       0.028
   0.50000000  0.50000000  0.50000000       0.014
 
 position of ions in fractional coordinates (direct lattice) 
   0.00000000  0.25000000  0.14182781
   0.50000000  0.75000000  0.35817219
   0.00000000  0.75000000  0.85817219
   0.50000000  0.25000000  0.64182781
   0.00000000  0.25000000  0.36384941
   0.50000000  0.75000000  0.13615059
   0.00000000  0.75000000  0.63615059
   0.50000000  0.25000000  0.86384941
 
 position of ions in cartesian coordinates  (Angst):
   0.00000000  1.08750000  1.58027680
   2.17500000  3.26250000  3.99083370
   0.00000000  3.26250000  9.56194420
   2.17500000  1.08750000  7.15138730
   0.00000000  1.08750000  4.05409049
   2.17500000  3.26250000  1.51702001
   0.00000000  3.26250000  7.08813051
   2.17500000  1.08750000  9.62520099
 


--------------------------------------------------------------------------------------------------------


 k-point   1 :   0.0000 0.0000 0.0000  plane waves:    3283
 k-point   2 :   0.1667 0.0000 0.0000  plane waves:    3279
 k-point   3 :   0.0000 0.1667 0.0000  plane waves:    3279
 k-point   4 :   0.3333 0.0000 0.0000  plane waves:    3278
 k-point   5 :   0.0000 0.3333 0.0000  plane waves:    3278
 k-point   6 :   0.5000 0.0000 0.0000  plane waves:    3246
 k-point   7 :   0.0000 0.5000 0.0000  plane waves:    3246
 k-point   8 :   0.1667 0.1667 0.0000  plane waves:    3281
 k-point   9 :  -0.1667 0.1667 0.0000  plane waves:    3281
 k-point  10 :   0.3333 0.1667 0.0000  plane waves:    3265
 k-point  11 :  -0.1667 0.3333 0.0000  plane waves:    3265
 k-point  12 :  -0.3333 0.1667 0.0000  plane waves:    3265
 k-point  13 :   0.1667 0.3333 0.0000  plane waves:    3265
 k-point  14 :   0.5000 0.1667 0.0000  plane waves:    3242
 k-point  15 :  -0.1667 0.5000 0.0000  plane waves:    3242
 k-point  16 :   0.3333 0.3333 0.0000  plane waves:    3268
 k-point  17 :  -0.3333 0.3333 0.0000  plane waves:    3268
 k-point  18 :   0.5000 0.3333 0.0000  plane waves:    3266
 k-point  19 :  -0.3333 0.5000 0.0000  plane waves:    3266
 k-point  20 :   0.5000 0.5000 0.0000  plane waves:    3308
 k-point  21 :   0.0000 0.0000 0.5000  plane waves:    3274
 k-point  22 :   0.1667 0.0000 0.5000  plane waves:    3276
 k-point  23 :   0.0000 0.1667 0.5000  plane waves:    3276
 k-point  24 :   0.3333 0.0000 0.5000  plane waves:    3272
 k-point  25 :   0.0000 0.3333 0.5000  plane waves:    3272
 k-point  26 :   0.5000 0.0000 0.5000  plane waves:    3272
 k-point  27 :   0.0000 0.5000 0.5000  plane waves:    3272
 k-point  28 :   0.1667 0.1667 0.5000  plane waves:    3274
 k-point  29 :  -0.1667 0.1667 0.5000  plane waves:    3274
 k-point  30 :   0.3333 0.1667 0.5000  plane waves:    3262
 k-point  31 :  -0.1667 0.3333 0.5000  plane waves:    3262
 k-point  32 :  -0.3333 0.1667 0.5000  plane waves:    3262
 k-point  33 :   0.1667 0.3333 0.5000  plane waves:    3262
 k-point  34 :   0.5000 0.1667 0.5000  plane waves:    3276
 k-point  35 :  -0.1667 0.5000 0.5000  plane waves:    3276
 k-point  36 :   0.3333 0.3333 0.5000  plane waves:    3266
 k-point  37 :  -0.3333 0.3333 0.5000  plane waves:    3266
 k-point  38 :   0.5000 0.3333 0.5000  plane waves:    3272
 k-point  39 :  -0.3333 0.5000 0.5000  plane waves:    3272
 k-point  40 :   0.5000 0.5000 0.5000  plane waves:    3296

 maximum and minimum number of plane-waves per node :       844      797

 maximum number of plane-waves:      3308
 maximum index in each direction: 
   IXMAX=    7   IYMAX=    6   IZMAX=   17
   IXMIN=   -7   IYMIN=   -7   IZMIN=  -17


 parallel 3D FFT for wavefunctions:
    minimum data exchange during FFTs selected (reduces bandwidth)
 parallel 3D FFT for charge:
    minimum data exchange during FFTs selected (reduces bandwidth)


 total amount of memory used by VASP MPI-rank0    39087. kBytes
=======================================================================

   base      :      30000. kBytes
   nonl-proj :       7163. kBytes
   fftplans  :        320. kBytes
   grid      :        462. kBytes
   one-center:         16. kBytes
   wavefun   :       1126. kBytes
 
     INWAV:  cpu time      0.0000: real time      0.0001
 Broyden mixing: mesh for mixing (old mesh)
   NGX = 13   NGY = 13   NGZ = 35
  (NGX  = 40   NGY  = 40   NGZ  =108)
  gives a total of   5915 points

 initial charge density was supplied:
 charge density of overlapping atoms calculated
 number of electron      40.0000000 magnetization 
 keeping initial charge density in first step


--------------------------------------------------------------------------------------------------------


 Maximum index for augmentation-charges           378 (set IRDMAX)


--------------------------------------------------------------------------------------------------------


 First call to EWALD:  gamma=   0.298
 Maximum number of real-space cells 4x 4x 2
 Maximum number of reciprocal cells 2x 2x 5

    FEWALD:  cpu time      0.0031: real time      0.0031


--------------------------------------- Ionic step        1  -------------------------------------------




--------------------------------------- Iteration      1(   1)  ---------------------------------------


    POTLOK:  cpu time      0.0091: real time      0.0094
    SETDIJ:  cpu time      0.1368: real time      0.1373
     EDDAV:  cpu time      0.2571: real time      0.2599
       DOS:  cpu time      0.0014: real time      0.0014
    --------------------------------------------
      LOOP:  cpu time      0.4044: real time      0.4081

 eigenvalue-minimisations  :  2560
 total energy-change (2. order) : 0.1287314E+03  (-0.1262072E+04)
 number of electron      40.0000000 magnetization 
 augmentation part       40.0000000 magnetization 

 Free energy of the ion-electron system (eV)
  ---------------------------------------------------
  alpha Z        PSCENC =        80.36687429
  Ewald energy   TEWEN  =     -1389.04058381
  -Hartree energ DENC   =      -131.73468183
  -exchange      EXHF   =         0.00000000
  -V(xc)+E(xc)   XCENC  =       -34.86933599
  PAW double counting   =      1193.78262552    -1080.73714043
  entropy T*S    EENTRO =        -0.00516747
  eigenvalues    EBANDS =        42.48417172
  atomic energy  EATOM  =      1448.48460880
  Solvation  Ediel_sol  =         0.00000000
  ---------------------------------------------------
  free energy    TOTEN  =       128.73137080 eV

  energy without entropy =      128.73653827  energy(sigma->0) =      128.73395454


--------------------------------------------------------------------------------------------------------




--------------------------------------- Iteration      1(   2)  ---------------------------------------


     EDDAV:  cpu time      0.3294: real time      0.3329
       DOS:  cpu time      0.0005: real time      0.0005
    --------------------------------------------
      LOOP:  cpu time      0.3299: real time      0.3334

 eigenvalue-minimisations  :  3712
 total energy-change (2. order) :-0.1535778E+03  (-0.1489424E+03)
 number of electron      40.0000000 magnetization 
 augmentation part       40.0000000 magnetization 

 Free energy of the ion-electron system (eV)
  ---------------------------------------------------
  alpha Z        PSCENC =        80.36687429
  Ewald energy   TEWEN  =     -1389.04058381
  -Hartree energ DENC   =      -131.73468183
  -exchange      EXHF   =         0.00000000
  -V(xc)+E(xc)   XCENC  =       -34.86933599
  PAW double counting   =      1193.78262552    -1080.73714043
  entropy T*S    EENTRO =        -0.00000000
  eigenvalues    EBANDS =      -111.09874985
  atomic energy  EATOM  =      1448.48460880
  Solvation  Ediel_sol  =         0.00000000
  ---------------------------------------------------
  free energy    TOTEN  =       -24.84638330 eV

  energy without entropy =      -24.84638330  energy(sigma->0) =      -24.84638330


--------------------------------------------------------------------------------------------------------




--------------------------------------- Iteration      1(   3)  ---------------------------------------


     EDDAV:  cpu time      0.3199: real time      0.3272
       DOS:  cpu time      0.0007: real time      0.0008
    --------------------------------------------
      LOOP:  cpu time      0.3207: real time      0.3279

 eigenvalue-minimisations  :  3184
 total energy-change (2. order) :-0.8758413E+01  (-0.8738080E+01)
 number of electron      40.0000000 magnetization 
 augmentation part       40.0000000 magnetization 

 Free energy of the ion-electron system (eV)
  ---------------------------------------------------
  alpha Z        PSCENC =        80.36687429
  Ewald energy   TEWEN  =     -1389.04058381
  -Hartree energ DENC   =      -131.73468183
  -exchange      EXHF   =         0.00000000
  -V(xc)+E(xc)   XCENC  =       -34.86933599
  PAW double counting   =      1193.78262552    -1080.73714043
  entropy T*S    EENTRO =        -0.00000000
  eigenvalues    EBANDS =      -119.85716330
  atomic energy  EATOM  =      1448.48460880
  Solvation  Ediel_sol  =         0.00000000
  ---------------------------------------------------
  free energy    TOTEN  =       -33.60479674 eV

  energy without entropy =      -33.60479674  energy(sigma->0) =      -33.60479674


--------------------------------------------------------------------------------------------------------




--------------------------------------- Iteration      1(   4)  ---------------------------------------


     EDDAV:  cpu time      0.2952: real time      0.2985
       DOS:  cpu time      0.0006: real time      0.0006
    --------------------------------------------
      LOOP:  cpu time      0.2958: real time      0.2991

 eigenvalue-minimisations  :  3088
 total energy-change (2. order) :-0.5993197E-01  (-0.5991422E-01)
 number of electron      40.0000000 magnetization 
 augmentation part       40.0000000 magnetization 

 Free energy of the ion-electron system (eV)
  ---------------------------------------------------
  alpha Z        PSCENC =        80.36687429
  Ewald energy   TEWEN  =     -1389.04058381
  -Hartree energ DENC   =      -131.73468183
  -exchange      EXHF   =         0.00000000
  -V(xc)+E(xc)   XCENC  =       -34.86933599
  PAW double counting   =      1193.78262552    -1080.73714043
  entropy T*S    EENTRO =        -0.00000000
  eigenvalues    EBANDS =      -119.91709526
  atomic energy  EATOM  =      1448.48460880
  Solvation  Ediel_sol  =         0.00000000
  ---------------------------------------------------
  free energy    TOTEN  =       -33.66472871 eV

  energy without entropy =      -33.66472871  energy(sigma->0) =      -33.66472871


--------------------------------------------------------------------------------------------------------




--------------------------------------- Iteration      1(   5)  ---------------------------------------


     EDDAV:  cpu time      0.3042: real time      0.3077
       DOS:  cpu time      0.0006: real time      0.0006
    CHARGE:  cpu time      0.0046: real time      0.0046
    MIXING:  cpu time      0.0010: real time      0.0010
    --------------------------------------------
      LOOP:  cpu time      0.3104: real time      0.3139

 eigenvalue-minimisations  :  3184
 total energy-change (2. order) :-0.3746526E-03  (-0.3746427E-03)
 number of electron      40.0000056 magnetization 
 augmentation part       -7.4271071 magnetization 

 Broyden mixing:
  rms(total) = 0.60448E+00    rms(broyden)= 0.60447E+00
  rms(prec ) = 0.74824E+00
  weight for this iteration     100.00

 Free energy of the ion-electron system (eV)
  ---------------------------------------------------
  alpha Z        PSCENC =        80.36687429
  Ewald energy   TEWEN  =     -1389.04058381
  -Hartree energ DENC   =      -131.73468183
  -exchange      EXHF   =         0.00000000
  -V(xc)+E(xc)   XCENC  =       -34.86933599
  PAW double counting   =      1193.78262552    -1080.73714043
  entropy T*S    EENTRO =        -0.00000000
  eigenvalues    EBANDS =      -119.91746992
  atomic energy  EATOM  =      1448.48460880
  Solvation  Ediel_sol  =         0.00000000
  ---------------------------------------------------
  free energy    TOTEN  =       -33.66510336 eV

  energy without entropy =      -33.66510336  energy(sigma->0) =      -33.66510336


--------------------------------------------------------------------------------------------------------




--------------------------------------- Iteration      1(   6)  ---------------------------------------


    POTLOK:  cpu time      0.0053: real time      0.0055
    SETDIJ:  cpu time      0.1375: real time      0.1382
     EDDAV:  cpu time      0.3020: real time      0.3050
       DOS:  cpu time      0.0010: real time      0.0010
    CHARGE:  cpu time      0.0057: real time      0.0058
    MIXING:  cpu time      0.0007: real time      0.0007
    --------------------------------------------
      LOOP:  cpu time      0.4523: real time      0.4563

 eigenvalue-minimisations  :  2960
 total energy-change (2. order) : 0.7431548E+00  (-0.1514932E+00)
 number of electron      40.0000056 magnetization 
 augmentation part       -7.3530848 magnetization 

 Broyden mixing:
  rms(total) = 0.36646E+00    rms(broyden)= 0.36646E+00
  rms(prec ) = 0.38955E+00
  weight for this iteration     100.00

 eigenvalues of (default mixing * dielectric matrix)
  average eigenvalue GAMMA=   1.7284
  1.7284

 Free energy of the ion-electron system (eV)
  ---------------------------------------------------
  alpha Z        PSCENC =        80.36687429
  Ewald energy   TEWEN  =     -1389.04058381
  -Hartree energ DENC   =      -139.07455824
  -exchange      EXHF   =         0.00000000
  -V(xc)+E(xc)   XCENC  =       -34.23744447
  PAW double counting   =      1403.17560684    -1290.38776743
  entropy T*S    EENTRO =        -0.00000000
  eigenvalues    EBANDS =      -112.20868459
  atomic energy  EATOM  =      1448.48460880
  Solvation  Ediel_sol  =         0.00000000
  ---------------------------------------------------
  free energy    TOTEN  =       -32.92194861 eV

  energy without entropy =      -32.92194861  energy(sigma->0) =      -32.92194861


--------------------------------------------------------------------------------------------------------




--------------------------------------- Iteration      1(   7)  ---------------------------------------


    POTLOK:  cpu time      0.0053: real time      0.0055
    SETDIJ:  cpu time      0.1377: real time      0.1385
     EDDAV:  cpu time      0.2957: real time      0.2987
       DOS:  cpu time      0.0005: real time      0.0005
    CHARGE:  cpu time      0.0042: real time      0.0043
    MIXING:  cpu time      0.0005: real time      0.0005
    --------------------------------------------
      LOOP:  cpu time      0.4439: real time      0.4480

 eigenvalue-minimisations  :  3136
 total energy-change (2. order) : 0.1408587E-02  (-0.3488011E-01)
 number of electron      40.0000057 magnetization 
 augmentation part       -7.3511550 magnetization 

 Broyden mixing:
  rms(total) = 0.16374E+00    rms(broyden)= 0.16374E+00
  rms(prec ) = 0.17362E+00
  weight for this iteration     100.00

 eigenvalues of (default mixing * dielectric matrix)
  average eigenvalue GAMMA=   1.7247
  1.2011  2.2483

 Free energy of the ion-electron system (eV)
  ---------------------------------------------------
  alpha Z        PSCENC =        80.36687429
  Ewald energy   TEWEN  =     -1389.04058381
  -Hartree energ DENC   =      -140.63243474
  -exchange      EXHF   =         0.00000000
  -V(xc)+E(xc)   XCENC  =       -33.96531980
  PAW double counting   =      1601.23239417    -1488.54165593
  entropy T*S    EENTRO =        -0.00000000
  eigenvalues    EBANDS =      -110.82442301
  atomic energy  EATOM  =      1448.48460880
  Solvation  Ediel_sol  =         0.00000000
  ---------------------------------------------------
  free energy    TOTEN  =       -32.92054002 eV

  energy without entropy =      -32.92054002  energy(sigma->0) =      -32.92054002


--------------------------------------------------------------------------------------------------------




--------------------------------------- Iteration      1(   8)  ---------------------------------------


    POTLOK:  cpu time      0.0052: real time      0.0055
    SETDIJ:  cpu time      0.1371: real time      0.1381
     EDDAV:  cpu time      0.2787: real time      0.2816
       DOS:  cpu time      0.0006: real time      0.0006
    CHARGE:  cpu time      0.0042: real time      0.0042
    MIXING:  cpu time      0.0005: real time      0.0005
    --------------------------------------------
      LOOP:  cpu time      0.4264: real time      0.4304

 eigenvalue-minimisations  :  2896
 total energy-change (2. order) :-0.4298665E-03  (-0.3243877E-02)
 number of electron      40.0000057 magnetization 
 augmentation part       -7.3684466 magnetization 

 Broyden mixing:
  rms(total) = 0.20882E-01    rms(broyden)= 0.20881E-01
  rms(prec ) = 0.28097E-01
  weight for this iteration     100.00

 eigenvalues of (default mixing * dielectric matrix)
  average eigenvalue GAMMA=   1.5847
  2.4379  1.1580  1.1580

 Free energy of the ion-electron system (eV)
  ---------------------------------------------------
  alpha Z        PSCENC =        80.36687429
  Ewald energy   TEWEN  =     -1389.04058381
  -Hartree energ DENC   =      -140.07803522
  -exchange      EXHF   =         0.00000000
  -V(xc)+E(xc)   XCENC  =       -33.87196930
  PAW double counting   =      1742.17835905    -1629.51441582
  entropy T*S    EENTRO =        -0.00000000
  eigenvalues    EBANDS =      -111.44580788
  atomic energy  EATOM  =      1448.48460880
  Solvation  Ediel_sol  =         0.00000000
  ---------------------------------------------------
  free energy    TOTEN  =       -32.92096989 eV

  energy without entropy =      -32.92096989  energy(sigma->0) =      -32.92096989


--------------------------------------------------------------------------------------------------------




--------------------------------------- Iteration      1(   9)  ---------------------------------------


    POTLOK:  cpu time      0.0051: real time      0.0054
    SETDIJ:  cpu time      0.1374: real time      0.1382
     EDDAV:  cpu time      0.2824: real time      0.2848
       DOS:  cpu time      0.0003: real time      0.0003
    CHARGE:  cpu time      0.0038: real time      0.0038
    MIXING:  cpu time      0.0003: real time      0.0003
    --------------------------------------------
      LOOP:  cpu time      0.4293: real time      0.4328

 eigenvalue-minimisations  :  3280
 total energy-change (2. order) : 0.2609337E-03  (-0.5167668E-03)
 number of electron      40.0000057 magnetization 
 augmentation part       -7.3665017 magnetization 

 Broyden mixing:
  rms(total) = 0.83288E-02    rms(broyden)= 0.83287E-02
  rms(prec ) = 0.94952E-02
  weight for this iteration     100.00

 eigenvalues of (default mixing * dielectric matrix)
  average eigenvalue GAMMA=   1.8275
  2.5252  2.5252  1.1298  1.1298

 Free energy of the ion-electron system (eV)
  ---------------------------------------------------
  alpha Z        PSCENC =        80.36687429
  Ewald energy   TEWEN  =     -1389.04058381
  -Hartree energ DENC   =      -140.56001940
  -exchange      EXHF   =         0.00000000
  -V(xc)+E(xc)   XCENC  =       -33.82586655
  PAW double counting   =      1757.08639921    -1644.43435027
  entropy T*S    EENTRO =        -0.00000000
  eigenvalues    EBANDS =      -110.99777122
  atomic energy  EATOM  =      1448.48460880
  Solvation  Ediel_sol  =         0.00000000
  ---------------------------------------------------
  free energy    TOTEN  =       -32.92070895 eV

  energy without entropy =      -32.92070895  energy(sigma->0) =      -32.92070895


--------------------------------------------------------------------------------------------------------




--------------------------------------- Iteration      1(  10)  ---------------------------------------


    POTLOK:  cpu time      0.0036: real time      0.0038
    SETDIJ:  cpu time      0.1372: real time      0.1377
     EDDAV:  cpu time      0.1854: real time      0.1865
       DOS:  cpu time      0.0003: real time      0.0003
    CHARGE:  cpu time      0.0035: real time      0.0035
    MIXING:  cpu time      0.0003: real time      0.0003
    --------------------------------------------
      LOOP:  cpu time      0.3303: real time      0.3320

 eigenvalue-minimisations  :  2816
 total energy-change (2. order) :-0.1576810E-03  (-0.6252964E-04)
 number of electron      40.0000057 magnetization 
 augmentation part       -7.3669544 magnetization 

 Broyden mixing:
  rms(total) = 0.24685E-02    rms(broyden)= 0.24684E-02
  rms(prec ) = 0.28866E-02
  weight for this iteration     100.00

 eigenvalues of (default mixing * dielectric matrix)
  average eigenvalue GAMMA=   1.7305
  2.9622  2.5547  1.1229  1.1229  0.8897

 Free energy of the ion-electron system (eV)
  ---------------------------------------------------
  alpha Z        PSCENC =        80.36687429
  Ewald energy   TEWEN  =     -1389.04058381
  -Hartree energ DENC   =      -140.60650079
  -exchange      EXHF   =         0.00000000
  -V(xc)+E(xc)   XCENC  =       -33.82589628
  PAW double counting   =      1748.84512230    -1636.18794486
  entropy T*S    EENTRO =        -0.00000000
  eigenvalues    EBANDS =      -110.95654629
  atomic energy  EATOM  =      1448.48460880
  Solvation  Ediel_sol  =         0.00000000
  ---------------------------------------------------
  free energy    TOTEN  =       -32.92086663 eV

  energy without entropy =      -32.92086663  energy(sigma->0) =      -32.92086663


--------------------------------------------------------------------------------------------------------




--------------------------------------- Iteration      1(  11)  ---------------------------------------


    POTLOK:  cpu time      0.0035: real time      0.0036
    SETDIJ:  cpu time      0.1371: real time      0.1375
     EDDAV:  cpu time      0.2169: real time      0.2181
       DOS:  cpu time      0.0003: real time      0.0003
    CHARGE:  cpu time      0.0033: real time      0.0033
    MIXING:  cpu time      0.0003: real time      0.0003
    --------------------------------------------
      LOOP:  cpu time      0.3615: real time      0.3632

 eigenvalue-minimisations  :  3408
 total energy-change (2. order) :-0.1993459E-04  (-0.3809931E-05)
 number of electron      40.0000057 magnetization 
 augmentation part       -7.3670142 magnetization 

 Broyden mixing:
  rms(total) = 0.10936E-02    rms(broyden)= 0.10935E-02
  rms(prec ) = 0.12717E-02
  weight for this iteration     100.00

 eigenvalues of (default mixing * dielectric matrix)
  average eigenvalue GAMMA=   1.6841
  2.7286  2.7286  1.2231  1.2231  1.1006  1.1006

 Free energy of the ion-electron system (eV)
  ---------------------------------------------------
  alpha Z        PSCENC =        80.36687429
  Ewald energy   TEWEN  =     -1389.04058381
  -Hartree energ DENC   =      -140.63936157
  -exchange      EXHF   =         0.00000000
  -V(xc)+E(xc)   XCENC  =       -33.82240771
  PAW double counting   =      1749.21816085    -1636.56069334
  entropy T*S    EENTRO =        -0.00000000
  eigenvalues    EBANDS =      -110.92748408
  atomic energy  EATOM  =      1448.48460880
  Solvation  Ediel_sol  =         0.00000000
  ---------------------------------------------------
  free energy    TOTEN  =       -32.92088657 eV

  energy without entropy =      -32.92088657  energy(sigma->0) =      -32.92088657


--------------------------------------------------------------------------------------------------------




--------------------------------------- Iteration      1(  12)  ---------------------------------------


    POTLOK:  cpu time      0.0035: real time      0.0036
    SETDIJ:  cpu time      0.1089: real time      0.1093
     EDDAV:  cpu time      0.1752: real time      0.1762
       DOS:  cpu time      0.0003: real time      0.0004
    --------------------------------------------
      LOOP:  cpu time      0.2880: real time      0.2894

 eigenvalue-minimisations  :  2784
 total energy-change (2. order) : 0.7187862E-06  (-0.4586255E-06)
 number of electron      40.0000057 magnetization 
 augmentation part       -7.3670142 magnetization 

 Free energy of the ion-electron system (eV)
  ---------------------------------------------------
  alpha Z        PSCENC =        80.36687429
  Ewald energy   TEWEN  =     -1389.04058381
  -Hartree energ DENC   =      -140.64461461
  -exchange      EXHF   =         0.00000000
  -V(xc)+E(xc)   XCENC  =       -33.82207179
  PAW double counting   =      1748.97181514    -1636.31426911
  entropy T*S    EENTRO =        -0.00000000
  eigenvalues    EBANDS =      -110.92264477
  atomic energy  EATOM  =      1448.48460880
  Solvation  Ediel_sol  =         0.00000000
  ---------------------------------------------------
  free energy    TOTEN  =       -32.92088585 eV

  energy without entropy =      -32.92088585  energy(sigma->0) =      -32.92088585


--------------------------------------------------------------------------------------------------------




 average (electrostatic) potential at core
  the test charge radii are     1.1631  1.0808
  (the norm of the test charge is              1.0000)
       1 -34.4930       2 -34.4930       3 -34.4930       4 -34.4930       5 -55.4228
       6 -55.4228       7 -55.4228       8 -55.4228
 
 
 
 E-fermi :   2.3679     XC(G=0):  -8.9910     alpha+bet : -8.0064

 Fermi energy:         2.3679369829

 k-point     1 :       0.0000    0.0000    0.0000
  band No.  band energies     occupation 
      1     -11.0054      2.00000
      2     -10.7005      2.00000
      3      -9.8069      2.00000
      4      -9.4040      2.00000
      5      -5.3361      2.00000
      6      -4.6772      2.00000
      7      -3.7314      2.00000
      8      -3.7286      2.00000
      9      -1.8908      2.00000
     10      -0.7383      2.00000
     11      -0.7355      2.00000
     12      -0.3050      2.00000
     13      -0.2890      2.00000
     14       0.7447      2.00000
     15       0.7601      2.00000
     16       0.8170      2.00000
     17       1.4674      2.00000
     18       1.5224      2.00000
     19       1.5368      2.00000
     20       1.6393      2.00000
     21       3.8100      0.00000
     22       5.3822      0.00000
     23       5.6261      0.00000
     24       5.7148      0.00000
     25       5.9202      0.00000
     26       6.5842      0.00000
     27       6.6294      0.00000
     28       6.7481      0.00000
     29       6.7513      0.00000
     30       6.9827      0.00000
     31       7.0090      0.00000
     32       7.3764      0.00000

 k-point     2 :       0.1667    0.0000    0.0000
  band No.  band energies     occupation 
      1     -10.8854      2.00000
      2     -10.5871      2.00000
      3      -9.8031      2.00000
      4      -9.4328      2.00000
      5      -5.5305      2.00000
      6      -4.8167      2.00000
      7      -4.1260      2.00000
      8      -3.9383      2.00000
      9      -1.7992      2.00000
     10      -0.5727      2.00000
     11      -0.5490      2.00000
     12      -0.1271      2.00000
     13      -0.1015      2.00000
     14       0.7473      2.00000
     15       0.8736      2.00000
     16       1.2290      2.00000
     17       1.4156      2.00000
     18       1.5976      2.00000
     19       1.6176      2.00000
     20       1.6849      2.00000
     21       3.8605      0.00000
     22       4.6327      0.00000
     23       4.7224      0.00000
     24       4.7653      0.00000
     25       5.2186      0.00000
     26       5.9612      0.00000
     27       5.9852      0.00000
     28       6.5152      0.00000
     29       6.7105      0.00000
     30       6.9808      0.00000
     31       7.3093      0.00000
     32       7.3599      0.00000

 k-point     3 :       0.0000    0.1667    0.0000
  band No.  band energies     occupation 
      1     -10.8801      2.00000
      2     -10.5934      2.00000
      3      -9.7856      2.00000
      4      -9.4560      2.00000
      5      -5.4853      2.00000
      6      -4.8591      2.00000
      7      -4.1306      2.00000
      8      -3.9305      2.00000
      9      -1.7872      2.00000
     10      -0.5480      2.00000
     11      -0.5436      2.00000
     12      -0.1295      2.00000
     13      -0.1218      2.00000
     14       0.6534      2.00000
     15       0.9017      2.00000
     16       1.3956      2.00000
     17       1.4530      2.00000
     18       1.5335      2.00000
     19       1.5359      2.00000
     20       1.6404      2.00000
     21       3.9204      0.00000
     22       4.4263      0.00000
     23       4.9134      0.00000
     24       4.9884      0.00000
     25       5.0260      0.00000
     26       5.8375      0.00000
     27       5.9973      0.00000
     28       6.6456      0.00000
     29       6.7102      0.00000
     30       7.0015      0.00000
     31       7.3263      0.00000
     32       7.3359      0.00000

 k-point     4 :       0.3333    0.0000    0.0000
  band No.  band energies     occupation 
      1     -10.5617      2.00000
      2     -10.2804      2.00000
      3      -9.8778      2.00000
      4      -9.5745      2.00000
      5      -5.7811      2.00000
      6      -4.9959      2.00000
      7      -4.9425      2.00000
      8      -4.4239      2.00000
      9      -1.4092      2.00000
     10      -0.3943      2.00000
     11      -0.0103      2.00000
     12       0.4048      2.00000
     13       0.4340      2.00000
     14       0.8020      2.00000
     15       1.0780      2.00000
     16       1.2567      2.00000
     17       1.4466      2.00000
     18       1.6823      2.00000
     19       1.9699      2.00000
     20       2.1108      2.00000
     21       3.4165      0.00000
     22       3.5049      0.00000
     23       3.5768      0.00000
     24       4.0887      0.00000
     25       4.3099      0.00000
     26       4.6383      0.00000
     27       4.7015      0.00000
     28       5.4464      0.00000
     29       5.4685      0.00000
     30       6.2409      0.00000
     31       7.8927      0.00000
     32       8.1478      0.00000

 k-point     5 :       0.0000    0.3333    0.0000
  band No.  band energies     occupation 
      1     -10.5348      2.00000
      2     -10.3123      2.00000
      3      -9.7996      2.00000
      4      -9.6674      2.00000
      5      -5.6910      2.00000
      6      -5.0720      2.00000
      7      -4.9185      2.00000
      8      -4.4344      2.00000
      9      -1.4119      2.00000
     10      -0.3655      2.00000
     11       0.0089      2.00000
     12       0.3852      2.00000
     13       0.3911      2.00000
     14       0.8536      2.00000
     15       1.1881      2.00000
     16       1.2546      2.00000
     17       1.4629      2.00000
     18       1.4712      2.00000
     19       1.9768      2.00000
     20       2.0850      2.00000
     21       3.1909      0.00000
     22       3.6627      0.00000
     23       3.8852      0.00000
     24       4.0993      0.00000
     25       4.1320      0.00000
     26       4.5270      0.00000
     27       4.6782      0.00000
     28       5.4503      0.00000
     29       5.6200      0.00000
     30       6.3138      0.00000
     31       7.8280      0.00000
     32       7.8987      0.00000

 k-point     6 :       0.5000    0.0000    0.0000
  band No.  band energies     occupation 
      1     -10.1590      2.00000
      2     -10.1590      2.00000
      3      -9.8881      2.00000
      4      -9.8881      2.00000
      5      -5.6033      2.00000
      6      -5.6033      2.00000
      7      -4.8685      2.00000
      8      -4.8685      2.00000
      9      -0.8036      2.00000
     10      -0.8036      2.00000
     11       0.7216      2.00000
     12       0.7216      2.00000
     13       0.9655      2.00000
     14       0.9655      2.00000
     15       1.1829      2.00000
     16       1.1829      2.00000
     17       1.4605      2.00000
     18       1.4605      2.00000
     19       1.7971      2.00000
     20       1.7971      2.00000
     21       3.5971      0.00000
     22       3.5971      0.00000
     23       3.6500      0.00000
     24       3.6500      0.00000
     25       3.6591      0.00000
     26       3.6591      0.00000
     27       4.4582      0.00000
     28       4.4582      0.00000
     29       5.3406      0.00000
     30       5.3406      0.00000
     31       8.1379      0.00000
     32       8.1379      0.00000

 k-point     7 :       0.0000    0.5000    0.0000
  band No.  band energies     occupation 
      1     -10.0720      2.00000
      2     -10.0720      2.00000
      3      -9.9873      2.00000
      4      -9.9873      2.00000
      5      -5.5349      2.00000
      6      -5.5349      2.00000
      7      -4.9192      2.00000
      8      -4.9192      2.00000
      9      -0.8123      2.00000
     10      -0.8123      2.00000
     11       0.8127      2.00000
     12       0.8127      2.00000
     13       1.0319      2.00000
     14       1.0319      2.00000
     15       1.0580      2.00000
     16       1.0580      2.00000
     17       1.4483      2.00000
     18       1.4483      2.00000
     19       1.7769      2.00000
     20       1.7769      2.00000
     21       3.4612      0.00000
     22       3.4612      0.00000
     23       3.6810      0.00000
     24       3.6810      0.00000
     25       3.7221      0.00000
     26       3.7221      0.00000
     27       4.3905      0.00000
     28       4.3905      0.00000
     29       5.5169      0.00000
     30       5.5169      0.00000
     31       7.9876      0.00000
     32       7.9876      0.00000

 k-point     8 :       0.1667    0.1667    0.0000
  band No.  band energies     occupation 
      1     -10.7670      2.00000
      2     -10.4881      2.00000
      3      -9.7829      2.00000
      4      -9.4782      2.00000
      5      -5.5690      2.00000
      6      -4.8831      2.00000
      7      -4.2199      2.00000
      8      -4.2178      2.00000
      9      -1.6705      2.00000
     10      -1.0709      2.00000
     11      -1.0679      2.00000
     12       0.5990      2.00000
     13       0.6141      2.00000
     14       0.6681      2.00000
     15       0.7109      2.00000
     16       0.8288      2.00000
     17       1.4894      2.00000
     18       1.5069      2.00000
     19       1.7173      2.00000
     20       1.9106      2.00000
     21       3.7751      0.00000
     22       3.9200      0.00000
     23       3.9265      0.00000
     24       4.4255      0.00000
     25       5.3496      0.00000
     26       5.5445      0.00000
     27       5.8186      0.00000
     28       6.7444      0.00000
     29       7.1712      0.00000
     30       7.1990      0.00000
     31       7.2215      0.00000
     32       7.9217      0.00000

 k-point     9 :      -0.1667    0.1667    0.0000
  band No.  band energies     occupation 
      1     -10.7670      2.00000
      2     -10.4881      2.00000
      3      -9.7829      2.00000
      4      -9.4782      2.00000
      5      -5.5690      2.00000
      6      -4.8831      2.00000
      7      -4.2199      2.00000
      8      -4.2178      2.00000
      9      -1.6705      2.00000
     10      -1.0709      2.00000
     11      -1.0679      2.00000
     12       0.5990      2.00000
     13       0.6141      2.00000
     14       0.6681      2.00000
     15       0.7109      2.00000
     16       0.8288      2.00000
     17       1.4894      2.00000
     18       1.5069      2.00000
     19       1.7173      2.00000
     20       1.9106      2.00000
     21       3.7751      0.00000
     22       3.9200      0.00000
     23       3.9265      0.00000
     24       4.4255      0.00000
     25       5.3496      0.00000
     26       5.5445      0.00000
     27       5.8186      0.00000
     28       6.7444      0.00000
     29       7.1712      0.00000
     30       7.1990      0.00000
     31       7.2215      0.00000
     32       7.9217      0.00000

 k-point    10 :       0.3333    0.1667    0.0000
  band No.  band energies     occupation 
      1     -10.4655      2.00000
      2     -10.2074      2.00000
      3      -9.8495      2.00000
      4      -9.5929      2.00000
      5      -5.6687      2.00000
      6      -4.9105      2.00000
      7      -4.8746      2.00000
      8      -4.4839      2.00000
      9      -1.3142      2.00000
     10      -1.1511      2.00000
     11      -1.1375      2.00000
     12       0.4309      2.00000
     13       0.5417      2.00000
     14       0.5753      2.00000
     15       0.7696      2.00000
     16       0.9659      2.00000
     17       1.1424      2.00000
     18       1.2827      2.00000
     19       1.7537      2.00000
     20       1.9627      2.00000
     21       3.3877      0.00000
     22       3.6173      0.00000
     23       4.3060      0.00000
     24       4.3890      0.00000
     25       4.8126      0.00000
     26       4.9998      0.00000
     27       5.2655      0.00000
     28       6.3618      0.00000
     29       6.4848      0.00000
     30       6.9099      0.00000
     31       7.5757      0.00000
     32       8.0802      0.00000

 k-point    11 :      -0.1667    0.3333    0.0000
  band No.  band energies     occupation 
      1     -10.4441      2.00000
      2     -10.2324      2.00000
      3      -9.7899      2.00000
      4      -9.6622      2.00000
      5      -5.6040      2.00000
      6      -4.9668      2.00000
      7      -4.8480      2.00000
      8      -4.5003      2.00000
      9      -1.3181      2.00000
     10      -1.1424      2.00000
     11      -1.1388      2.00000
     12       0.4714      2.00000
     13       0.4836      2.00000
     14       0.5118      2.00000
     15       0.7797      2.00000
     16       1.1111      2.00000
     17       1.1718      2.00000
     18       1.2558      2.00000
     19       1.7592      2.00000
     20       1.8468      2.00000
     21       3.4246      0.00000
     22       3.5708      0.00000
     23       4.2401      0.00000
     24       4.3361      0.00000
     25       4.9076      0.00000
     26       5.0896      0.00000
     27       5.3009      0.00000
     28       6.3235      0.00000
     29       6.5254      0.00000
     30       6.9362      0.00000
     31       7.5071      0.00000
     32       7.8576      0.00000

 k-point    12 :      -0.3333    0.1667    0.0000
  band No.  band energies     occupation 
      1     -10.4655      2.00000
      2     -10.2074      2.00000
      3      -9.8495      2.00000
      4      -9.5929      2.00000
      5      -5.6687      2.00000
      6      -4.9105      2.00000
      7      -4.8746      2.00000
      8      -4.4839      2.00000
      9      -1.3142      2.00000
     10      -1.1511      2.00000
     11      -1.1375      2.00000
     12       0.4309      2.00000
     13       0.5417      2.00000
     14       0.5753      2.00000
     15       0.7696      2.00000
     16       0.9659      2.00000
     17       1.1424      2.00000
     18       1.2827      2.00000
     19       1.7537      2.00000
     20       1.9627      2.00000
     21       3.3877      0.00000
     22       3.6173      0.00000
     23       4.3060      0.00000
     24       4.3890      0.00000
     25       4.8126      0.00000
     26       4.9998      0.00000
     27       5.2655      0.00000
     28       6.3618      0.00000
     29       6.4848      0.00000
     30       6.9099      0.00000
     31       7.5757      0.00000
     32       8.0802      0.00000

 k-point    13 :       0.1667    0.3333    0.0000
  band No.  band energies     occupation 
      1     -10.4441      2.00000
      2     -10.2324      2.00000
      3      -9.7899      2.00000
      4      -9.6622      2.00000
      5      -5.6040      2.00000
      6      -4.9668      2.00000
      7      -4.8480      2.00000
      8      -4.5003      2.00000
      9      -1.3181      2.00000
     10      -1.1424      2.00000
     11      -1.1388      2.00000
     12       0.4714      2.00000
     13       0.4836      2.00000
     14       0.5118      2.00000
     15       0.7797      2.00000
     16       1.1111      2.00000
     17       1.1718      2.00000
     18       1.2558      2.00000
     19       1.7592      2.00000
     20       1.8468      2.00000
     21       3.4246      0.00000
     22       3.5708      0.00000
     23       4.2401      0.00000
     24       4.3361      0.00000
     25       4.9076      0.00000
     26       5.0896      0.00000
     27       5.3009      0.00000
     28       6.3235      0.00000
     29       6.5254      0.00000
     30       6.9362      0.00000
     31       7.5071      0.00000
     32       7.8576      0.00000

 k-point    14 :       0.5000    0.1667    0.0000
  band No.  band energies     occupation 
      1     -10.0990      2.00000
      2     -10.0990      2.00000
      3      -9.8591      2.00000
      4      -9.8591      2.00000
      5      -5.4594      2.00000
      6      -5.4594      2.00000
      7      -4.7840      2.00000
      8      -4.7840      2.00000
      9      -0.9732      2.00000
     10      -0.9732      2.00000
     11      -0.5252      2.00000
     12      -0.5252      2.00000
     13       0.2589      2.00000
     14       0.2589      2.00000
     15       0.7201      2.00000
     16       0.7201      2.00000
     17       1.4848      2.00000
     18       1.4848      2.00000
     19       1.7063      2.00000
     20       1.7063      2.00000
     21       3.8500      0.00000
     22       3.8500      0.00000
     23       3.9264      0.00000
     24       3.9264      0.00000
     25       5.3537      0.00000
     26       5.3537      0.00000
     27       5.4633      0.00000
     28       5.4633      0.00000
     29       5.8905      0.00000
     30       5.8905      0.00000
     31       7.9334      0.00000
     32       7.9334      0.00000

 k-point    15 :      -0.1667    0.5000    0.0000
  band No.  band energies     occupation 
      1     -10.0210      2.00000
      2     -10.0210      2.00000
      3      -9.9466      2.00000
      4      -9.9466      2.00000
      5      -5.3954      2.00000
      6      -5.3954      2.00000
      7      -4.8340      2.00000
      8      -4.8340      2.00000
      9      -0.9704      2.00000
     10      -0.9704      2.00000
     11      -0.5509      2.00000
     12      -0.5509      2.00000
     13       0.2055      2.00000
     14       0.2055      2.00000
     15       1.0456      2.00000
     16       1.0456      2.00000
     17       1.1938      2.00000
     18       1.1938      2.00000
     19       1.7296      2.00000
     20       1.7296      2.00000
     21       3.7028      0.00000
     22       3.7028      0.00000
     23       4.0735      0.00000
     24       4.0735      0.00000
     25       5.3065      0.00000
     26       5.3065      0.00000
     27       5.4953      0.00000
     28       5.4953      0.00000
     29       5.9834      0.00000
     30       5.9834      0.00000
     31       7.7808      0.00000
     32       7.7808      0.00000

 k-point    16 :       0.3333    0.3333    0.0000
  band No.  band energies     occupation 
      1     -10.2131      2.00000
      2     -10.0312      2.00000
      3      -9.8126      2.00000
      4      -9.6872      2.00000
      5      -5.3829      2.00000
      6      -4.7410      2.00000
      7      -4.7354      2.00000
      8      -4.6997      2.00000
      9      -1.8313      2.00000
     10      -1.8298      2.00000
     11      -1.2658      2.00000
     12      -0.7930      2.00000
     13       0.0656      2.00000
     14       0.0947      2.00000
     15       0.1657      2.00000
     16       0.4110      2.00000
     17       0.6998      2.00000
     18       1.0506      2.00000
     19       1.1940      2.00000
     20       1.5092      2.00000
     21       4.1437      0.00000
     22       4.3592      0.00000
     23       5.3525      0.00000
     24       5.8552      0.00000
     25       5.8977      0.00000
     26       5.9854      0.00000
     27       6.0465      0.00000
     28       6.9668      0.00000
     29       6.9959      0.00000
     30       7.2949      0.00000
     31       7.6278      0.00000
     32       7.7433      0.00000

 k-point    17 :      -0.3333    0.3333    0.0000
  band No.  band energies     occupation 
      1     -10.2131      2.00000
      2     -10.0312      2.00000
      3      -9.8126      2.00000
      4      -9.6872      2.00000
      5      -5.3829      2.00000
      6      -4.7410      2.00000
      7      -4.7354      2.00000
      8      -4.6997      2.00000
      9      -1.8313      2.00000
     10      -1.8298      2.00000
     11      -1.2658      2.00000
     12      -0.7930      2.00000
     13       0.0656      2.00000
     14       0.0947      2.00000
     15       0.1657      2.00000
     16       0.4110      2.00000
     17       0.6998      2.00000
     18       1.0506      2.00000
     19       1.1940      2.00000
     20       1.5092      2.00000
     21       4.1437      0.00000
     22       4.3592      0.00000
     23       5.3525      0.00000
     24       5.8552      0.00000
     25       5.8977      0.00000
     26       5.9854      0.00000
     27       6.0465      0.00000
     28       6.9668      0.00000
     29       6.9959      0.00000
     30       7.2949      0.00000
     31       7.6278      0.00000
     32       7.7433      0.00000

 k-point    18 :       0.5000    0.3333    0.0000
  band No.  band energies     occupation 
      1      -9.9588      2.00000
      2      -9.9588      2.00000
      3      -9.8136      2.00000
      4      -9.8136      2.00000
      5      -5.0796      2.00000
      6      -5.0796      2.00000
      7      -4.6238      2.00000
      8      -4.6238      2.00000
      9      -1.7161      2.00000
     10      -1.7161      2.00000
     11      -1.6944      2.00000
     12      -1.6944      2.00000
     13      -0.0171      2.00000
     14      -0.0171      2.00000
     15       0.1453      2.00000
     16       0.1453      2.00000
     17       0.5687      2.00000
     18       0.5687      2.00000
     19       1.0490      2.00000
     20       1.0490      2.00000
     21       5.2790      0.00000
     22       5.2790      0.00000
     23       5.5651      0.00000
     24       5.5651      0.00000
     25       6.2777      0.00000
     26       6.2777      0.00000
     27       6.9796      0.00000
     28       6.9796      0.00000
     29       7.2698      0.00000
     30       7.2698      0.00000
     31       7.4069      0.00000
     32       7.4069      0.00000

 k-point    19 :      -0.3333    0.5000    0.0000
  band No.  band energies     occupation 
      1      -9.9101      2.00000
      2      -9.9101      2.00000
      3      -9.8657      2.00000
      4      -9.8657      2.00000
      5      -5.0341      2.00000
      6      -5.0341      2.00000
      7      -4.6647      2.00000
      8      -4.6647      2.00000
      9      -1.7100      2.00000
     10      -1.7100      2.00000
     11      -1.7080      2.00000
     12      -1.7080      2.00000
     13      -0.0938      2.00000
     14      -0.0938      2.00000
     15       0.3876      2.00000
     16       0.3876      2.00000
     17       0.4323      2.00000
     18       0.4323      2.00000
     19       1.0199      2.00000
     20       1.0199      2.00000
     21       5.2226      0.00000
     22       5.2226      0.00000
     23       5.6959      0.00000
     24       5.6959      0.00000
     25       6.2663      0.00000
     26       6.2663      0.00000
     27       7.0198      0.00000
     28       7.0198      0.00000
     29       7.2133      0.00000
     30       7.2133      0.00000
     31       7.2787      0.00000
     32       7.2787      0.00000

 k-point    20 :       0.5000    0.5000    0.0000
  band No.  band energies     occupation 
      1      -9.8377      2.00000
      2      -9.8377      2.00000
      3      -9.8377      2.00000
      4      -9.8377      2.00000
      5      -4.6854      2.00000
      6      -4.6854      2.00000
      7      -4.6854      2.00000
      8      -4.6854      2.00000
      9      -2.1400      2.00000
     10      -2.1400      2.00000
     11      -2.1400      2.00000
     12      -2.1400      2.00000
     13      -0.1804      2.00000
     14      -0.1804      2.00000
     15      -0.1804      2.00000
     16      -0.1804      2.00000
     17       0.6164      2.00000
     18       0.6164      2.00000
     19       0.6164      2.00000
     20       0.6164      2.00000
     21       6.1039      0.00000
     22       6.1039      0.00000
     23       6.1039      0.00000
[...]
     32       6.6985      0.00000

 k-point    32 :      -0.3333    0.1667    0.5000
  band No.  band energies     occupation 
      1     -10.3627      2.00000
      2     -10.3627      2.00000
      3      -9.6955      2.00000
      4      -9.6955      2.00000
      5      -5.3636      2.00000
      6      -5.3636      2.00000
      7      -4.6531      2.00000
      8      -4.6531      2.00000
      9      -1.0532      2.00000
     10      -1.0532      2.00000
     11      -0.3536      2.00000
     12      -0.3536      2.00000
     13       0.1270      2.00000
     14       0.1270      2.00000
     15       0.9048      2.00000
     16       0.9048      2.00000
     17       1.2520      2.00000
     18       1.2520      2.00000
     19       1.8990      2.00000
     20       1.8990      2.00000
     21       3.7411      0.00000
     22       3.7411      0.00000
     23       4.3609      0.00000
     24       4.3609      0.00000
     25       5.1976      0.00000
     26       5.1976      0.00000
     27       5.8392      0.00000
     28       5.8392      0.00000
     29       6.6469      0.00000
     30       6.6469      0.00000
     31       6.8412      0.00000
     32       6.8412      0.00000

 k-point    33 :       0.1667    0.3333    0.5000
  band No.  band energies     occupation 
      1     -10.3529      2.00000
      2     -10.3529      2.00000
      3      -9.7112      2.00000
      4      -9.7112      2.00000
      5      -5.3249      2.00000
      6      -5.3249      2.00000
      7      -4.6836      2.00000
      8      -4.6836      2.00000
      9      -1.0498      2.00000
     10      -1.0498      2.00000
     11      -0.3726      2.00000
     12      -0.3726      2.00000
     13       0.1890      2.00000
     14       0.1890      2.00000
     15       0.7748      2.00000
     16       0.7748      2.00000
     17       1.3681      2.00000
     18       1.3681      2.00000
     19       1.8655      2.00000
     20       1.8655      2.00000
     21       3.7368      0.00000
     22       3.7368      0.00000
     23       4.3096      0.00000
     24       4.3096      0.00000
     25       5.1818      0.00000
     26       5.1818      0.00000
     27       6.1489      0.00000
     28       6.1489      0.00000
     29       6.4977      0.00000
     30       6.4977      0.00000
     31       6.6985      0.00000
     32       6.6985      0.00000

 k-point    34 :       0.5000    0.1667    0.5000
  band No.  band energies     occupation 
      1     -10.0940      2.00000
      2     -10.0940      2.00000
      3      -9.8657      2.00000
      4      -9.8657      2.00000
      5      -5.3411      2.00000
      6      -5.3411      2.00000
      7      -4.9461      2.00000
      8      -4.9461      2.00000
      9      -0.6205      2.00000
     10      -0.6205      2.00000
     11      -0.3999      2.00000
     12      -0.3999      2.00000
     13      -0.0493      2.00000
     14      -0.0493      2.00000
     15       0.4509      2.00000
     16       0.4509      2.00000
     17       1.3204      2.00000
     18       1.3204      2.00000
     19       1.8532      2.00000
     20       1.8532      2.00000
     21       4.0141      0.00000
     22       4.0141      0.00000
     23       4.0761      0.00000
     24       4.0761      0.00000
     25       5.5074      0.00000
     26       5.5074      0.00000
     27       5.5745      0.00000
     28       5.5745      0.00000
     29       5.8686      0.00000
     30       5.8686      0.00000
     31       6.8999      0.00000
     32       6.8999      0.00000

 k-point    35 :      -0.1667    0.5000    0.5000
  band No.  band energies     occupation 
      1      -9.9846      2.00000
      2      -9.9846      2.00000
      3      -9.9846      2.00000
      4      -9.9846      2.00000
      5      -5.1381      2.00000
      6      -5.1381      2.00000
      7      -5.1381      2.00000
      8      -5.1381      2.00000
      9      -0.4998      2.00000
     10      -0.4998      2.00000
     11      -0.4998      2.00000
     12      -0.4998      2.00000
     13       0.1380      2.00000
     14       0.1380      2.00000
     15       0.1380      2.00000
     16       0.1380      2.00000
     17       1.6439      2.00000
     18       1.6439      2.00000
     19       1.6439      2.00000
     20       1.6439      2.00000
     21       3.9969      0.00000
     22       3.9969      0.00000
     23       3.9969      0.00000
     24       3.9969      0.00000
     25       5.5841      0.00000
     26       5.5841      0.00000
     27       5.5841      0.00000
     28       5.5841      0.00000
     29       6.3368      0.00000
     30       6.3368      0.00000
     31       6.3368      0.00000
     32       6.3368      0.00000

 k-point    36 :       0.3333    0.3333    0.5000
  band No.  band energies     occupation 
      1     -10.1385      2.00000
      2     -10.1385      2.00000
      3      -9.7339      2.00000
      4      -9.7339      2.00000
      5      -5.1133      2.00000
      6      -5.1133      2.00000
      7      -4.7009      2.00000
      8      -4.7009      2.00000
      9      -1.7304      2.00000
     10      -1.7304      2.00000
     11      -0.7544      2.00000
     12      -0.7544      2.00000
     13      -0.3588      2.00000
     14      -0.3588      2.00000
     15      -0.0113      2.00000
     16      -0.0113      2.00000
     17       1.0312      2.00000
     18       1.0312      2.00000
     19       1.6420      2.00000
     20       1.6420      2.00000
     21       4.4333      0.00000
     22       4.4333      0.00000
     23       5.7904      0.00000
     24       5.7904      0.00000
     25       5.8809      0.00000
     26       5.8809      0.00000
     27       6.2117      0.00000
     28       6.2117      0.00000
     29       6.4165      0.00000
     30       6.4165      0.00000
     31       7.5204      0.00000
     32       7.5204      0.00000

 k-point    37 :      -0.3333    0.3333    0.5000
  band No.  band energies     occupation 
      1     -10.1385      2.00000
      2     -10.1385      2.00000
      3      -9.7339      2.00000
      4      -9.7339      2.00000
      5      -5.1133      2.00000
      6      -5.1133      2.00000
      7      -4.7009      2.00000
      8      -4.7009      2.00000
      9      -1.7304      2.00000
     10      -1.7304      2.00000
     11      -0.7544      2.00000
     12      -0.7544      2.00000
     13      -0.3588      2.00000
     14      -0.3588      2.00000
     15      -0.0113      2.00000
     16      -0.0113      2.00000
     17       1.0312      2.00000
     18       1.0312      2.00000
     19       1.6420      2.00000
     20       1.6420      2.00000
     21       4.4333      0.00000
     22       4.4333      0.00000
     23       5.7904      0.00000
     24       5.7904      0.00000
     25       5.8809      0.00000
     26       5.8809      0.00000
     27       6.2117      0.00000
     28       6.2117      0.00000
     29       6.4165      0.00000
     30       6.4165      0.00000
     31       7.5204      0.00000
     32       7.5204      0.00000

 k-point    38 :       0.5000    0.3333    0.5000
  band No.  band energies     occupation 
      1      -9.9557      2.00000
      2      -9.9557      2.00000
      3      -9.8172      2.00000
      4      -9.8172      2.00000
      5      -5.0092      2.00000
      6      -5.0092      2.00000
      7      -4.7190      2.00000
      8      -4.7190      2.00000
      9      -1.6662      2.00000
     10      -1.6662      2.00000
     11      -1.5113      2.00000
     12      -1.5113      2.00000
     13      -0.4508      2.00000
     14      -0.4508      2.00000
     15      -0.1220      2.00000
     16      -0.1220      2.00000
     17       0.8804      2.00000
     18       0.8804      2.00000
     19       1.3568      2.00000
     20       1.3568      2.00000
     21       5.5957      0.00000
     22       5.5957      0.00000
     23       5.7041      0.00000
     24       5.7041      0.00000
     25       5.7669      0.00000
     26       5.7669      0.00000
     27       6.3356      0.00000
     28       6.3356      0.00000
     29       7.1054      0.00000
     30       7.1054      0.00000
     31       7.1739      0.00000
     32       7.1739      0.00000

 k-point    39 :      -0.3333    0.5000    0.5000
  band No.  band energies     occupation 
      1      -9.8882      2.00000
      2      -9.8882      2.00000
      3      -9.8882      2.00000
      4      -9.8882      2.00000
      5      -4.8634      2.00000
      6      -4.8634      2.00000
      7      -4.8634      2.00000
      8      -4.8634      2.00000
      9      -1.5860      2.00000
     10      -1.5860      2.00000
     11      -1.5860      2.00000
     12      -1.5860      2.00000
     13      -0.3163      2.00000
     14      -0.3163      2.00000
     15      -0.3163      2.00000
     16      -0.3163      2.00000
     17       1.1448      2.00000
     18       1.1448      2.00000
     19       1.1448      2.00000
     20       1.1448      2.00000
     21       5.6608      0.00000
     22       5.6608      0.00000
     23       5.6608      0.00000
     24       5.6608      0.00000
     25       6.0114      0.00000
     26       6.0115      0.00000
     27       6.0115      0.00000
     28       6.0115      0.00000
     29       7.1508      0.00000
     30       7.1508      0.00000
     31       7.1508      0.00000
     32       7.1508      0.00000

 k-point    40 :       0.5000    0.5000    0.5000
  band No.  band energies     occupation 
      1      -9.8376      2.00000
      2      -9.8376      2.00000
      3      -9.8376      2.00000
      4      -9.8376      2.00000
      5      -4.6921      2.00000
      6      -4.6921      2.00000
      7      -4.6921      2.00000
      8      -4.6921      2.00000
      9      -2.0228      2.00000
     10      -2.0228      2.00000
     11      -2.0228      2.00000
     12      -2.0228      2.00000
     13      -0.6319      2.00000
     14      -0.6319      2.00000
     15      -0.6319      2.00000
     16      -0.6319      2.00000
     17       1.0851      2.00000
     18       1.0851      2.00000
     19       1.0851      2.00000
     20       1.0851      2.00000
     21       5.8037      0.00000
     22       5.8037      0.00000
     23       5.8037      0.00000
     24       5.8037      0.00000
     25       6.5451      0.00000
     26       6.5451      0.00000
     27       6.5451      0.00000
     28       6.5451      0.00000
     29       7.8028      0.00000
     30       7.8028      0.00000
     31       7.8028      0.00000
     32       7.8028      0.00000


--------------------------------------------------------------------------------------------------------


 soft charge-density along one line, spin component            1
         0         1         2         3         4         5         6         7         8         9
 total charge-density along one line
 
 pseudopotential strength for first ion, spin component:            1
 14.791  18.462  -0.000   0.047   0.000  -0.000   0.085   0.000
 18.462  23.058  -0.000   0.059   0.000  -0.000   0.108   0.000
 -0.000  -0.000   3.270   0.000  -0.000   5.570   0.000  -0.000
  0.047   0.059   0.000   3.259   0.000   0.000   5.551   0.000
  0.000   0.000  -0.000   0.000   3.270  -0.000   0.000   5.570
 -0.000  -0.000   5.570   0.000  -0.000   9.544   0.000  -0.000
  0.085   0.108   0.000   5.551   0.000   0.000   9.513   0.000
  0.000   0.000  -0.000   0.000   5.570  -0.000   0.000   9.544
 -0.000  -0.000   0.000   0.000  -0.000   0.000   0.000  -0.000
  0.000   0.000   0.013  -0.000   0.000   0.024  -0.000   0.000
 -0.014  -0.017   0.000   0.011  -0.000   0.000   0.021  -0.000
  0.000   0.000   0.000   0.000   0.013   0.000   0.000   0.024
 -0.000  -0.000   0.000   0.000   0.000   0.000   0.000   0.000
 total augmentation occupancy for first ion, spin component:            1
  2.385  -0.484   0.000   0.472  -0.000  -0.000  -0.094  -0.000   0.000  -0.000   0.048   0.000  -0.000
 -0.484   0.570  -0.000  -0.554  -0.000  -0.000   0.088  -0.000  -0.000   0.000  -0.035  -0.000  -0.001
  0.000  -0.000   0.793  -0.000   0.000  -0.114   0.000  -0.000  -0.000   0.024   0.000   0.000   0.000
  0.472  -0.554  -0.000   1.510   0.000   0.000  -0.234   0.000  -0.000  -0.000   0.176   0.000   0.001
 -0.000  -0.000   0.000   0.000   0.788   0.000  -0.000  -0.113  -0.000   0.000   0.000   0.024  -0.000
 -0.000  -0.000  -0.114   0.000   0.000   0.018  -0.000   0.000  -0.000  -0.004   0.000  -0.000  -0.000
 -0.094   0.088   0.000  -0.234  -0.000  -0.000   0.043  -0.000  -0.000   0.000  -0.029  -0.000  -0.000
 -0.000  -0.000  -0.000   0.000  -0.113   0.000  -0.000   0.018   0.000  -0.000   0.000  -0.004   0.000
  0.000  -0.000  -0.000  -0.000  -0.000  -0.000  -0.000   0.000   0.018   0.000  -0.000  -0.000   0.000
 -0.000   0.000   0.024  -0.000   0.000  -0.004   0.000  -0.000   0.000   0.010  -0.000   0.000   0.000
  0.048  -0.035   0.000   0.176   0.000   0.000  -0.029   0.000  -0.000  -0.000   0.032   0.000   0.000
  0.000  -0.000   0.000   0.000   0.024  -0.000  -0.000  -0.004  -0.000   0.000   0.000   0.010   0.000
 -0.000  -0.001   0.000   0.001  -0.000  -0.000  -0.000   0.000   0.000   0.000   0.000   0.000   0.004


------------------------ aborting loop because EDIFF is reached ----------------------------------------


    CHARGE:  cpu time      0.0040: real time      0.0041
    FORLOC:  cpu time      0.0001: real time      0.0001
    FORNL :  cpu time      0.0196: real time      0.0197
    STRESS:  cpu time      0.2001: real time      0.2011
    FORCOR:  cpu time      0.0033: real time      0.0033
    FORHAR:  cpu time      0.0009: real time      0.0009
    MIXING:  cpu time      0.0032: real time      0.0032
    OFIELD:  cpu time      0.0000: real time      0.0000

  FORCE on cell =-STRESS in cart. coord.  units (eV):
  Direction    XX          YY          ZZ          XY          YZ          ZX
  --------------------------------------------------------------------------------------
  Alpha Z    80.36687    80.36687    80.36687
  Ewald    -489.02026  -480.34985  -419.67225     0.00000    -0.00000    -0.00000
  Hartree    44.21249    52.19616    44.23101     0.00000     0.00000     0.00000
  E(xc)    -138.52240  -138.55369  -140.19633    -0.00000     0.00000    -0.00000
  Local    -114.13784  -131.15222  -183.79241    -0.00000     0.00000    -0.00000
  n-local   232.23470   232.32391   244.72238     0.00000    -0.00000     0.00000
  augment   -11.64170   -11.68508   -12.20586     0.00000    -0.00000    -0.00000
  Kinetic   388.01363   388.91212   388.47821     0.00000    -0.00000     0.00000
  Fock        0.00000     0.00000     0.00000     0.00000     0.00000     0.00000
  -------------------------------------------------------------------------------------
  Total      -8.49452    -7.94177     1.93163     0.00000     0.00000    -0.00000
  in kB     -64.55040   -60.35004    14.67860     0.00000     0.00000    -0.00000
  external pressure =      -36.74 kB  Pullay stress =        0.00 kB


 VOLUME and BASIS-vectors are now :
 -----------------------------------------------------------------------------
  energy-cutoff  :      360.00
  volume of cell :      210.84
      direct lattice vectors                 reciprocal lattice vectors
     4.350000000  0.000000000  0.000000000     0.229885057  0.000000000  0.000000000
     0.000000000  4.350000000  0.000000000     0.000000000  0.229885057  0.000000000
     0.000000000  0.000000000 11.142221000     0.000000000  0.000000000  0.089748713

  length of vectors
     4.350000000  4.350000000 11.142221000     0.229885057  0.229885057  0.089748713


 FORCES acting on ions
    electron-ion (+dipol)            ewald-force                    non-local-force                 convergence-correction
 -----------------------------------------------------------------------------------------------
   -.137E-08 -.440E-06 0.294E+02   0.126E-14 -.769E-15 -.320E+02   -.257E-08 0.268E-06 0.255E+01   -.233E-08 0.209E-06 0.836E-03
   0.115E-07 -.323E-06 -.294E+02   0.867E-15 -.103E-15 0.320E+02   -.265E-07 0.164E-06 -.255E+01   0.245E-08 0.148E-06 -.840E-03
   -.581E-07 0.350E-07 -.294E+02   0.552E-16 0.787E-15 0.320E+02   0.673E-07 0.514E-08 -.255E+01   0.205E-07 -.373E-07 -.835E-03
   -.240E-07 0.194E-06 0.294E+02   0.233E-14 -.144E-15 -.320E+02   0.245E-07 -.743E-07 0.255E+01   0.430E-07 -.112E-06 0.840E-03
   0.663E-06 -.436E-06 -.327E+02   -.344E-15 -.119E-14 0.349E+02   -.499E-06 0.372E-06 -.215E+01   -.341E-06 0.175E-06 0.872E-03
   0.403E-06 -.529E-06 0.327E+02   0.342E-15 0.153E-14 -.349E+02   -.294E-06 0.367E-06 0.215E+01   -.266E-06 0.235E-06 -.879E-03
   0.187E-07 -.262E-06 0.327E+02   0.127E-15 0.849E-15 -.349E+02   -.579E-07 0.117E-06 0.215E+01   -.436E-07 0.178E-06 -.872E-03
   0.215E-06 0.105E-06 -.327E+02   0.409E-15 -.340E-15 0.349E+02   -.236E-06 -.783E-07 -.215E+01   -.902E-07 -.772E-07 0.879E-03
 -----------------------------------------------------------------------------------------------
   0.123E-05 -.166E-05 -.547E-06   0.505E-14 0.620E-15 0.355E-13   -.102E-05 0.114E-05 -.487E-06   -.677E-06 0.719E-06 0.126E-05
 
 
 POSITION                                       TOTAL-FORCE (eV/Angst)
 -----------------------------------------------------------------------------------
      0.00000      1.08750      1.58028         0.000000      0.000000      0.011558
      2.17500      3.26250      3.99083         0.000000     -0.000000     -0.011559
      0.00000      3.26250      9.56194         0.000000     -0.000000     -0.011558
      2.17500      1.08750      7.15139         0.000000     -0.000000      0.011559
      0.00000      1.08750      4.05409        -0.000000      0.000000      0.003664
      2.17500      3.26250      1.51702        -0.000000      0.000000     -0.003664
      0.00000      3.26250      7.08813        -0.000000      0.000000     -0.003664
      2.17500      1.08750      9.62520        -0.000000     -0.000000      0.003664
 -----------------------------------------------------------------------------------
    total drift:                               -0.000000      0.000000      0.000000


--------------------------------------------------------------------------------------------------------



  FREE ENERGIE OF THE ION-ELECTRON SYSTEM (eV)
  ---------------------------------------------------
  free  energy   TOTEN  =       -32.92088585 eV

  energy  without entropy=      -32.92088585  energy(sigma->0) =      -32.92088585
 


--------------------------------------------------------------------------------------------------------


    POTLOK:  cpu time      0.1135: real time      0.1138


--------------------------------------------------------------------------------------------------------


     LOOP+:  cpu time      4.8496: real time      4.8944
    4ORBIT:  cpu time      0.0000: real time      0.0000

 total amount of memory used by VASP MPI-rank0    39087. kBytes
=======================================================================

   base      :      30000. kBytes
   nonl-proj :       7163. kBytes
   fftplans  :        320. kBytes
   grid      :        462. kBytes
   one-center:         16. kBytes
   wavefun   :       1126. kBytes
 
  
  
 General timing and accounting informations for this job:
 ========================================================
  
                  Total CPU time used (sec):        5.752
                            User time (sec):        5.463
                          System time (sec):        0.289
                         Elapsed time (sec):        7.185
  
                   Maximum memory used (kb):      190808.
                   Average memory used (kb):          N/A
  
                          Minor page faults:        23412
                          Major page faults:           47
                 Voluntary context switches:         4055
