 running  128 mpi-ranks, with    1 threads/rank, on    2 nodes
 distrk:  each k-point on   64 cores,    2 groups
 distr:  one band on    8 cores,    8 groups
 vasp.6.4.2 20Jul23 (build Oct 12 2023 10:31:02) complex                         
 POSCAR found type information on POSCAR GeSe
 POSCAR found :  2 types and      72 ions
 Reading from existing POTCAR
 -----------------------------------------------------------------------------
|                                                                             |
|           W    W    AA    RRRRR   N    N  II  N    N   GGGG   !!!           |
|           W    W   A  A   R    R  NN   N  II  NN   N  G    G  !!!           |
|           W    W  A    A  R    R  N N  N  II  N N  N  G       !!!           |
|           W WW W  AAAAAA  RRRRR   N  N N  II  N  N N  G  GGG   !            |
|           WW  WW  A    A  R   R   N   NN  II  N   NN  G    G                |
|           W    W  A    A  R    R  N    N  II  N    N   GGGG   !!!           |
|                                                                             |
|     You use a magnetic or noncollinear calculation, but did not specify     |
|     the initial magnetic moment with the MAGMOM tag. Note that a            |
|     default of 1 will be used for all atoms. This ferromagnetic setup       |
|     may break the symmetry of the crystal, in particular it may rule        |
|     out finding an antiferromagnetic solution. Thence, we recommend         |
|     setting the initial magnetic moment manually or verifying carefully     |
|     that this magnetic setup is desired.                                    |
|                                                                             |
 -----------------------------------------------------------------------------

 scaLAPACK will be used
 Reading from existing POTCAR
 -----------------------------------------------------------------------------
|                                                                             |
|               ----> ADVICE to this user running VASP <----                  |
|                                                                             |
|     You have a (more or less) 'large supercell' and for larger cells it     |
|     might be more efficient to use real-space projection operators.         |
|     Therefore, try LREAL= Auto in the INCAR file.                           |
|     Mind: For very accurate calculation, you might also keep the            |
|     reciprocal projection scheme (i.e. LREAL=.FALSE.).                      |
|                                                                             |
 -----------------------------------------------------------------------------

 LDA part: xc-table for Pade appr. of Perdew
 -----------------------------------------------------------------------------
|                                                                             |
|           W    W    AA    RRRRR   N    N  II  N    N   GGGG   !!!           |
|           W    W   A  A   R    R  NN   N  II  NN   N  G    G  !!!           |
|           W    W  A    A  R    R  N N  N  II  N N  N  G       !!!           |
|           W WW W  AAAAAA  RRRRR   N  N N  II  N  N N  G  GGG   !            |
|           WW  WW  A    A  R   R   N   NN  II  N   NN  G    G                |
|           W    W  A    A  R    R  N    N  II  N    N   GGGG   !!!           |
|                                                                             |
|     The number of bands has been changed from the values supplied in        |
|     the INCAR file. This is a result of running the parallel version.       |
|     The orbitals not found in the WAVECAR file will be initialized with     |
|     random numbers, which is usually adequate. For correlated               |
|     calculations, however, you should redo the groundstate calculation.     |
|     I found NBANDS = 220. Now, NBANDS = 224.                                |
|                                                                             |
 -----------------------------------------------------------------------------

 POSCAR, INCAR and KPOINTS ok, starting setup
 FFT: planning ... GRIDC
 FFT: planning ... GRID_SOFT
 FFT: planning ... GRID
 WAVECAR not read
 WARNING: random wavefunctions but no delay for mixing, default for NELMDL
 entering main loop
       N       E                     dE             d eps       ncg     rms          rms(c)
DAV:   1     0.181193706028E+04    0.18119E+04   -0.14202E+05  7168   0.135E+03
DAV:   2    -0.616115793089E+02   -0.18735E+04   -0.18002E+04  8464   0.205E+02
DAV:   3    -0.277143635952E+03   -0.21553E+03   -0.20877E+03  8656   0.688E+01
DAV:   4    -0.285067666841E+03   -0.79240E+01   -0.78190E+01  8688   0.130E+01
DAV:   5    -0.285382740330E+03   -0.31507E+00   -0.31412E+00  9096   0.216E+00    0.295E+01
DAV:   6    -0.283557008241E+03    0.18257E+01   -0.28596E+01  8080   0.815E+00    0.174E+01
DAV:   7    -0.291567738235E+03   -0.80107E+01   -0.10017E+01  8064   0.481E+00    0.921E+00
DAV:   8    -0.294668372175E+03   -0.31006E+01   -0.17128E+00  8200   0.231E+00    0.361E+00
DAV:   9    -0.295104450745E+03   -0.43608E+00   -0.46293E-01  8912   0.108E+00    0.152E+00
DAV:  10    -0.295214529158E+03   -0.11008E+00   -0.10272E-01  8416   0.488E-01    0.753E-01
DAV:  11    -0.295247224082E+03   -0.32695E-01   -0.38029E-02  8872   0.298E-01    0.324E-01
DAV:  12    -0.295251159351E+03   -0.39353E-02   -0.48178E-03  8720   0.126E-01    0.144E-01
DAV:  13    -0.295251542714E+03   -0.38336E-03   -0.91753E-04  9464   0.479E-02    0.580E-02
DAV:  14    -0.295251592897E+03   -0.50184E-04   -0.15108E-04  8408   0.231E-02    0.201E-02
DAV:  15    -0.295251598278E+03   -0.53804E-05   -0.23921E-05  8312   0.108E-02    0.996E-03
DAV:  16    -0.295251598783E+03   -0.50557E-06   -0.27784E-06  5672   0.342E-03
   1 F= -.29525160E+03 E0= -.29525160E+03  d E =-.357478E-11  mag=     0.0005
