 running  128 mpi-ranks, with    1 threads/rank, on    2 nodes
 distrk:  each k-point on   64 cores,    2 groups
 distr:  one band on    4 cores,   16 groups
 vasp.6.4.2 20Jul23 (build Oct 12 2023 10:31:02) complex                         
 POSCAR found type information on POSCAR GeSe
 POSCAR found :  2 types and       8 ions
 Reading from existing POTCAR
 scaLAPACK will be used
 Reading from existing POTCAR
 LDA part: xc-table for Pade appr. of Perdew
 POSCAR, INCAR and KPOINTS ok, starting setup
 FFT: planning ... GRIDC
 FFT: planning ... GRID_SOFT
 FFT: planning ... GRID
 WAVECAR not read
 entering main loop
       N       E                     dE             d eps       ncg     rms          rms(c)
DAV:   1     0.131679452033E+03    0.13168E+03   -0.12645E+04  2560   0.766E+02
DAV:   2    -0.249921710978E+02   -0.15667E+03   -0.15188E+03  3792   0.136E+02
DAV:   3    -0.340219620587E+02   -0.90298E+01   -0.90113E+01  3104   0.384E+01
DAV:   4    -0.340872951618E+02   -0.65333E-01   -0.65325E-01  3232   0.375E+00
DAV:   5    -0.340877129282E+02   -0.41777E-03   -0.41776E-03  3152   0.293E-01    0.612E+00
DAV:   6    -0.335782486225E+02    0.50946E+00   -0.11083E+00  2976   0.345E+00    0.380E+00
DAV:   7    -0.335688098888E+02    0.94387E-02   -0.26068E-01  3040   0.179E+00    0.152E+00
DAV:   8    -0.335683569364E+02    0.45295E-03   -0.25979E-02  2928   0.623E-01    0.178E-01
DAV:   9    -0.335683729245E+02   -0.15988E-04   -0.44992E-03  3072   0.280E-01    0.708E-02
DAV:  10    -0.335685083036E+02   -0.13538E-03   -0.47997E-04  2944   0.959E-02    0.238E-02
DAV:  11    -0.335685306386E+02   -0.22335E-04   -0.43111E-05  2816   0.299E-02    0.135E-02
DAV:  12    -0.335685307273E+02   -0.88660E-07   -0.91850E-06  3184   0.127E-02
   1 F= -.33568531E+02 E0= -.33568531E+02  d E =-.998905E-13
