 running  256 mpi-ranks, with    1 threads/rank, on    7 nodes
 distrk:  each k-point on  128 cores,    2 groups
 distr:  one band on    4 cores,   32 groups
 vasp.6.4.1 05Apr23 (build May 18 2023 13:19:41) complex                         
 POSCAR found type information on POSCAR C S O 
 POSCAR found :  3 types and     366 ions
 Reading from existing POTCAR
 scaLAPACK will be used
 Reading from existing POTCAR
 -----------------------------------------------------------------------------
|                                                                             |
|               ----> ADVICE to this user running VASP <----                  |
|                                                                             |
|     You have a (more or less) 'large supercell' and for larger cells it     |
|     might be more efficient to use real-space projection operators.         |
|     Therefore, try LREAL= Auto in the INCAR file.                           |
|     Mind: If you want to do very accurate calculations, keep the            |
|     reciprocal projection scheme (i.e. LREAL=.FALSE.).                      |
|                                                                             |
 -----------------------------------------------------------------------------

 LDA part: xc-table for Pade appr. of Perdew
 POSCAR, INCAR and KPOINTS ok, starting setup
 FFT: planning ... GRIDC
 FFT: planning ... GRID_SOFT
 FFT: planning ... GRID
 WAVECAR not read
 WARNING: random wavefunctions but no delay for mixing, default for NELMDL
 entering main loop
       N       E                     dE             d eps       ncg     rms          rms(c)
DAV:   1     0.131805680707E+05    0.13181E+05   -0.45339E+05  4544   0.936E+02
DAV:   2     0.101839916955E+03   -0.13079E+05   -0.12294E+05  5248   0.240E+02
DAV:   3    -0.335806068424E+04   -0.34599E+04   -0.34023E+04  4512   0.131E+02
DAV:   4    -0.354612922498E+04   -0.18807E+03   -0.18511E+03  4320   0.392E+01
DAV:   5    -0.355127221558E+04   -0.51430E+01   -0.50835E+01  4768   0.581E+00    0.746E+01
DAV:   6    -0.337949348162E+04    0.17178E+03   -0.17111E+02  3936   0.121E+01    0.392E+01
DAV:   7    -0.331824455498E+04    0.61249E+02   -0.18727E+02  4064   0.124E+01    0.731E+00
DAV:   8    -0.331773173234E+04    0.51282E+00   -0.63803E+00  4416   0.283E+00    0.390E+00
DAV:   9    -0.331723867665E+04    0.49306E+00   -0.93200E-01  4160   0.101E+00    0.127E+00
DAV:  10    -0.331714463718E+04    0.94039E-01   -0.17974E-01  4416   0.468E-01    0.658E-01
DAV:  11    -0.331713656435E+04    0.80728E-02   -0.71326E-02  4192   0.272E-01    0.453E-01
DAV:  12    -0.331716430124E+04   -0.27737E-01   -0.48950E-02  3904   0.209E-01    0.238E-01
DAV:  13    -0.331719306861E+04   -0.28767E-01   -0.17254E-02  3808   0.121E-01    0.149E-01
DAV:  14    -0.331721682748E+04   -0.23759E-01   -0.11100E-02  3904   0.863E-02    0.970E-02
DAV:  15    -0.331723945525E+04   -0.22628E-01   -0.16348E-03  3936   0.444E-02    0.615E-02
DAV:  16    -0.331727327095E+04   -0.33816E-01   -0.27360E-03  3968   0.338E-02    0.382E-02
DAV:  17    -0.331729168017E+04   -0.18409E-01   -0.17170E-03  3936   0.253E-02    0.182E-02
DAV:  18    -0.331729887554E+04   -0.71954E-02   -0.45048E-04  4224   0.123E-02    0.112E-02
DAV:  19    -0.331730184117E+04   -0.29656E-02   -0.10212E-04  4032   0.655E-03    0.594E-03
DAV:  20    -0.331730407553E+04   -0.22344E-02   -0.98227E-05  3904   0.553E-03    0.439E-03
DAV:  21    -0.331730479824E+04   -0.72272E-03   -0.22990E-05  3456   0.293E-03    0.224E-03
DAV:  22    -0.331730516437E+04   -0.36612E-03   -0.97474E-06  3392   0.212E-03    0.167E-03
DAV:  23    -0.331730524879E+04   -0.84425E-04   -0.82962E-07  3136   0.104E-03    0.776E-04
DAV:  24    -0.331730529135E+04   -0.42561E-04    0.48182E-07  2432   0.665E-04    0.416E-04
DAV:  25    -0.331730532611E+04   -0.34755E-04    0.36305E-07  2464   0.536E-04    0.286E-04
DAV:  26    -0.331730533657E+04   -0.10461E-04    0.68140E-07  2496   0.329E-04    0.172E-04
DAV:  27    -0.331730535228E+04   -0.15707E-04    0.67318E-07  2400   0.328E-04    0.145E-04
DAV:  28    -0.331730535607E+04   -0.37878E-05    0.73224E-07  2272   0.182E-04    0.734E-05
DAV:  29    -0.331730535971E+04   -0.36467E-05    0.73778E-07  2208   0.145E-04    0.700E-05
DAV:  30    -0.331730536060E+04   -0.88918E-06    0.74542E-07  2272   0.792E-05
   1 F= -.33314223E+04 E0= -.33314223E+04  d E =-.578159E-26
 writing wavefunctions
 PROFILE, used timers:     331
