 vasp.6.4.2 20Jul23 (build Oct 12 2023 10:31:02) complex                         
 executed on              LinuxNV date 2025.05.18  12:38:35
 running  160 mpi-ranks, with    1 threads/rank, on   10 nodes
 distrk:  each k-point on   80 cores,    2 groups
 distr:  one band on NCORE=   5 cores,   16 groups


--------------------------------------------------------------------------------------------------------


 INCAR:
   ENCUT = 520.000000
   SIGMA = 0.050000
   EDIFF = 1.00e-06
   ALGO = Normal
   GGA = PE
   PREC = Normal
   SYSTEM = ./
   ICHARG = 2
   ISMEAR = 0
   ISPIN = 1
   ISTART = 0
   ISYM = 0
   KPAR = 2
   LMAXMIX = 4
   NELM = 100
   NPAR = 16
   LASPH = .TRUE.
   LCHARG = .FALSE.
   LWAVE = .FALSE.

 POTCAR:    PAW_PBE Ge 05Jan2001                  
 POTCAR:    PAW_PBE Se 06Sep2000                  
 POTCAR:    PAW_PBE Ge 05Jan2001                  
   VRHFIN =Ge: s2p2                                                                                 
   LEXCH  = PE                                                                                      
   EATOM  =   104.9960 eV,    7.7170 Ry                                                             
                                                                                                    
   TITEL  = PAW_PBE Ge 05Jan2001                                                                    
   LULTRA =        F    use ultrasoft PP ?                                                          
   IUNSCR =        1    unscreen: 0-lin 1-nonlin 2-no                                               
   RPACOR =    2.170    partial core radius                                                         
   POMASS =   72.610; ZVAL   =    4.000    mass and valenz                                          
   RCORE  =    2.300    outmost cutoff radius                                                       
   RWIGS  =    2.300; RWIGS  =    1.217    wigner-seitz radius (au A)                               
   ENMAX  =  173.807; ENMIN  =  130.355 eV                                                          
   ICORE  =        3    local potential                                                             
   LCOR   =        T    correct aug charges                                                         
   LPAW   =        T    paw PP                                                                      
   EAUG   =  385.843                                                                                
   DEXC   =    0.000                                                                                
   RMAX   =    2.342    core radius for proj-oper                                                   
   RAUG   =    1.300    factor for augmentation sphere                                              
   RDEP   =    2.318    radius for radial grids                                                     
   RDEPT  =    2.103    core radius for aug-charge                                                  
                                                                                                    
   Atomic configuration                                                                             
   10 entries                                                                                       
     n  l   j            E        occ.                                                              
     1  0  0.50    -10959.8463   2.0000                                                             
     2  0  0.50     -1371.6056   2.0000                                                             
     2  1  1.50     -1198.4791   6.0000                                                             
     3  0  0.50      -168.4733   2.0000                                                             
     3  1  1.50      -115.6019   6.0000                                                             
     3  2  2.50       -29.3106  10.0000                                                             
     4  0  0.50       -11.7309   2.0000                                                             
     4  1  0.50        -3.8952   2.0000                                                             
     4  2  1.50        -4.0817   0.0000                                                             
     4  3  2.50        -4.0817   0.0000                                                             
   Description                                                                                      
     l       E           TYP  RCUT    TYP  RCUT                                                     
     0    -11.7309493     23  2.300                                                                 
     0     -7.4578696     23  2.300                                                                 
     1     -3.8952261     23  2.300                                                                 
     1      6.1178114     23  2.300                                                                 
     2     -4.0817478     23  2.300                                                                 
     3     -1.3605826      7  2.300                                                                 
  local pseudopotential read in
  partial core-charges read in
  partial kinetic energy density read in
  atomic valenz-charges read in
  non local Contribution for L=            0  read in
    real space projection operators read in
  non local Contribution for L=            0  read in
    real space projection operators read in
  non local Contribution for L=            1  read in
    real space projection operators read in
  non local Contribution for L=            1  read in
    real space projection operators read in
  non local Contribution for L=            2  read in
    real space projection operators read in
    PAW grid and wavefunctions read in
 
   number of l-projection  operators is LMAX  =            5
   number of lm-projection operators is LMMAX =           13
 
 POTCAR:    PAW_PBE Se 06Sep2000                  
   VRHFIN =Se: s2p4                                                                                 
   LEXCH  = PE                                                                                      
   EATOM  =   257.1286 eV,   18.8984 Ry                                                             
                                                                                                    
   TITEL  = PAW_PBE Se 06Sep2000                                                                    
   LULTRA =        F    use ultrasoft PP ?                                                          
   IUNSCR =        1    unscreen: 0-lin 1-nonlin 2-no                                               
   RPACOR =    1.900    partial core radius                                                         
   POMASS =   78.960; ZVAL   =    6.000    mass and valenz                                          
   RCORE  =    2.100    outmost cutoff radius                                                       
   RWIGS  =    2.200; RWIGS  =    1.164    wigner-seitz radius (au A)                               
   ENMAX  =  211.555; ENMIN  =  158.666 eV                                                          
   ICORE  =        3    local potential                                                             
   LCOR   =        T    correct aug charges                                                         
   LPAW   =        T    paw PP                                                                      
   EAUG   =  446.842                                                                                
   DEXC   =    0.000                                                                                
   RMAX   =    2.147    core radius for proj-oper                                                   
   RAUG   =    1.300    factor for augmentation sphere                                              
   RDEP   =    2.177    radius for radial grids                                                     
   RDEPT  =    1.928    core radius for aug-charge                                                  
                                                                                                    
   Atomic configuration                                                                             
   10 entries                                                                                       
     n  l   j            E        occ.                                                              
     1  0  0.50    -12503.4787   2.0000                                                             
     2  0  0.50     -1606.9547   2.0000                                                             
     2  1  1.50     -1413.3140   6.0000                                                             
     3  0  0.50      -213.4885   2.0000                                                             
     3  1  1.50      -152.9538   6.0000                                                             
     3  2  2.50       -53.1221  10.0000                                                             
     4  0  0.50       -17.2865   2.0000                                                             
     4  1  0.50        -6.5110   4.0000                                                             
     4  2  2.50        -6.8029   0.0000                                                             
     4  3  2.50        -6.8029   0.0000                                                             
   Description                                                                                      
     l       E           TYP  RCUT    TYP  RCUT                                                     
     0    -17.2865377     23  2.100                                                                 
     0    -15.3094411     23  2.100                                                                 
     1     -6.5110275     23  2.100                                                                 
     1     -0.0695192     23  2.100                                                                 
     2     -6.8029130     23  2.100                                                                 
     3     -1.3605826      7  2.100                                                                 
  local pseudopotential read in
  partial core-charges read in
  partial kinetic energy density read in
  atomic valenz-charges read in
  non local Contribution for L=            0  read in
    real space projection operators read in
  non local Contribution for L=            0  read in
    real space projection operators read in
  non local Contribution for L=            1  read in
    real space projection operators read in
  non local Contribution for L=            1  read in
    real space projection operators read in
  non local Contribution for L=            2  read in
    real space projection operators read in
    PAW grid and wavefunctions read in
 
   number of l-projection  operators is LMAX  =            5
   number of lm-projection operators is LMMAX =           13
 
  PAW_PBE Ge 05Jan2001                  :
 energy of atom  1       EATOM= -104.9960
 kinetic energy error for atom=    0.0002 (will be added to EATOM!!)
  PAW_PBE Se 06Sep2000                  :
 energy of atom  2       EATOM= -257.1286
 kinetic energy error for atom=    0.0007 (will be added to EATOM!!)
 
 
 POSCAR: Ge Se
  positions in cartesian coordinates
  No initial velocities read in
 exchange correlation table for  LEXCH =        8
   RHO(1)=    0.500       N(1)  =     2000
   RHO(2)=  100.500       N(2)  =     4000
 


--------------------------------------------------------------------------------------------------------


 ion  position               nearest neighbor table
   1  0.801  0.013  0.123-   6 2.60   6 2.60   5 2.60   3 2.79
   2  0.301  0.513  0.377-   5 2.60   5 2.60   6 2.60   4 2.79
   3  0.750  0.886  0.877-   8 2.60   8 2.60   7 2.60   1 2.79
   4  0.250  0.386  0.623-   7 2.60   7 2.60   8 2.60   2 2.79
   5  0.801  0.892  0.352-   2 2.60   2 2.60   1 2.60
   6  0.301  0.392  0.148-   1 2.60   1 2.60   2 2.60
   7  0.750  0.007  0.648-   4 2.60   4 2.60   3 2.60
   8  0.250  0.507  0.852-   3 2.60   3 2.60   4 2.60
 

IMPORTANT INFORMATION: All symmetrisations will be switched off!
NOSYMM: (Re-)initialisation of all symmetry stuff for point group C_1.


----------------------------------------------------------------------------------------

                                     Primitive cell                                     

  volume of cell :     193.5913

  direct lattice vectors                    reciprocal lattice vectors
     3.858100176  0.000000000  0.000000000     0.259194929  0.000000000  0.000000000
     0.000000000  4.526575088  0.000000000     0.000000000  0.220917577  0.000000000
     0.000000000  0.000000000 11.085176468     0.000000000  0.000000000  0.090210562

  length of vectors
     3.858100176  4.526575088 11.085176468     0.259194929  0.220917577  0.090210562

  position of ions in fractional coordinates (direct lattice)
     0.800724638  0.012671159  0.122982664
     0.300724638  0.512671159  0.377017336
     0.750000000  0.885879566  0.877017336
     0.250000000  0.385879566  0.622982664
     0.800724638  0.891860614  0.352381810
     0.300724638  0.391860614  0.147618190
     0.750000000  0.006690111  0.647618190
     0.250000000  0.506690111  0.852381810

  ion indices of the primitive-cell ions
   primitive index   ion index
                 1           1
                 2           2
                 3           3
                 4           4
                 5           5
                 6           6
                 7           7
                 8           8

----------------------------------------------------------------------------------------

 
 
 KPOINTS: KPOINTS created by Atomic Simulation Env

Automatic generation of k-mesh.
 Grid dimensions read from file:
 generate k-points for:    6    6    2

 Generating k-lattice:

  Cartesian coordinates                     Fractional coordinates (reciprocal lattice)
     0.043199155  0.000000000  0.000000000     0.166666667  0.000000000  0.000000000
     0.000000000  0.036819596  0.000000000     0.000000000  0.166666667  0.000000000
     0.000000000  0.000000000  0.045105281     0.000000000  0.000000000  0.500000000

  Length of vectors
     0.043199155  0.036819596  0.045105281

  Shift w.r.t. Gamma in fractional coordinates (k-lattice)
     0.000000000  0.000000000  0.000000000

 
 Subroutine IBZKPT returns following result:
 ===========================================
 
 Found     40 irreducible k-points:
 
 Following reciprocal coordinates:
            Coordinates               Weight
  0.000000  0.000000  0.000000      1.000000
  0.166667  0.000000  0.000000      2.000000
  0.333333  0.000000  0.000000      2.000000
  0.500000  0.000000  0.000000      1.000000
  0.000000  0.166667  0.000000      2.000000
  0.166667  0.166667  0.000000      2.000000
  0.166667 -0.166667  0.000000      2.000000
  0.333333  0.166667  0.000000      2.000000
  0.333333 -0.166667  0.000000      2.000000
  0.500000  0.166667  0.000000      2.000000
  0.000000  0.333333  0.000000      2.000000
  0.166667  0.333333  0.000000      2.000000
  0.166667 -0.333333  0.000000      2.000000
  0.333333  0.333333  0.000000      2.000000
  0.333333 -0.333333  0.000000      2.000000
  0.500000  0.333333  0.000000      2.000000
  0.000000  0.500000  0.000000      1.000000
  0.166667  0.500000  0.000000      2.000000
  0.333333  0.500000  0.000000      2.000000
  0.500000  0.500000  0.000000      1.000000
  0.000000  0.000000  0.500000      1.000000
  0.166667  0.000000  0.500000      2.000000
  0.333333  0.000000  0.500000      2.000000
  0.500000  0.000000  0.500000      1.000000
  0.000000  0.166667  0.500000      2.000000
  0.166667  0.166667  0.500000      2.000000
  0.166667 -0.166667  0.500000      2.000000
  0.333333  0.166667  0.500000      2.000000
  0.333333 -0.166667  0.500000      2.000000
  0.500000  0.166667  0.500000      2.000000
  0.000000  0.333333  0.500000      2.000000
  0.166667  0.333333  0.500000      2.000000
  0.166667 -0.333333  0.500000      2.000000
  0.333333  0.333333  0.500000      2.000000
  0.333333 -0.333333  0.500000      2.000000
  0.500000  0.333333  0.500000      2.000000
  0.000000  0.500000  0.500000      1.000000
  0.166667  0.500000  0.500000      2.000000
  0.333333  0.500000  0.500000      2.000000
  0.500000  0.500000  0.500000      1.000000
 
 Following cartesian coordinates:
            Coordinates               Weight
  0.000000  0.000000  0.000000      1.000000
  0.043199  0.000000  0.000000      2.000000
  0.086398  0.000000  0.000000      2.000000
  0.129597  0.000000  0.000000      1.000000
  0.000000  0.036820  0.000000      2.000000
  0.043199  0.036820  0.000000      2.000000
  0.043199 -0.036820  0.000000      2.000000
  0.086398  0.036820  0.000000      2.000000
  0.086398 -0.036820  0.000000      2.000000
  0.129597  0.036820  0.000000      2.000000
  0.000000  0.073639  0.000000      2.000000
  0.043199  0.073639  0.000000      2.000000
  0.043199 -0.073639  0.000000      2.000000
  0.086398  0.073639  0.000000      2.000000
  0.086398 -0.073639  0.000000      2.000000
  0.129597  0.073639  0.000000      2.000000
  0.000000  0.110459  0.000000      1.000000
  0.043199  0.110459  0.000000      2.000000
  0.086398  0.110459  0.000000      2.000000
  0.129597  0.110459  0.000000      1.000000
  0.000000  0.000000  0.045105      1.000000
  0.043199  0.000000  0.045105      2.000000
  0.086398  0.000000  0.045105      2.000000
  0.129597  0.000000  0.045105      1.000000
  0.000000  0.036820  0.045105      2.000000
  0.043199  0.036820  0.045105      2.000000
  0.043199 -0.036820  0.045105      2.000000
  0.086398  0.036820  0.045105      2.000000
  0.086398 -0.036820  0.045105      2.000000
  0.129597  0.036820  0.045105      2.000000
  0.000000  0.073639  0.045105      2.000000
  0.043199  0.073639  0.045105      2.000000
  0.043199 -0.073639  0.045105      2.000000
  0.086398  0.073639  0.045105      2.000000
  0.086398 -0.073639  0.045105      2.000000
  0.129597  0.073639  0.045105      2.000000
  0.000000  0.110459  0.045105      1.000000
  0.043199  0.110459  0.045105      2.000000
  0.086398  0.110459  0.045105      2.000000
  0.129597  0.110459  0.045105      1.000000
 


--------------------------------------------------------------------------------------------------------




 Dimension of arrays:
   k-points           NKPTS =     40   k-points in BZ     NKDIM =     40   number of bands    NBANDS=     32
   number of dos      NEDOS =    301   number of ions     NIONS =      8
   non local maximal  LDIM  =      5   non local SUM 2l+1 LMDIM =     13
   total plane-waves  NPLWV =  43008
   max r-space proj   IRMAX =      1   max aug-charges    IRDMAX=  12272
   dimension x,y,z NGX =    24 NGY =   28 NGZ =   64
   dimension x,y,z NGXF=    48 NGYF=   56 NGZF=  128
   support grid    NGXF=    48 NGYF=   56 NGZF=  128
   ions per type =               4   4
   NGX,Y,Z   is equivalent  to a cutoff of  10.34, 10.28,  9.60 a.u.
   NGXF,Y,Z  is equivalent  to a cutoff of  20.68, 20.57, 19.20 a.u.

 SYSTEM =  ./                                      
 POSCAR =  Ge Se                                   

 Startparameter for this run:
   NWRITE =      2    write-flag & timer
   PREC   = normal    normal or accurate (medium, high low for compatibility)
   ISTART =      0    job   : 0-new  1-cont  2-samecut
   ICHARG =      2    charge: 1-file 2-atom 10-const
   ISPIN  =      1    spin polarized calculation?
   LNONCOLLINEAR =      F non collinear calculations
   LSORBIT =      F    spin-orbit coupling
   INIWAV =      1    electr: 0-lowe 1-rand  2-diag
   LASPH  =      T    aspherical Exc in radial PAW
 Electronic Relaxation 1
   ENCUT  =  520.0 eV  38.22 Ry    6.18 a.u.   7.17  8.42 20.61*2*pi/ulx,y,z
   ENINI  =  520.0     initial cutoff
   ENAUG  =  446.8 eV  augmentation charge cutoff
   NELM   =    100;   NELMIN=  2; NELMDL= -5     # of ELM steps 
   EDIFF  = 0.1E-05   stopping-criterion for ELM
   LREAL  =      F    real-space projection
   NLSPLINE    = F    spline interpolate recip. space projectors
   LCOMPAT=      F    compatible to vasp.4.4
   GGA_COMPAT  = T    GGA compatible to vasp.4.4-vasp.4.6
   LMAXPAW     = -100 max onsite density
   LMAXMIX     =    4 max onsite mixed and CHGCAR
   VOSKOWN=      0    Vosko Wilk Nusair interpolation
   ROPT   =    0.00000   0.00000
 Ionic relaxation
   EDIFFG = 0.1E-04   stopping-criterion for IOM
   NSW    =      0    number of steps for IOM
   NBLOCK =      1;   KBLOCK =      1    inner block; outer block 
   IBRION =     -1    ionic relax: 0-MD 1-quasi-New 2-CG
   NFREE  =      0    steps in history (QN), initial steepest desc. (CG)
   ISIF   =      2    stress and relaxation
   IWAVPR =     10    prediction:  0-non 1-charg 2-wave 3-comb
   ISYM   =      0    0-nonsym 1-usesym 2-fastsym
   LCORR  =      T    Harris-Foulkes like correction to forces

   POTIM  = 0.5000    time-step for ionic-motion
   TEIN   =    0.0    initial temperature
   TEBEG  =    0.0;   TEEND  =   0.0 temperature during run
   SMASS  =  -3.00    Nose mass-parameter (am)
   estimated Nose-frequenzy (Omega)   =  0.10E-29 period in steps = 0.13E+47 mass=  -0.340E-27a.u.
   SCALEE = 1.0000    scale energy and forces
   NPACO  =    256;   APACO  = 10.0  distance and # of slots for P.C.
   PSTRESS=    0.0 pullay stress

  Mass of Ions in am
   POMASS =  72.61 78.96
  Ionic Valenz
   ZVAL   =   4.00  6.00
  Atomic Wigner-Seitz radii
   RWIGS  =  -1.00 -1.00
  virtual crystal weights 
   VCA    =   1.00  1.00
   NELECT =      40.0000    total number of electrons
   NUPDOWN=      -1.0000    fix difference up-down

 DOS related values:
   EMIN   =  10.00;   EMAX   =-10.00  energy-range for DOS
   EFERMI =   0.00;   METHOD = LEGACY      
   ISMEAR =     0;   SIGMA  =   0.05  broadening in eV -4-tet -1-fermi 0-gaus

 Electronic relaxation 2 (details)
   IALGO  =     38    algorithm
   LDIAG  =      T    sub-space diagonalisation (order eigenvalues)
   LSUBROT=      F    optimize rotation matrix (better conditioning)
   TURBO    =      0    0=normal 1=particle mesh
   IRESTART =      0    0=no restart 2=restart with 2 vectors
   NREBOOT  =      0    no. of reboots
   NMIN     =      0    reboot dimension
   EREF     =   0.00    reference energy to select bands
   IMIX   =      4    mixing-type and parameters
     AMIX     =   0.40;   BMIX     =  1.00
     AMIX_MAG =   1.60;   BMIX_MAG =  1.00
     AMIN     =   0.10
     WC   =   100.;   INIMIX=   1;  MIXPRE=   1;  MAXMIX= -45

 Intra band minimization:
   WEIMIN = 0.0000     energy-eigenvalue tresh-hold
   EBREAK =  0.78E-08  absolut break condition
   DEPER  =   0.30     relativ break condition  

   TIME   =   0.40     timestep for ELM

  volume/ion in A,a.u.               =      24.20       163.30
  Fermi-wavevector in a.u.,A,eV,Ry     =   0.967831  1.828935 12.744535  0.936697
  Thomas-Fermi vector in A             =   2.097750
 
 Write flags
   LWAVE        =      F    write WAVECAR
   LDOWNSAMPLE  =      F    k-point downsampling of WAVECAR
   LCHARG       =      F    write CHGCAR
   LVTOT        =      F    write LOCPOT, total local potential
   LVHAR        =      F    write LOCPOT, Hartree potential only
   LELF         =      F    write electronic localiz. function (ELF)
   LORBIT       =      0    0 simple, 1 ext, 2 COOP (PROOUT), +10 PAW based schemes


 Dipole corrections
   LMONO  =      F    monopole corrections only (constant potential shift)
   LDIPOL =      F    correct potential (dipole corrections)
   IDIPOL =      0    1-x, 2-y, 3-z, 4-all directions 
   EPSILON=  1.0000000 bulk dielectric constant

 Exchange correlation treatment:
   GGA     =    PE    GGA type
   LEXCH   =     8    internal setting for exchange type
   LIBXC   =     F    Libxc                    
   VOSKOWN =     0    Vosko Wilk Nusair interpolation
   LHFCALC =     F    Hartree Fock is set to
   LHFONE  =     F    Hartree Fock one center treatment
   AEXX    =    0.0000 exact exchange contribution

 Linear response parameters
   LEPSILON=     F    determine dielectric tensor
   LRPA    =     F    only Hartree local field effects (RPA)
   LNABLA  =     F    use nabla operator in PAW spheres
   LVEL    =     F    velocity operator in full k-point grid
   CSHIFT  =0.1000    complex shift for real part using Kramers Kronig
   OMEGAMAX=  -1.0    maximum frequency
   DEG_THRESHOLD= 0.2000000E-02 threshold for treating states as degnerate
   RTIME   =   -0.100 relaxation time in fs
  (WPLASMAI=    0.000 imaginary part of plasma frequency in eV, 0.658/RTIME)
   DFIELD  = 0.0000000 0.0000000 0.0000000 field for delta impulse in time
 
  Optional k-point grid parameters
   LKPOINTS_OPT  =     F    use optional k-point grid
   KPOINTS_OPT_MODE=     1    mode for optional k-point grid
 
 Orbital magnetization related:
   ORBITALMAG=     F  switch on orbital magnetization
   LCHIMAG   =     F  perturbation theory with respect to B field
   DQ        =  0.001000  dq finite difference perturbation B field
   LLRAUG    =     F  two centre corrections for induced B field
   LBONE     =     F  B-component reconstruction in AE one-centre
   LVGVCALC  =     T  calculate vGv susceptibility
   LVGVAPPL  =     F  apply vGv susceptibility instead of pGv for G=0

 Random number generation:
   RANDOM_GENERATOR = DEFAULT
   PCG_SEED         = not used


--------------------------------------------------------------------------------------------------------


 Static calculation
 charge density and potential will be updated during run
 non-spin polarized calculation
 Variant of blocked Davidson
 Davidson routine will perform the subspace rotation
 perform sub-space diagonalisation
    after iterative eigenvector-optimisation
 modified Broyden-mixing scheme, WC =      100.0
 initial mixing is a Kerker type mixing with AMIX =  0.4000 and BMIX =      1.0000
 Hartree-type preconditioning will be used
 using additional bands            12
 reciprocal scheme for non local part
 use partial core corrections
 calculate Harris-corrections to forces 
   (improved forces if not selfconsistent)
 use gradient corrections 
 use of overlap-Matrix (Vanderbilt PP)
 Gauss-broadening in eV      SIGMA  =   0.05


--------------------------------------------------------------------------------------------------------


  energy-cutoff  :      520.00
  volume of cell :      193.59
      direct lattice vectors                 reciprocal lattice vectors
     3.858100176  0.000000000  0.000000000     0.259194929  0.000000000  0.000000000
     0.000000000  4.526575088  0.000000000     0.000000000  0.220917577  0.000000000
     0.000000000  0.000000000 11.085176468     0.000000000  0.000000000  0.090210562

  length of vectors
     3.858100176  4.526575088 11.085176468     0.259194929  0.220917577  0.090210562


 
 k-points in units of 2pi/SCALE and weight: KPOINTS created by Atomic Simulation Env
   0.00000000  0.00000000  0.00000000       0.014
   0.04319915  0.00000000  0.00000000       0.028
   0.08639831  0.00000000  0.00000000       0.028
   0.12959746  0.00000000  0.00000000       0.014
   0.00000000  0.03681960  0.00000000       0.028
   0.04319915  0.03681960  0.00000000       0.028
   0.04319915 -0.03681960  0.00000000       0.028
   0.08639831  0.03681960  0.00000000       0.028
   0.08639831 -0.03681960  0.00000000       0.028
   0.12959746  0.03681960  0.00000000       0.028
   0.00000000  0.07363919  0.00000000       0.028
   0.04319915  0.07363919  0.00000000       0.028
   0.04319915 -0.07363919  0.00000000       0.028
   0.08639831  0.07363919  0.00000000       0.028
   0.08639831 -0.07363919  0.00000000       0.028
   0.12959746  0.07363919  0.00000000       0.028
   0.00000000  0.11045879  0.00000000       0.014
   0.04319915  0.11045879  0.00000000       0.028
   0.08639831  0.11045879  0.00000000       0.028
   0.12959746  0.11045879  0.00000000       0.014
   0.00000000  0.00000000  0.04510528       0.014
   0.04319915  0.00000000  0.04510528       0.028
   0.08639831  0.00000000  0.04510528       0.028
   0.12959746  0.00000000  0.04510528       0.014
   0.00000000  0.03681960  0.04510528       0.028
   0.04319915  0.03681960  0.04510528       0.028
   0.04319915 -0.03681960  0.04510528       0.028
   0.08639831  0.03681960  0.04510528       0.028
   0.08639831 -0.03681960  0.04510528       0.028
   0.12959746  0.03681960  0.04510528       0.028
   0.00000000  0.07363919  0.04510528       0.028
   0.04319915  0.07363919  0.04510528       0.028
   0.04319915 -0.07363919  0.04510528       0.028
   0.08639831  0.07363919  0.04510528       0.028
   0.08639831 -0.07363919  0.04510528       0.028
   0.12959746  0.07363919  0.04510528       0.028
   0.00000000  0.11045879  0.04510528       0.014
   0.04319915  0.11045879  0.04510528       0.028
   0.08639831  0.11045879  0.04510528       0.028
   0.12959746  0.11045879  0.04510528       0.014
 
 k-points in reciprocal lattice and weights: KPOINTS created by Atomic Simulation Env
   0.00000000  0.00000000  0.00000000       0.014
   0.16666667  0.00000000  0.00000000       0.028
   0.33333333  0.00000000  0.00000000       0.028
   0.50000000  0.00000000  0.00000000       0.014
   0.00000000  0.16666667  0.00000000       0.028
   0.16666667  0.16666667  0.00000000       0.028
   0.16666667 -0.16666667  0.00000000       0.028
   0.33333333  0.16666667  0.00000000       0.028
   0.33333333 -0.16666667  0.00000000       0.028
   0.50000000  0.16666667  0.00000000       0.028
   0.00000000  0.33333333  0.00000000       0.028
   0.16666667  0.33333333  0.00000000       0.028
   0.16666667 -0.33333333  0.00000000       0.028
   0.33333333  0.33333333  0.00000000       0.028
   0.33333333 -0.33333333  0.00000000       0.028
   0.50000000  0.33333333  0.00000000       0.028
   0.00000000  0.50000000  0.00000000       0.014
   0.16666667  0.50000000  0.00000000       0.028
   0.33333333  0.50000000  0.00000000       0.028
   0.50000000  0.50000000  0.00000000       0.014
   0.00000000  0.00000000  0.50000000       0.014
   0.16666667  0.00000000  0.50000000       0.028
   0.33333333  0.00000000  0.50000000       0.028
   0.50000000  0.00000000  0.50000000       0.014
   0.00000000  0.16666667  0.50000000       0.028
   0.16666667  0.16666667  0.50000000       0.028
   0.16666667 -0.16666667  0.50000000       0.028
   0.33333333  0.16666667  0.50000000       0.028
   0.33333333 -0.16666667  0.50000000       0.028
   0.50000000  0.16666667  0.50000000       0.028
   0.00000000  0.33333333  0.50000000       0.028
   0.16666667  0.33333333  0.50000000       0.028
   0.16666667 -0.33333333  0.50000000       0.028
   0.33333333  0.33333333  0.50000000       0.028
   0.33333333 -0.33333333  0.50000000       0.028
   0.50000000  0.33333333  0.50000000       0.028
   0.00000000  0.50000000  0.50000000       0.014
   0.16666667  0.50000000  0.50000000       0.028
   0.33333333  0.50000000  0.50000000       0.028
   0.50000000  0.50000000  0.50000000       0.014
 
 position of ions in fractional coordinates (direct lattice) 
   0.80072464  0.01267116  0.12298266
   0.30072464  0.51267116  0.37701734
   0.75000000  0.88587957  0.87701734
   0.25000000  0.38587957  0.62298266
   0.80072464  0.89186061  0.35238181
   0.30072464  0.39186061  0.14761819
   0.75000000  0.00669011  0.64761819
   0.25000000  0.50669011  0.85238181
 
 position of ions in cartesian coordinates  (Angst):
   3.08927587  0.05735695  1.36328454
   1.16022578  2.32064450  4.17930370
   2.89357513  4.01000037  9.72189193
   0.96452504  1.74671283  6.90587277
   3.08927587  4.03707404  3.90621455
   1.16022578  1.77378649  1.63637368
   2.89357513  0.03028329  7.17896192
   0.96452504  2.29357083  9.44880278
 


--------------------------------------------------------------------------------------------------------


 k-point   1 :   0.0000 0.0000 0.0000  plane waves:    5211
 k-point   2 :   0.1667 0.0000 0.0000  plane waves:    5225
 k-point   3 :   0.3333 0.0000 0.0000  plane waves:    5224
 k-point   4 :   0.5000 0.0000 0.0000  plane waves:    5258
 k-point   5 :   0.0000 0.1667 0.0000  plane waves:    5209
 k-point   6 :   0.1667 0.1667 0.0000  plane waves:    5201
 k-point   7 :   0.1667-0.1667 0.0000  plane waves:    5201
 k-point   8 :   0.3333 0.1667 0.0000  plane waves:    5230
 k-point   9 :   0.3333-0.1667 0.0000  plane waves:    5230
 k-point  10 :   0.5000 0.1667 0.0000  plane waves:    5236
 k-point  11 :   0.0000 0.3333 0.0000  plane waves:    5213
 k-point  12 :   0.1667 0.3333 0.0000  plane waves:    5199
 k-point  13 :   0.1667-0.3333 0.0000  plane waves:    5199
 k-point  14 :   0.3333 0.3333 0.0000  plane waves:    5211
 k-point  15 :   0.3333-0.3333 0.0000  plane waves:    5211
 k-point  16 :   0.5000 0.3333 0.0000  plane waves:    5230
 k-point  17 :   0.0000 0.5000 0.0000  plane waves:    5220
 k-point  18 :   0.1667 0.5000 0.0000  plane waves:    5208
 k-point  19 :   0.3333 0.5000 0.0000  plane waves:    5230
 k-point  20 :   0.5000 0.5000 0.0000  plane waves:    5180
 k-point  21 :   0.0000 0.0000 0.5000  plane waves:    5210
 k-point  22 :   0.1667 0.0000 0.5000  plane waves:    5178
 k-point  23 :   0.3333 0.0000 0.5000  plane waves:    5214
 k-point  24 :   0.5000 0.0000 0.5000  plane waves:    5232
 k-point  25 :   0.0000 0.1667 0.5000  plane waves:    5224
 k-point  26 :   0.1667 0.1667 0.5000  plane waves:    5210
 k-point  27 :   0.1667-0.1667 0.5000  plane waves:    5210
 k-point  28 :   0.3333 0.1667 0.5000  plane waves:    5196
 k-point  29 :   0.3333-0.1667 0.5000  plane waves:    5196
 k-point  30 :   0.5000 0.1667 0.5000  plane waves:    5224
 k-point  31 :   0.0000 0.3333 0.5000  plane waves:    5202
 k-point  32 :   0.1667 0.3333 0.5000  plane waves:    5214
 k-point  33 :   0.1667-0.3333 0.5000  plane waves:    5214
 k-point  34 :   0.3333 0.3333 0.5000  plane waves:    5216
 k-point  35 :   0.3333-0.3333 0.5000  plane waves:    5216
 k-point  36 :   0.5000 0.3333 0.5000  plane waves:    5216
 k-point  37 :   0.0000 0.5000 0.5000  plane waves:    5212
 k-point  38 :   0.1667 0.5000 0.5000  plane waves:    5192
 k-point  39 :   0.3333 0.5000 0.5000  plane waves:    5208
 k-point  40 :   0.5000 0.5000 0.5000  plane waves:    5208

 maximum and minimum number of plane-waves per node :      1076     1017

 maximum number of plane-waves:      5258
 maximum index in each direction: 
   IXMAX=    7   IYMAX=    8   IZMAX=   20
   IXMIN=   -7   IYMIN=   -8   IZMIN=  -21


 parallel 3D FFT for wavefunctions:
    minimum data exchange during FFTs selected (reduces bandwidth)
 parallel 3D FFT for charge:
    minimum data exchange during FFTs selected (reduces bandwidth)


 total amount of memory used by VASP MPI-rank0    41770. kBytes
=======================================================================

   base      :      30000. kBytes
   nonl-proj :       9056. kBytes
   fftplans  :        519. kBytes
   grid      :        766. kBytes
   one-center:         16. kBytes
   wavefun   :       1413. kBytes
 
     INWAV:  cpu time      0.0000: real time      0.0001
 Broyden mixing: mesh for mixing (old mesh)
   NGX = 15   NGY = 17   NGZ = 41
  (NGX  = 48   NGY  = 56   NGZ  =128)
  gives a total of  10455 points

 initial charge density was supplied:
 charge density of overlapping atoms calculated
 number of electron      40.0000000 magnetization 
 keeping initial charge density in first step


--------------------------------------------------------------------------------------------------------


 Maximum index for augmentation-charges           343 (set IRDMAX)


--------------------------------------------------------------------------------------------------------


 First call to EWALD:  gamma=   0.306
 Maximum number of real-space cells 4x 3x 2
 Maximum number of reciprocal cells 2x 2x 5

    FEWALD:  cpu time      0.0010: real time      0.0010


--------------------------------------- Ionic step        1  -------------------------------------------




--------------------------------------- Iteration      1(   1)  ---------------------------------------


    POTLOK:  cpu time      0.0116: real time      0.0118
    SETDIJ:  cpu time      0.2191: real time      0.2197
     EDDAV:  cpu time      0.3478: real time      0.3494
       DOS:  cpu time      0.0011: real time      0.0011
    --------------------------------------------
      LOOP:  cpu time      0.5796: real time      0.5820

 eigenvalue-minimisations  :  2560
 total energy-change (2. order) : 0.1631847E+03  (-0.1587029E+04)
 number of electron      40.0000000 magnetization 
 augmentation part       40.0000000 magnetization 

 Free energy of the ion-electron system (eV)
  ---------------------------------------------------
  alpha Z        PSCENC =        87.52689448
  Ewald energy   TEWEN  =     -1416.97637425
  -Hartree energ DENC   =      -128.74481107
  -exchange      EXHF   =         0.00000000
  -V(xc)+E(xc)   XCENC  =       -33.26984758
  PAW double counting   =      1193.78262552    -1080.73714043
  entropy T*S    EENTRO =        -0.00533321
  eigenvalues    EBANDS =        93.11410221
  atomic energy  EATOM  =      1448.49460871
  Solvation  Ediel_sol  =         0.00000000
  ---------------------------------------------------
  free energy    TOTEN  =       163.18472437 eV

  energy without entropy =      163.19005758  energy(sigma->0) =      163.18739098


--------------------------------------------------------------------------------------------------------




--------------------------------------- Iteration      1(   2)  ---------------------------------------


     EDDAV:  cpu time      0.4747: real time      0.4787
       DOS:  cpu time      0.0010: real time      0.0010
    --------------------------------------------
      LOOP:  cpu time      0.4757: real time      0.4797

 eigenvalue-minimisations  :  3632
 total energy-change (2. order) :-0.1854027E+03  (-0.1798838E+03)
 number of electron      40.0000000 magnetization 
 augmentation part       40.0000000 magnetization 

 Free energy of the ion-electron system (eV)
  ---------------------------------------------------
  alpha Z        PSCENC =        87.52689448
  Ewald energy   TEWEN  =     -1416.97637425
  -Hartree energ DENC   =      -128.74481107
  -exchange      EXHF   =         0.00000000
  -V(xc)+E(xc)   XCENC  =       -33.26984758
  PAW double counting   =      1193.78262552    -1080.73714043
  entropy T*S    EENTRO =        -0.00080755
  eigenvalues    EBANDS =       -92.29311454
  atomic energy  EATOM  =      1448.49460871
  Solvation  Ediel_sol  =         0.00000000
  ---------------------------------------------------
  free energy    TOTEN  =       -22.21796673 eV

  energy without entropy =      -22.21715917  energy(sigma->0) =      -22.21756295


--------------------------------------------------------------------------------------------------------




--------------------------------------- Iteration      1(   3)  ---------------------------------------


     EDDAV:  cpu time      0.4982: real time      0.5005
       DOS:  cpu time      0.0011: real time      0.0011
    --------------------------------------------
      LOOP:  cpu time      0.4994: real time      0.5017

 eigenvalue-minimisations  :  3392
 total energy-change (2. order) :-0.1133014E+02  (-0.1129492E+02)
 number of electron      40.0000000 magnetization 
 augmentation part       40.0000000 magnetization 

 Free energy of the ion-electron system (eV)
  ---------------------------------------------------
  alpha Z        PSCENC =        87.52689448
  Ewald energy   TEWEN  =     -1416.97637425
  -Hartree energ DENC   =      -128.74481107
  -exchange      EXHF   =         0.00000000
  -V(xc)+E(xc)   XCENC  =       -33.26984758
  PAW double counting   =      1193.78262552    -1080.73714043
  entropy T*S    EENTRO =        -0.00070200
  eigenvalues    EBANDS =      -103.62335575
  atomic energy  EATOM  =      1448.49460871
  Solvation  Ediel_sol  =         0.00000000
  ---------------------------------------------------
  free energy    TOTEN  =       -33.54810238 eV

  energy without entropy =      -33.54740037  energy(sigma->0) =      -33.54775137


--------------------------------------------------------------------------------------------------------




--------------------------------------- Iteration      1(   4)  ---------------------------------------


     EDDAV:  cpu time      0.4370: real time      0.4398
       DOS:  cpu time      0.0010: real time      0.0010
    --------------------------------------------
      LOOP:  cpu time      0.4380: real time      0.4407

 eigenvalue-minimisations  :  3248
 total energy-change (2. order) :-0.8758320E-01  (-0.8755866E-01)
 number of electron      40.0000000 magnetization 
 augmentation part       40.0000000 magnetization 

 Free energy of the ion-electron system (eV)
  ---------------------------------------------------
  alpha Z        PSCENC =        87.52689448
  Ewald energy   TEWEN  =     -1416.97637425
  -Hartree energ DENC   =      -128.74481107
  -exchange      EXHF   =         0.00000000
  -V(xc)+E(xc)   XCENC  =       -33.26984758
  PAW double counting   =      1193.78262552    -1080.73714043
  entropy T*S    EENTRO =        -0.00058567
  eigenvalues    EBANDS =      -103.71105528
  atomic energy  EATOM  =      1448.49460871
  Solvation  Ediel_sol  =         0.00000000
  ---------------------------------------------------
  free energy    TOTEN  =       -33.63568557 eV

  energy without entropy =      -33.63509991  energy(sigma->0) =      -33.63539274


--------------------------------------------------------------------------------------------------------




--------------------------------------- Iteration      1(   5)  ---------------------------------------


     EDDAV:  cpu time      0.4955: real time      0.4980
       DOS:  cpu time      0.0010: real time      0.0010
    CHARGE:  cpu time      0.0087: real time      0.0088
    MIXING:  cpu time      0.0009: real time      0.0009
    --------------------------------------------
      LOOP:  cpu time      0.5062: real time      0.5087

 eigenvalue-minimisations  :  3392
 total energy-change (2. order) :-0.5689686E-03  (-0.5689625E-03)
 number of electron      39.9999997 magnetization 
 augmentation part       -7.4251026 magnetization 

 Broyden mixing:
  rms(total) = 0.66631E+00    rms(broyden)= 0.66630E+00
  rms(prec ) = 0.74090E+00
  weight for this iteration     100.00

 Free energy of the ion-electron system (eV)
  ---------------------------------------------------
  alpha Z        PSCENC =        87.52689448
  Ewald energy   TEWEN  =     -1416.97637425
  -Hartree energ DENC   =      -128.74481107
  -exchange      EXHF   =         0.00000000
  -V(xc)+E(xc)   XCENC  =       -33.26984758
  PAW double counting   =      1193.78262552    -1080.73714043
  entropy T*S    EENTRO =        -0.00058586
  eigenvalues    EBANDS =      -103.71162405
  atomic energy  EATOM  =      1448.49460871
  Solvation  Ediel_sol  =         0.00000000
  ---------------------------------------------------
  free energy    TOTEN  =       -33.63625454 eV

  energy without entropy =      -33.63566868  energy(sigma->0) =      -33.63596161


--------------------------------------------------------------------------------------------------------




--------------------------------------- Iteration      1(   6)  ---------------------------------------


    POTLOK:  cpu time      0.0100: real time      0.0101
    SETDIJ:  cpu time      0.2200: real time      0.2206
     EDDAV:  cpu time      0.4184: real time      0.4210
       DOS:  cpu time      0.0010: real time      0.0010
    CHARGE:  cpu time      0.0086: real time      0.0087
    MIXING:  cpu time      0.0007: real time      0.0007
    --------------------------------------------
      LOOP:  cpu time      0.6587: real time      0.6621

 eigenvalue-minimisations  :  3104
 total energy-change (2. order) : 0.3132252E+00  (-0.7166903E-01)
 number of electron      39.9999997 magnetization 
 augmentation part       -7.3701731 magnetization 

 Broyden mixing:
  rms(total) = 0.42152E+00    rms(broyden)= 0.42152E+00
  rms(prec ) = 0.44128E+00
  weight for this iteration     100.00

 eigenvalues of (default mixing * dielectric matrix)
  average eigenvalue GAMMA=   2.2483
  2.2483

 Free energy of the ion-electron system (eV)
  ---------------------------------------------------
  alpha Z        PSCENC =        87.52689448
  Ewald energy   TEWEN  =     -1416.97637425
  -Hartree energ DENC   =      -134.71217409
  -exchange      EXHF   =         0.00000000
  -V(xc)+E(xc)   XCENC  =       -32.66925467
  PAW double counting   =      1468.04709483    -1355.32610206
  entropy T*S    EENTRO =        -0.00112189
  eigenvalues    EBANDS =       -97.70660040
  atomic energy  EATOM  =      1448.49460871
  Solvation  Ediel_sol  =         0.00000000
  ---------------------------------------------------
  free energy    TOTEN  =       -33.32302935 eV

  energy without entropy =      -33.32190746  energy(sigma->0) =      -33.32246841


--------------------------------------------------------------------------------------------------------




--------------------------------------- Iteration      1(   7)  ---------------------------------------


    POTLOK:  cpu time      0.0099: real time      0.0101
    SETDIJ:  cpu time      0.2208: real time      0.2215
     EDDAV:  cpu time      0.5090: real time      0.5119
       DOS:  cpu time      0.0010: real time      0.0010
    CHARGE:  cpu time      0.0088: real time      0.0088
    MIXING:  cpu time      0.0006: real time      0.0006
    --------------------------------------------
      LOOP:  cpu time      0.7502: real time      0.7539

 eigenvalue-minimisations  :  2976
 total energy-change (2. order) : 0.1307169E-01  (-0.1691433E-01)
 number of electron      39.9999997 magnetization 
 augmentation part       -7.3548227 magnetization 

 Broyden mixing:
  rms(total) = 0.12390E+00    rms(broyden)= 0.12390E+00
  rms(prec ) = 0.13121E+00
  weight for this iteration     100.00

 eigenvalues of (default mixing * dielectric matrix)
  average eigenvalue GAMMA=   1.7596
  1.1124  2.4068

 Free energy of the ion-electron system (eV)
  ---------------------------------------------------
  alpha Z        PSCENC =        87.52689448
  Ewald energy   TEWEN  =     -1416.97637425
  -Hartree energ DENC   =      -137.46383603
  -exchange      EXHF   =         0.00000000
  -V(xc)+E(xc)   XCENC  =       -32.20113136
  PAW double counting   =      1811.40263852    -1698.92853618
  entropy T*S    EENTRO =        -0.00101077
  eigenvalues    EBANDS =       -95.16321079
  atomic energy  EATOM  =      1448.49460871
  Solvation  Ediel_sol  =         0.00000000
  ---------------------------------------------------
  free energy    TOTEN  =       -33.30995767 eV

  energy without entropy =      -33.30894690  energy(sigma->0) =      -33.30945228


--------------------------------------------------------------------------------------------------------




--------------------------------------- Iteration      1(   8)  ---------------------------------------


    POTLOK:  cpu time      0.0101: real time      0.0103
    SETDIJ:  cpu time      0.2203: real time      0.2208
     EDDAV:  cpu time      0.4306: real time      0.4376
       DOS:  cpu time      0.0011: real time      0.0011
    CHARGE:  cpu time      0.0087: real time      0.0088
    MIXING:  cpu time      0.0061: real time      0.0061
    --------------------------------------------
      LOOP:  cpu time      0.6770: real time      0.6847

 eigenvalue-minimisations  :  3232
 total energy-change (2. order) :-0.7378888E-03  (-0.1237858E-02)
 number of electron      39.9999997 magnetization 
 augmentation part       -7.3585411 magnetization 

 Broyden mixing:
  rms(total) = 0.16937E-01    rms(broyden)= 0.16937E-01
  rms(prec ) = 0.20633E-01
  weight for this iteration     100.00

 eigenvalues of (default mixing * dielectric matrix)
  average eigenvalue GAMMA=   1.6819
  2.5008  1.1571  1.3877

 Free energy of the ion-electron system (eV)
  ---------------------------------------------------
  alpha Z        PSCENC =        87.52689448
  Ewald energy   TEWEN  =     -1416.97637425
  -Hartree energ DENC   =      -137.95492151
  -exchange      EXHF   =         0.00000000
  -V(xc)+E(xc)   XCENC  =       -32.04344913
  PAW double counting   =      1951.99095967    -1839.58622175
  entropy T*S    EENTRO =        -0.00104653
  eigenvalues    EBANDS =       -94.76114525
  atomic energy  EATOM  =      1448.49460871
  Solvation  Ediel_sol  =         0.00000000
  ---------------------------------------------------
  free energy    TOTEN  =       -33.31069555 eV

  energy without entropy =      -33.30964903  energy(sigma->0) =      -33.31017229


--------------------------------------------------------------------------------------------------------




--------------------------------------- Iteration      1(   9)  ---------------------------------------


    POTLOK:  cpu time      0.0143: real time      0.0145
    SETDIJ:  cpu time      0.2184: real time      0.2192
     EDDAV:  cpu time      0.4630: real time      0.4649
       DOS:  cpu time      0.0022: real time      0.0022
    CHARGE:  cpu time      0.0091: real time      0.0092
    MIXING:  cpu time      0.0006: real time      0.0006
    --------------------------------------------
      LOOP:  cpu time      0.7077: real time      0.7105

 eigenvalue-minimisations  :  3264
 total energy-change (2. order) :-0.4232608E-03  (-0.2411387E-03)
 number of electron      39.9999997 magnetization 
 augmentation part       -7.3582029 magnetization 

 Broyden mixing:
  rms(total) = 0.62513E-02    rms(broyden)= 0.62513E-02
  rms(prec ) = 0.71658E-02
  weight for this iteration     100.00

 eigenvalues of (default mixing * dielectric matrix)
  average eigenvalue GAMMA=   1.6856
  1.1253  1.1253  2.2458  2.2458

 Free energy of the ion-electron system (eV)
  ---------------------------------------------------
  alpha Z        PSCENC =        87.52689448
  Ewald energy   TEWEN  =     -1416.97637425
  -Hartree energ DENC   =      -138.19598009
  -exchange      EXHF   =         0.00000000
  -V(xc)+E(xc)   XCENC  =       -32.00990430
  PAW double counting   =      1963.93369340    -1851.53309999
  entropy T*S    EENTRO =        -0.00103294
  eigenvalues    EBANDS =       -94.54992383
  atomic energy  EATOM  =      1448.49460871
  Solvation  Ediel_sol  =         0.00000000
  ---------------------------------------------------
  free energy    TOTEN  =       -33.31111882 eV

  energy without entropy =      -33.31008588  energy(sigma->0) =      -33.31060235


--------------------------------------------------------------------------------------------------------




--------------------------------------- Iteration      1(  10)  ---------------------------------------


    POTLOK:  cpu time      0.0104: real time      0.0105
    SETDIJ:  cpu time      0.2197: real time      0.2202
     EDDAV:  cpu time      0.4983: real time      0.5010
       DOS:  cpu time      0.0023: real time      0.0023
    CHARGE:  cpu time      0.0083: real time      0.0083
    MIXING:  cpu time      0.0007: real time      0.0007
    --------------------------------------------
      LOOP:  cpu time      0.7398: real time      0.7430

 eigenvalue-minimisations  :  3376
 total energy-change (2. order) :-0.1513896E-03  (-0.2679533E-04)
 number of electron      39.9999997 magnetization 
 augmentation part       -7.3582456 magnetization 

 Broyden mixing:
  rms(total) = 0.24174E-02    rms(broyden)= 0.24174E-02
  rms(prec ) = 0.30105E-02
  weight for this iteration     100.00

 eigenvalues of (default mixing * dielectric matrix)
  average eigenvalue GAMMA=   1.7444
  2.5270  2.5270  1.0799  1.1523  1.4358

 Free energy of the ion-electron system (eV)
  ---------------------------------------------------
  alpha Z        PSCENC =        87.52689448
  Ewald energy   TEWEN  =     -1416.97637425
  -Hartree energ DENC   =      -138.24716284
  -exchange      EXHF   =         0.00000000
  -V(xc)+E(xc)   XCENC  =       -32.00373316
  PAW double counting   =      1959.15996200    -1846.75509956
  entropy T*S    EENTRO =        -0.00103935
  eigenvalues    EBANDS =       -94.50932622
  atomic energy  EATOM  =      1448.49460871
  Solvation  Ediel_sol  =         0.00000000
  ---------------------------------------------------
  free energy    TOTEN  =       -33.31127020 eV

  energy without entropy =      -33.31023085  energy(sigma->0) =      -33.31075053


--------------------------------------------------------------------------------------------------------




--------------------------------------- Iteration      1(  11)  ---------------------------------------


    POTLOK:  cpu time      0.0140: real time      0.0141
    SETDIJ:  cpu time      0.2179: real time      0.2184
     EDDAV:  cpu time      0.4168: real time      0.4194
       DOS:  cpu time      0.0010: real time      0.0010
    CHARGE:  cpu time      0.0090: real time      0.0090
    MIXING:  cpu time      0.0007: real time      0.0007
    --------------------------------------------
      LOOP:  cpu time      0.6594: real time      0.6628

 eigenvalue-minimisations  :  2976
 total energy-change (2. order) :-0.4507977E-04  (-0.5271787E-05)
 number of electron      39.9999997 magnetization 
 augmentation part       -7.3583503 magnetization 

 Broyden mixing:
  rms(total) = 0.98165E-03    rms(broyden)= 0.98165E-03
  rms(prec ) = 0.11651E-02
  weight for this iteration     100.00

 eigenvalues of (default mixing * dielectric matrix)
  average eigenvalue GAMMA=   1.7432
  2.6085  2.6085  1.9151  0.9797  1.1738  1.1738

 Free energy of the ion-electron system (eV)
  ---------------------------------------------------
  alpha Z        PSCENC =        87.52689448
  Ewald energy   TEWEN  =     -1416.97637425
  -Hartree energ DENC   =      -138.28150089
  -exchange      EXHF   =         0.00000000
  -V(xc)+E(xc)   XCENC  =       -31.99754275
  PAW double counting   =      1959.25590605    -1846.85052930
  entropy T*S    EENTRO =        -0.00104924
  eigenvalues    EBANDS =       -94.48172809
  atomic energy  EATOM  =      1448.49460871
  Solvation  Ediel_sol  =         0.00000000
  ---------------------------------------------------
  free energy    TOTEN  =       -33.31131528 eV

  energy without entropy =      -33.31026605  energy(sigma->0) =      -33.31079067


--------------------------------------------------------------------------------------------------------




--------------------------------------- Iteration      1(  12)  ---------------------------------------


    POTLOK:  cpu time      0.0100: real time      0.0102
    SETDIJ:  cpu time      0.2205: real time      0.2212
     EDDAV:  cpu time      0.4779: real time      0.4803
       DOS:  cpu time      0.0010: real time      0.0010
    CHARGE:  cpu time      0.0256: real time      0.0257
    MIXING:  cpu time      0.0015: real time      0.0015
    --------------------------------------------
      LOOP:  cpu time      0.7367: real time      0.7399

 eigenvalue-minimisations  :  3568
 total energy-change (2. order) :-0.2974671E-05  (-0.7910084E-06)
 number of electron      39.9999997 magnetization 
 augmentation part       -7.3581800 magnetization 

 Broyden mixing:
  rms(total) = 0.24232E-03    rms(broyden)= 0.24232E-03
  rms(prec ) = 0.29121E-03
  weight for this iteration     100.00

 eigenvalues of (default mixing * dielectric matrix)
  average eigenvalue GAMMA=   1.7411
  2.9828  2.4412  1.8748  1.5735  0.9715  1.1721  1.1721

 Free energy of the ion-electron system (eV)
  ---------------------------------------------------
  alpha Z        PSCENC =        87.52689448
  Ewald energy   TEWEN  =     -1416.97637425
  -Hartree energ DENC   =      -138.30386986
  -exchange      EXHF   =         0.00000000
  -V(xc)+E(xc)   XCENC  =       -31.99584723
  PAW double counting   =      1958.49657397    -1846.09101155
  entropy T*S    EENTRO =        -0.00105058
  eigenvalues    EBANDS =       -94.46124195
  atomic energy  EATOM  =      1448.49460871
  Solvation  Ediel_sol  =         0.00000000
  ---------------------------------------------------
  free energy    TOTEN  =       -33.31131826 eV

  energy without entropy =      -33.31026768  energy(sigma->0) =      -33.31079297


--------------------------------------------------------------------------------------------------------




--------------------------------------- Iteration      1(  13)  ---------------------------------------


    POTLOK:  cpu time      0.0101: real time      0.0102
    SETDIJ:  cpu time      0.2248: real time      0.2254
     EDDAV:  cpu time      0.3029: real time      0.3045
       DOS:  cpu time      0.0013: real time      0.0013
    --------------------------------------------
      LOOP:  cpu time      0.5391: real time      0.5414

 eigenvalue-minimisations  :  1952
 total energy-change (2. order) :-0.7521974E-06  (-0.9620743E-07)
 number of electron      39.9999997 magnetization 
 augmentation part       -7.3581800 magnetization 

 Free energy of the ion-electron system (eV)
  ---------------------------------------------------
  alpha Z        PSCENC =        87.52689448
  Ewald energy   TEWEN  =     -1416.97637425
  -Hartree energ DENC   =      -138.30811940
  -exchange      EXHF   =         0.00000000
  -V(xc)+E(xc)   XCENC  =       -31.99531612
  PAW double counting   =      1958.57894378    -1846.17338683
  entropy T*S    EENTRO =        -0.00105144
  eigenvalues    EBANDS =       -94.45751794
  atomic energy  EATOM  =      1448.49460871
  Solvation  Ediel_sol  =         0.00000000
  ---------------------------------------------------
  free energy    TOTEN  =       -33.31131901 eV

  energy without entropy =      -33.31026757  energy(sigma->0) =      -33.31079329


--------------------------------------------------------------------------------------------------------




 average (electrostatic) potential at core
  the test charge radii are     1.1631  1.0808
  (the norm of the test charge is              1.0000)
       1 -33.3957       2 -33.3957       3 -33.3957       4 -33.3957       5 -54.9974
       6 -54.9974       7 -54.9974       8 -54.9974
 
 
 
 E-fermi :   4.0103     XC(G=0):  -9.2616     alpha+bet : -8.7197

 Fermi energy:         4.0103297299

 k-point     1 :       0.0000    0.0000    0.0000
  band No.  band energies     occupation 
      1     -10.9727      2.00000
      2     -10.6099      2.00000
      3      -9.7327      2.00000
      4      -9.1892      2.00000
      5      -5.0572      2.00000
      6      -3.9267      2.00000
      7      -3.4235      2.00000
      8      -1.8617      2.00000
      9      -1.6774      2.00000
     10      -0.4028      2.00000
     11      -0.2280      2.00000
     12      -0.0535      2.00000
     13       0.1644      2.00000
     14       0.5331      2.00000
     15       1.3711      2.00000
     16       1.5225      2.00000
     17       1.6728      2.00000
     18       1.9104      2.00000
     19       2.3821      2.00000
     20       3.8281      2.00000
     21       4.2098      0.00000
     22       5.6357      0.00000
     23       5.7168      0.00000
     24       6.0812      0.00000
     25       6.1003      0.00000
     26       6.6315      0.00000
     27       7.1371      0.00000
     28       7.1605      0.00000
     29       7.5740      0.00000
     30       7.9281      0.00000
     31       9.1933      0.00000
     32      10.0377      0.00000

 k-point     2 :       0.1667    0.0000    0.0000
  band No.  band energies     occupation 
      1     -10.7872      2.00000
      2     -10.4302      2.00000
      3      -9.6263      2.00000
      4      -9.1193      2.00000
      5      -5.2779      2.00000
      6      -4.1410      2.00000
      7      -3.7629      2.00000
      8      -2.2110      2.00000
      9      -1.7424      2.00000
     10      -0.2496      2.00000
     11      -0.0964      2.00000
     12      -0.0769      2.00000
     13      -0.0449      2.00000
     14       0.5077      2.00000
     15       1.0624      2.00000
     16       1.4478      2.00000
     17       1.6329      2.00000
     18       1.6621      2.00000
     19       2.7189      2.00000
     20       4.0458      0.31591
     21       4.0999      0.01132
     22       5.3262      0.00000
     23       5.6966      0.00000
     24       6.1805      0.00000
     25       6.3613      0.00000
     26       6.4873      0.00000
     27       6.8695      0.00000
     28       7.1624      0.00000
     29       7.4694      0.00000
     30       7.5098      0.00000
     31       8.4758      0.00000
     32       9.3453      0.00000

 k-point     3 :       0.3333    0.0000    0.0000
  band No.  band energies     occupation 
      1     -10.2863      2.00000
      2      -9.9459      2.00000
      3      -9.4725      2.00000
      4      -9.0678      2.00000
      5      -5.7087      2.00000
      6      -4.7093      2.00000
      7      -4.5289      2.00000
      8      -3.3826      2.00000
      9      -1.2396      2.00000
     10      -0.2379      2.00000
     11       0.0235      2.00000
     12       0.3784      2.00000
     13       0.4049      2.00000
     14       0.7798      2.00000
     15       0.9831      2.00000
     16       1.0068      2.00000
     17       1.5015      2.00000
     18       1.5913      2.00000
     19       3.1084      2.00000
     20       3.6267      2.00000
     21       4.0948      0.01682
     22       4.5554      0.00000
     23       4.6629      0.00000
     24       5.1975      0.00000
     25       5.5656      0.00000
     26       5.7935      0.00000
     27       5.8021      0.00000
     28       6.5565      0.00000
     29       6.9291      0.00000
     30       7.0859      0.00000
     31       8.0651      0.00000
     32       9.2871      0.00000

 k-point     4 :       0.5000    0.0000    0.0000
  band No.  band energies     occupation 
      1      -9.7003      2.00000
      2      -9.7003      2.00000
      3      -9.3675      2.00000
      4      -9.3675      2.00000
      5      -5.5870      2.00000
      6      -5.5870      2.00000
      7      -4.3438      2.00000
      8      -4.3438      2.00000
      9      -0.4296      2.00000
     10      -0.4296      2.00000
     11       0.4458      2.00000
     12       0.4458      2.00000
     13       0.7017      2.00000
     14       0.7017      2.00000
     15       0.9923      2.00000
     16       0.9923      2.00000
     17       1.4806      2.00000
     18       1.4806      2.00000
     19       3.1185      2.00000
     20       3.1185      2.00000
     21       3.9769      1.65595
     22       3.9769      1.65595
     23       4.9954      0.00000
     24       4.9954      0.00000
     25       5.3301      0.00000
     26       5.3301      0.00000
     27       5.5512      0.00000
     28       5.5512      0.00000
     29       6.1180      0.00000
     30       6.1180      0.00000
     31       8.7636      0.00000
     32       8.7636      0.00000

 k-point     5 :       0.0000    0.1667    0.0000
  band No.  band energies     occupation 
      1     -10.8557      2.00000
      2     -10.5048      2.00000
      3      -9.7343      2.00000
      4      -9.2573      2.00000
      5      -5.2885      2.00000
      6      -4.1152      2.00000
      7      -3.8843      2.00000
      8      -2.3446      2.00000
      9      -1.7212      2.00000
     10      -0.0869      2.00000
     11       0.3076      2.00000
     12       0.3369      2.00000
     13       0.5044      2.00000
     14       0.6544      2.00000
     15       1.2625      2.00000
     16       1.4169      2.00000
     17       1.8799      2.00000
     18       2.0404      2.00000
     19       2.7231      2.00000
     20       3.6873      2.00000
     21       4.3771      0.00000
     22       5.1629      0.00000
     23       5.6878      0.00000
     24       5.9246      0.00000
     25       5.9421      0.00000
     26       6.2108      0.00000
     27       7.0093      0.00000
     28       7.2477      0.00000
     29       7.3232      0.00000
     30       7.5126      0.00000
     31       8.5804      0.00000
     32       9.8160      0.00000

 k-point     6 :       0.1667    0.1667    0.0000
  band No.  band energies     occupation 
      1     -10.6765      2.00000
      2     -10.3300      2.00000
      3      -9.6313      2.00000
      4      -9.1784      2.00000
      5      -5.3938      2.00000
      6      -4.2081      2.00000
      7      -4.0702      2.00000
      8      -2.5883      2.00000
      9      -1.5877      2.00000
     10      -0.6758      2.00000
     11      -0.5283      2.00000
     12      -0.0266      2.00000
     13       0.7971      2.00000
     14       1.0636      2.00000
     15       1.1106      2.00000
     16       1.2505      2.00000
     17       1.3928      2.00000
     18       2.0366      2.00000
     19       3.0006      2.00000
     20       3.7241      2.00000
     21       4.4643      0.00000
     22       4.8160      0.00000
     23       5.4583      0.00000
     24       5.7978      0.00000
     25       6.4888      0.00000
     26       6.6209      0.00000
     27       6.7931      0.00000
     28       6.9874      0.00000
     29       7.4820      0.00000
     30       7.7928      0.00000
     31       7.9995      0.00000
     32       9.7381      0.00000

 k-point     7 :       0.1667   -0.1667    0.0000
  band No.  band energies     occupation 
      1     -10.6757      2.00000
      2     -10.3308      2.00000
      3      -9.6297      2.00000
      4      -9.1817      2.00000
      5      -5.3772      2.00000
      6      -4.2253      2.00000
      7      -4.0680      2.00000
      8      -2.5894      2.00000
      9      -1.5923      2.00000
     10      -0.7053      2.00000
     11      -0.5038      2.00000
     12      -0.0233      2.00000
     13       0.7872      2.00000
     14       1.0673      2.00000
     15       1.1837      2.00000
     16       1.2363      2.00000
     17       1.3194      2.00000
     18       2.0675      2.00000
     19       2.9571      2.00000
     20       3.7399      2.00000
     21       4.5227      0.00000
     22       4.9006      0.00000
     23       5.5879      0.00000
     24       5.7518      0.00000
     25       6.3409      0.00000
     26       6.5883      0.00000
     27       6.7118      0.00000
     28       6.8167      0.00000
     29       7.6161      0.00000
     30       7.7506      0.00000
     31       8.0552      0.00000
     32       9.9941      0.00000

 k-point     8 :       0.3333    0.1667    0.0000
  band No.  band energies     occupation 
      1     -10.1985      2.00000
      2      -9.8653      2.00000
      3      -9.4742      2.00000
      4      -9.0929      2.00000
      5      -5.6421      2.00000
      6      -4.7454      2.00000
      7      -4.4566      2.00000
      8      -3.4474      2.00000
      9      -1.1150      2.00000
     10      -0.9840      2.00000
     11      -0.7131      2.00000
     12      -0.1617      2.00000
     13       0.5912      2.00000
     14       0.6438      2.00000
     15       1.0447      2.00000
     16       1.0818      2.00000
     17       1.2038      2.00000
     18       1.7165      2.00000
     19       2.8455      2.00000
     20       3.5036      2.00000
     21       4.3220      0.00000
     22       4.8136      0.00000
     23       5.0365      0.00000
     24       5.6136      0.00000
     25       5.7192      0.00000
     26       5.9913      0.00000
     27       6.5588      0.00000
     28       6.6772      0.00000
     29       7.2101      0.00000
     30       8.1475      0.00000
     31       8.5922      0.00000
     32       9.0434      0.00000

 k-point     9 :       0.3333   -0.1667    0.0000
  band No.  band energies     occupation 
      1     -10.1968      2.00000
      2      -9.8671      2.00000
      3      -9.4719      2.00000
      4      -9.0977      2.00000
      5      -5.6214      2.00000
      6      -4.7424      2.00000
      7      -4.4769      2.00000
      8      -3.4558      2.00000
      9      -1.1107      2.00000
     10      -0.9513      2.00000
     11      -0.7613      2.00000
     12      -0.1627      2.00000
     13       0.5839      2.00000
     14       0.7353      2.00000
     15       1.0157      2.00000
     16       1.1299      2.00000
     17       1.1430      2.00000
     18       1.6510      2.00000
     19       2.8161      2.00000
     20       3.6019      2.00000
     21       4.3476      0.00000
     22       4.8824      0.00000
     23       5.1727      0.00000
     24       5.4549      0.00000
     25       5.6006      0.00000
     26       6.1638      0.00000
     27       6.3817      0.00000
     28       6.5889      0.00000
     29       7.2706      0.00000
     30       8.0285      0.00000
     31       8.5941      0.00000
     32       9.1055      0.00000

 k-point    10 :       0.5000    0.1667    0.0000
  band No.  band energies     occupation 
      1      -9.6594      2.00000
      2      -9.6586      2.00000
      3      -9.3332      2.00000
      4      -9.3332      2.00000
      5      -5.4964      2.00000
      6      -5.4900      2.00000
      7      -4.2974      2.00000
      8      -4.2943      2.00000
      9      -0.5428      2.00000
     10      -0.4948      2.00000
     11      -0.3042      2.00000
     12      -0.1494      2.00000
     13       0.0750      2.00000
     14       0.1719      2.00000
     15       0.5090      2.00000
     16       0.5183      2.00000
     17       1.5032      2.00000
     18       1.5036      2.00000
     19       3.1940      2.00000
     20       3.2544      2.00000
     21       4.2719      0.00000
     22       4.2861      0.00000
     23       5.4084      0.00000
     24       5.5155      0.00000
     25       5.9020      0.00000
     26       5.9979      0.00000
     27       6.0355      0.00000
     28       6.1142      0.00000
     29       7.2893      0.00000
     30       7.3019      0.00000
     31       7.9649      0.00000
     32       8.1045      0.00000

 k-point    11 :       0.0000    0.3333    0.0000
  band No.  band energies     occupation 
      1     -10.5343      2.00000
      2     -10.2197      2.00000
      3      -9.8187      2.00000
      4      -9.4874      2.00000
      5      -5.5703      2.00000
      6      -4.7552      2.00000
      7      -4.2981      2.00000
      8      -3.3009      2.00000
      9      -1.3388      2.00000
     10       0.2520      2.00000
     11       0.6970      2.00000
     12       0.8793      2.00000
     13       1.0157      2.00000
     14       1.2578      2.00000
     15       1.4624      2.00000
     16       1.5489      2.00000
     17       1.7154      2.00000
     18       2.6094      2.00000
     19       3.2663      2.00000
     20       3.4079      2.00000
     21       4.3454      0.00000
     22       4.7073      0.00000
     23       5.0137      0.00000
     24       5.4975      0.00000
     25       5.6411      0.00000
     26       6.0876      0.00000
     27       6.3824      0.00000
     28       6.4978      0.00000
     29       6.6914      0.00000
     30       7.5089      0.00000
     31       8.2066      0.00000
     32       9.9838      0.00000

 k-point    12 :       0.1667    0.3333    0.0000
  band No.  band energies     occupation 
      1     -10.3745      2.00000
      2     -10.0607      2.00000
      3      -9.7143      2.00000
      4      -9.3837      2.00000
      5      -5.5161      2.00000
      6      -4.7408      2.00000
      7      -4.2536      2.00000
      8      -3.3268      2.00000
      9      -1.1727      2.00000
     10      -0.6843      2.00000
     11      -0.4527      2.00000
     12       0.0766      2.00000
     13       0.3764      2.00000
     14       0.5707      2.00000
     15       1.3205      2.00000
     16       1.6550      2.00000
     17       2.0858      2.00000
     18       2.1275      2.00000
     19       3.0840      2.00000
     20       3.4374      2.00000
     21       4.7143      0.00000
     22       5.1031      0.00000
     23       5.3285      0.00000
     24       5.7709      0.00000
     25       5.9801      0.00000
     26       6.2501      0.00000
     27       6.8800      0.00000
     28       6.9494      0.00000
     29       7.2707      0.00000
     30       8.0499      0.00000
     31       8.2247      0.00000
     32       9.4162      0.00000

 k-point    13 :       0.1667   -0.3333    0.0000
  band No.  band energies     occupation 
      1     -10.3731      2.00000
      2     -10.0621      2.00000
      3      -9.7127      2.00000
      4      -9.3868      2.00000
      5      -5.5039      2.00000
      6      -4.7378      2.00000
      7      -4.2615      2.00000
      8      -3.3357      2.00000
      9      -1.1724      2.00000
     10      -0.7464      2.00000
     11      -0.3869      2.00000
     12       0.0890      2.00000
     13       0.3333      2.00000
     14       0.6007      2.00000
     15       1.3388      2.00000
     16       1.7052      2.00000
     17       1.9966      2.00000
     18       2.0925      2.00000
     19       3.0894      2.00000
     20       3.4917      2.00000
     21       4.7355      0.00000
     22       5.2543      0.00000
     23       5.3462      0.00000
     24       5.8196      0.00000
     25       5.8405      0.00000
     26       6.2470      0.00000
     27       6.7460      0.00000
     28       6.7717      0.00000
     29       7.4052      0.00000
     30       8.0526      0.00000
     31       8.2394      0.00000
     32       9.4162      0.00000

 k-point    14 :       0.3333    0.3333    0.0000
  band No.  band energies     occupation 
      1      -9.9675      2.00000
      2      -9.6568      2.00000
      3      -9.5223      2.00000
      4      -9.1995      2.00000
      5      -5.4442      2.00000
      6      -4.8961      2.00000
      7      -4.2861      2.00000
      8      -3.6773      2.00000
      9      -1.4019      2.00000
     10      -1.3101      2.00000
     11      -0.8650      2.00000
     12      -0.7372      2.00000
     13      -0.2993      2.00000
     14       0.2642      2.00000
     15       0.2863      2.00000
     16       0.7705      2.00000
     17       0.9559      2.00000
     18       1.7421      2.00000
     19       2.8769      2.00000
     20       3.4416      2.00000
     21       4.4641      0.00000
     22       5.8203      0.00000
     23       5.8517      0.00000
     24       6.2584      0.00000
     25       6.4272      0.00000
     26       6.5220      0.00000
     27       7.1064      0.00000
     28       7.7447      0.00000
     29       8.1206      0.00000
     30       8.4243      0.00000
     31       9.1433      0.00000
     32       9.6415      0.00000

 k-point    15 :       0.3333   -0.3333    0.0000
  band No.  band energies     occupation 
      1      -9.9646      2.00000
      2      -9.6596      2.00000
      3      -9.5206      2.00000
      4      -9.2039      2.00000
      5      -5.4189      2.00000
      6      -4.8932      2.00000
      7      -4.3087      2.00000
      8      -3.6930      2.00000
      9      -1.3837      2.00000
     10      -1.3393      2.00000
     11      -0.8146      2.00000
     12      -0.7509      2.00000
     13      -0.2940      2.00000
     14       0.2483      2.00000
     15       0.3197      2.00000
     16       0.7751      2.00000
     17       0.8692      2.00000
     18       1.7770      2.00000
     19       2.8269      2.00000
     20       3.5311      2.00000
     21       4.5101      0.00000
     22       5.8678      0.00000
     23       5.9378      0.00000
     24       6.2215      0.00000
     25       6.3437      0.00000
     26       6.3557      0.00000
     27       7.0111      0.00000
     28       7.8070      0.00000
     29       8.2442      0.00000
     30       8.3893      0.00000
     31       9.1897      0.00000
     32       9.5832      0.00000

 k-point    16 :       0.5000    0.3333    0.0000
  band No.  band energies     occupation 
      1      -9.5732      2.00000
      2      -9.5714      2.00000
      3      -9.2629      2.00000
      4      -9.2625      2.00000
      5      -5.2826      2.00000
      6      -5.2688      2.00000
      7      -4.2227      2.00000
      8      -4.2156      2.00000
      9      -1.1284      2.00000
     10      -1.1190      2.00000
     11      -0.8470      2.00000
     12      -0.8085      2.00000
     13      -0.4034      2.00000
     14      -0.3435      2.00000
     15      -0.1575      2.00000
     16      -0.1230      2.00000
     17       0.8429      2.00000
     18       0.8826      2.00000
     19       3.1878      2.00000
     20       3.2889      2.00000
     21       5.1316      0.00000
     22       5.1438      0.00000
     23       6.1037      0.00000
     24       6.3521      0.00000
     25       6.6027      0.00000
     26       6.7182      0.00000
     27       7.3243      0.00000
     28       7.3946      0.00000
     29       8.4921      0.00000
     30       8.5710      0.00000
     31       9.2484      0.00000
     32       9.2688      0.00000

 k-point    17 :       0.0000    0.5000    0.0000
  band No.  band energies     occupation 
      1     -10.1176      2.00000
      2     -10.1176      2.00000
      3      -9.8444      2.00000
      4      -9.8444      2.00000
      5      -5.4107      2.00000
      6      -5.4107      2.00000
      7      -4.0344      2.00000
      8      -4.0344      2.00000
      9      -0.6222      2.00000
     10      -0.6222      2.00000
     11       1.2081      2.00000
     12       1.2081      2.00000
     13       1.3723      2.00000
     14       1.3723      2.00000
     15       1.8958      2.00000
     16       1.8958      2.00000
     17       2.0428      2.00000
     18       2.0428      2.00000
     19       3.1895      2.00000
     20       3.1895      2.00000
     21       4.5376      0.00000
     22       4.5376      0.00000
     23       5.2609      0.00000
     24       5.2609      0.00000
     25       5.6774      0.00000
     26       5.6774      0.00000
     27       5.8498      0.00000
     28       5.8498      0.00000
     29       6.7290      0.00000
     30       6.7290      0.00000
     31       9.1427      0.00000
     32       9.1427      0.00000

 k-point    18 :       0.1667    0.5000    0.0000
  band No.  band energies     occupation 
      1      -9.9891      2.00000
      2      -9.9882      2.00000
      3      -9.7110      2.00000
      4      -9.7107      2.00000
      5      -5.3140      2.00000
      6      -5.3119      2.00000
      7      -3.9738      2.00000
      8      -3.9694      2.00000
      9      -0.5340      2.00000
     10      -0.5056      2.00000
     11      -0.2827      2.00000
     12      -0.1991      2.00000
     13       0.0558      2.00000
     14       0.0715      2.00000
     15       1.5271      2.00000
     16       1.5714      2.00000
     17       2.1252      2.00000
     18       2.2369      2.00000
     19       3.3159      2.00000
     20       3.3242      2.00000
     21       4.8375      0.00000
     22       4.8650      0.00000
     23       5.7414      0.00000
     24       5.7777      0.00000
     25       6.1448      0.00000
     26       6.2269      0.00000
     27       6.6683      0.00000
     28       6.7561      0.00000
     29       7.6949      0.00000
     30       7.7291      0.00000
     31       8.5317      0.00000
[...]
     32       8.8606      0.00000

 k-point    32 :       0.1667    0.3333    0.5000
  band No.  band energies     occupation 
      1     -10.2542      2.00000
      2     -10.2542      2.00000
      3      -9.5133      2.00000
      4      -9.5133      2.00000
      5      -5.1961      2.00000
      6      -5.1961      2.00000
      7      -3.8120      2.00000
      8      -3.8120      2.00000
      9      -0.8330      2.00000
     10      -0.8330      2.00000
     11       0.0969      2.00000
     12       0.0969      2.00000
     13       0.4317      2.00000
     14       0.4317      2.00000
     15       1.3656      2.00000
     16       1.3656      2.00000
     17       1.9376      2.00000
     18       1.9376      2.00000
     19       2.9037      2.00000
     20       2.9037      2.00000
     21       4.9699      0.00000
     22       4.9699      0.00000
     23       5.7433      0.00000
     24       5.7433      0.00000
     25       6.4419      0.00000
     26       6.4419      0.00000
     27       7.0168      0.00000
     28       7.0168      0.00000
     29       7.8507      0.00000
     30       7.8507      0.00000
     31       8.8415      0.00000
     32       8.8415      0.00000

 k-point    33 :       0.1667   -0.3333    0.5000
  band No.  band energies     occupation 
      1     -10.2535      2.00000
      2     -10.2535      2.00000
      3      -9.5148      2.00000
      4      -9.5148      2.00000
      5      -5.1862      2.00000
      6      -5.1862      2.00000
      7      -3.8246      2.00000
      8      -3.8246      2.00000
      9      -0.8363      2.00000
     10      -0.8363      2.00000
     11       0.1028      2.00000
     12       0.1028      2.00000
     13       0.4553      2.00000
     14       0.4553      2.00000
     15       1.3027      2.00000
     16       1.3027      2.00000
     17       1.9791      2.00000
     18       1.9791      2.00000
     19       2.8890      2.00000
     20       2.8890      2.00000
     21       5.0727      0.00000
     22       5.0727      0.00000
     23       5.7212      0.00000
     24       5.7212      0.00000
     25       6.3478      0.00000
     26       6.3478      0.00000
     27       7.0660      0.00000
     28       7.0660      0.00000
     29       7.8211      0.00000
     30       7.8211      0.00000
     31       8.6913      0.00000
     32       8.6913      0.00000

 k-point    34 :       0.3333    0.3333    0.5000
  band No.  band energies     occupation 
      1      -9.8603      2.00000
      2      -9.8603      2.00000
      3      -9.3148      2.00000
      4      -9.3148      2.00000
      5      -5.1805      2.00000
      6      -5.1805      2.00000
      7      -4.0119      2.00000
      8      -4.0119      2.00000
      9      -1.5430      2.00000
     10      -1.5430      2.00000
     11      -0.6180      2.00000
     12      -0.6180      2.00000
     13       0.1711      2.00000
     14       0.1711      2.00000
     15       0.7510      2.00000
     16       0.7510      2.00000
     17       1.3333      2.00000
     18       1.3333      2.00000
     19       2.2457      2.00000
     20       2.2457      2.00000
     21       5.3304      0.00000
     22       5.3304      0.00000
     23       6.2822      0.00000
     24       6.2822      0.00000
     25       7.0541      0.00000
     26       7.0541      0.00000
     27       7.6710      0.00000
     28       7.6710      0.00000
     29       8.4571      0.00000
     30       8.4571      0.00000
     31       9.1057      0.00000
     32       9.1057      0.00000

 k-point    35 :       0.3333   -0.3333    0.5000
  band No.  band energies     occupation 
      1      -9.8586      2.00000
      2      -9.8586      2.00000
      3      -9.3178      2.00000
      4      -9.3178      2.00000
      5      -5.1609      2.00000
      6      -5.1609      2.00000
      7      -4.0402      2.00000
      8      -4.0402      2.00000
      9      -1.5369      2.00000
     10      -1.5369      2.00000
     11      -0.5897      2.00000
     12      -0.5897      2.00000
     13       0.1551      2.00000
     14       0.1551      2.00000
     15       0.7316      2.00000
     16       0.7316      2.00000
     17       1.3291      2.00000
     18       1.3291      2.00000
     19       2.2526      2.00000
     20       2.2526      2.00000
     21       5.4036      0.00000
     22       5.4036      0.00000
     23       6.3194      0.00000
     24       6.3194      0.00000
     25       7.0508      0.00000
     26       7.0508      0.00000
     27       7.4528      0.00000
     28       7.4528      0.00000
     29       8.3605      0.00000
     30       8.3605      0.00000
     31       9.3019      0.00000
     32       9.3019      0.00000

 k-point    36 :       0.5000    0.3333    0.5000
  band No.  band energies     occupation 
      1      -9.5657      2.00000
      2      -9.5657      2.00000
      3      -9.2720      2.00000
      4      -9.2720      2.00000
      5      -5.2160      2.00000
      6      -5.2160      2.00000
      7      -4.2966      2.00000
      8      -4.2966      2.00000
      9      -1.3156      2.00000
     10      -1.3156      2.00000
     11      -1.0247      2.00000
     12      -1.0247      2.00000
     13      -0.0386      2.00000
     14      -0.0386      2.00000
     15       0.2454      2.00000
     16       0.2454      2.00000
     17       1.2600      2.00000
     18       1.2600      2.00000
     19       1.8896      2.00000
     20       1.8896      2.00000
     21       5.7149      0.00000
     22       5.7149      0.00000
     23       6.5014      0.00000
     24       6.5014      0.00000
     25       6.9035      0.00000
     26       6.9035      0.00000
     27       7.8003      0.00000
     28       7.8003      0.00000
     29       8.4717      0.00000
     30       8.4717      0.00000
     31       8.9319      0.00000
     32       8.9319      0.00000

 k-point    37 :       0.0000    0.5000    0.5000
  band No.  band energies     occupation 
      1     -10.1090      2.00000
      2     -10.1090      2.00000
      3      -9.8558      2.00000
      4      -9.8558      2.00000
      5      -5.3059      2.00000
      6      -5.3059      2.00000
      7      -4.2476      2.00000
      8      -4.2476      2.00000
      9       0.3846      2.00000
     10       0.3846      2.00000
     11       0.4594      2.00000
     12       0.4594      2.00000
     13       1.2251      2.00000
     14       1.2251      2.00000
     15       1.3566      2.00000
     16       1.3566      2.00000
     17       2.3473      2.00000
     18       2.3473      2.00000
     19       3.2288      2.00000
     20       3.2288      2.00000
     21       4.5332      0.00000
     22       4.5332      0.00000
     23       4.9648      0.00000
     24       4.9648      0.00000
     25       5.7160      0.00000
     26       5.7160      0.00000
     27       6.6259      0.00000
     28       6.6259      0.00000
     29       7.0300      0.00000
     30       7.0300      0.00000
     31       8.6580      0.00000
     32       8.6580      0.00000

 k-point    38 :       0.1667    0.5000    0.5000
  band No.  band energies     occupation 
      1      -9.9806      2.00000
      2      -9.9806      2.00000
      3      -9.7217      2.00000
      4      -9.7217      2.00000
      5      -5.2165      2.00000
      6      -5.2165      2.00000
      7      -4.1605      2.00000
      8      -4.1605      2.00000
      9      -0.3695      2.00000
     10      -0.3695      2.00000
     11      -0.1619      2.00000
     12      -0.1619      2.00000
     13       0.7092      2.00000
     14       0.7092      2.00000
     15       0.7979      2.00000
     16       0.7979      2.00000
     17       2.0502      2.00000
     18       2.0502      2.00000
     19       2.9111      2.00000
     20       2.9111      2.00000
     21       5.3711      0.00000
     22       5.3711      0.00000
     23       5.4711      0.00000
     24       5.4711      0.00000
     25       6.5892      0.00000
     26       6.5892      0.00000
     27       7.3690      0.00000
     28       7.3690      0.00000
     29       7.4979      0.00000
     30       7.4979      0.00000
     31       8.6156      0.00000
     32       8.6156      0.00000

 k-point    39 :       0.3333    0.5000    0.5000
  band No.  band energies     occupation 
      1      -9.6894      2.00000
      2      -9.6894      2.00000
      3      -9.4148      2.00000
      4      -9.4148      2.00000
      5      -5.0920      2.00000
      6      -5.0920      2.00000
      7      -4.1236      2.00000
      8      -4.1236      2.00000
      9      -1.3496      2.00000
     10      -1.3496      2.00000
     11      -1.3222      2.00000
     12      -1.3222      2.00000
     13       0.4068      2.00000
     14       0.4068      2.00000
     15       0.4478      2.00000
     16       0.4478      2.00000
     17       1.2107      2.00000
     18       1.2107      2.00000
     19       1.9348      2.00000
     20       1.9348      2.00000
     21       5.9529      0.00000
     22       5.9529      0.00000
     23       6.7186      0.00000
     24       6.7186      0.00000
     25       7.3376      0.00000
     26       7.3376      0.00000
     27       8.0397      0.00000
     28       8.0397      0.00000
     29       8.7401      0.00000
     30       8.7401      0.00000
     31       9.1798      0.00000
     32       9.1798      0.00000

 k-point    40 :       0.5000    0.5000    0.5000
  band No.  band energies     occupation 
      1      -9.5207      2.00000
      2      -9.5207      2.00000
      3      -9.2347      2.00000
      4      -9.2347      2.00000
      5      -5.0947      2.00000
      6      -5.0947      2.00000
      7      -4.2494      2.00000
      8      -4.2494      2.00000
      9      -1.5961      2.00000
     10      -1.5961      2.00000
     11      -1.2711      2.00000
     12      -1.2711      2.00000
     13      -0.2740      2.00000
     14      -0.2740      2.00000
     15      -0.2306      2.00000
     16      -0.2306      2.00000
     17       1.3002      2.00000
     18       1.3002      2.00000
     19       1.8539      2.00000
     20       1.8539      2.00000
     21       5.9641      0.00000
     22       5.9641      0.00000
     23       6.6001      0.00000
     24       6.6001      0.00000
     25       7.5599      0.00000
     26       7.5599      0.00000
     27       8.4340      0.00000
     28       8.4340      0.00000
     29       8.9028      0.00000
     30       8.9028      0.00000
     31       9.8276      0.00000
     32       9.8276      0.00000


--------------------------------------------------------------------------------------------------------


 soft charge-density along one line, spin component            1
         0         1         2         3         4         5         6         7         8         9
 total charge-density along one line
 
 pseudopotential strength for first ion, spin component:            1
 14.504  18.095   0.038   0.026  -0.002   0.069   0.047  -0.003
 18.095  22.590   0.048   0.033  -0.002   0.087   0.059  -0.004
  0.038   0.048   3.224  -0.002   0.000   5.488  -0.003   0.000
  0.026   0.033  -0.002   3.221   0.000  -0.003   5.484   0.000
 -0.002  -0.002   0.000   0.000   3.225   0.000   0.000   5.490
  0.069   0.087   5.488  -0.003   0.000   9.400  -0.005   0.000
  0.047   0.059  -0.003   5.484   0.000  -0.005   9.394   0.000
 -0.003  -0.004   0.000   0.000   5.490   0.000   0.000   9.403
  0.000   0.000  -0.000   0.000   0.006  -0.001   0.000   0.011
 -0.004  -0.004   0.006   0.012   0.000   0.011   0.022   0.000
 -0.003  -0.004  -0.003   0.007   0.000  -0.006   0.012   0.001
  0.000   0.000   0.000  -0.000   0.006   0.000  -0.000   0.011
  0.001   0.002  -0.011   0.000  -0.000  -0.020   0.000  -0.001
 total augmentation occupancy for first ion, spin component:            1
  2.911  -0.841   0.306   0.186  -0.014  -0.055  -0.035   0.003   0.002   0.002   0.029   0.005   0.008
 -0.841   0.763  -0.400  -0.281   0.016   0.062   0.046  -0.003  -0.002   0.000  -0.025  -0.005  -0.004
  0.306  -0.400   1.263   0.071   0.000  -0.208  -0.009  -0.000  -0.001   0.036  -0.105  -0.001   0.004
  0.186  -0.281   0.071   1.502   0.012  -0.009  -0.255  -0.003  -0.003  -0.032   0.047  -0.006  -0.002
 -0.014   0.016   0.000   0.012   1.270  -0.000  -0.003  -0.219   0.144  -0.000  -0.003   0.034  -0.000
 -0.055   0.062  -0.208  -0.009  -0.000   0.038   0.001   0.000   0.000  -0.006   0.019   0.000  -0.000
 -0.035   0.046  -0.009  -0.255  -0.003   0.001   0.049   0.001   0.000   0.006  -0.008   0.001   0.000
  0.003  -0.003  -0.000  -0.003  -0.219   0.000   0.001   0.042  -0.026   0.000   0.001  -0.006   0.000
  0.002  -0.002  -0.001  -0.003   0.144   0.000   0.000  -0.026   0.030   0.000   0.001   0.003  -0.000
  0.002   0.000   0.036  -0.032  -0.000  -0.006   0.006   0.000   0.000   0.011  -0.004   0.000   0.001
  0.029  -0.025  -0.105   0.047  -0.003   0.019  -0.008   0.001   0.001  -0.004   0.038   0.001  -0.003
  0.005  -0.005  -0.001  -0.006   0.034   0.000   0.001  -0.006   0.003   0.000   0.001   0.010  -0.000
  0.008  -0.004   0.004  -0.002  -0.000  -0.000   0.000   0.000  -0.000   0.001  -0.003  -0.000   0.008


------------------------ aborting loop because EDIFF is reached ----------------------------------------


    CHARGE:  cpu time      0.0083: real time      0.0083
    FORLOC:  cpu time      0.0004: real time      0.0004
    FORNL :  cpu time      0.0607: real time      0.0609
    STRESS:  cpu time      0.4955: real time      0.4975
    FORCOR:  cpu time      0.0090: real time      0.0091
    FORHAR:  cpu time      0.0022: real time      0.0022
    MIXING:  cpu time      0.0046: real time      0.0046
    OFIELD:  cpu time      0.0000: real time      0.0000

  FORCE on cell =-STRESS in cart. coord.  units (eV):
  Direction    XX          YY          ZZ          XY          YZ          ZX
  --------------------------------------------------------------------------------------
  Alpha Z    87.52689    87.52689    87.52689
  Ewald    -450.15425  -490.14715  -476.67686     0.26221    -0.00000     0.00000
  Hartree    58.53299    43.09967    36.67652    -0.13337     0.00000     0.00000
  E(xc)    -141.52454  -141.52384  -141.70423     0.00572     0.00000    -0.00000
  Local    -173.99068  -124.37265  -133.12119     0.03109    -0.00000    -0.00000
  n-local   241.06221   240.45649   242.60895    -0.02648    -0.00000     0.00000
  augment   -11.41856   -11.81137   -12.09631     0.00433     0.00000    -0.00000
  Kinetic   389.44500   396.07407   405.60436     0.08891     0.00000    -0.00000
  Fock        0.00000     0.00000     0.00000     0.00000     0.00000     0.00000
  -------------------------------------------------------------------------------------
  Total      -0.52093    -0.69789     8.81814     0.23241    -0.00000    -0.00000
  in kB      -4.31124    -5.77579    72.97963     1.92341    -0.00000    -0.00000
  external pressure =       20.96 kB  Pullay stress =        0.00 kB


 VOLUME and BASIS-vectors are now :
 -----------------------------------------------------------------------------
  energy-cutoff  :      520.00
  volume of cell :      193.59
      direct lattice vectors                 reciprocal lattice vectors
     3.858100176  0.000000000  0.000000000     0.259194929  0.000000000  0.000000000
     0.000000000  4.526575088  0.000000000     0.000000000  0.220917577  0.000000000
     0.000000000  0.000000000 11.085176468     0.000000000  0.000000000  0.090210562

  length of vectors
     3.858100176  4.526575088 11.085176468     0.259194929  0.220917577  0.090210562


 FORCES acting on ions
    electron-ion (+dipol)            ewald-force                    non-local-force                 convergence-correction
 -----------------------------------------------------------------------------------------------
   -.308E+00 0.132E+02 0.237E+02   0.409E+00 -.155E+02 -.253E+02   -.785E-01 0.247E+01 0.205E+01   -.587E-05 -.220E-04 -.260E-03
   -.308E+00 0.132E+02 -.237E+02   0.409E+00 -.155E+02 0.253E+02   -.785E-01 0.247E+01 -.205E+01   -.614E-05 -.211E-04 0.261E-03
   0.308E+00 -.132E+02 -.237E+02   -.409E+00 0.155E+02 0.253E+02   0.785E-01 -.247E+01 -.205E+01   0.617E-05 0.215E-04 0.259E-03
   0.308E+00 -.132E+02 0.237E+02   -.409E+00 0.155E+02 -.253E+02   0.785E-01 -.247E+01 0.205E+01   0.599E-05 0.214E-04 -.260E-03
   -.336E+00 -.142E+02 -.240E+02   0.295E+00 0.157E+02 0.254E+02   0.853E-01 -.172E+01 -.118E+01   0.136E-04 -.904E-04 0.243E-03
   -.336E+00 -.142E+02 0.240E+02   0.295E+00 0.157E+02 -.254E+02   0.853E-01 -.172E+01 0.118E+01   0.133E-04 -.907E-04 -.242E-03
   0.336E+00 0.142E+02 0.240E+02   -.295E+00 -.157E+02 -.254E+02   -.853E-01 0.172E+01 0.118E+01   -.137E-04 0.901E-04 -.242E-03
   0.336E+00 0.142E+02 -.240E+02   -.295E+00 -.157E+02 0.254E+02   -.853E-01 0.172E+01 -.118E+01   -.138E-04 0.907E-04 0.240E-03
 -----------------------------------------------------------------------------------------------
   0.704E-05 0.893E-06 0.198E-05   -.361E-14 0.355E-14 0.711E-14   0.122E-03 0.401E-05 -.173E-05   -.539E-06 -.483E-06 -.452E-06
 
 
 POSITION                                       TOTAL-FORCE (eV/Angst)
 -----------------------------------------------------------------------------------
      3.08928      0.05736      1.36328         0.021665      0.080628      0.476286
      1.16023      2.32064      4.17930         0.021665      0.080628     -0.476285
      2.89358      4.01000      9.72189        -0.021690     -0.080696     -0.476320
      0.96453      1.74671      6.90587        -0.021691     -0.080696      0.476321
      3.08928      4.03707      3.90621         0.044029     -0.161201      0.279111
      1.16023      1.77379      1.63637         0.044029     -0.161200     -0.279111
      2.89358      0.03028      7.17896        -0.044003      0.161268     -0.279113
      0.96453      2.29357      9.44880        -0.044004      0.161268      0.279112
 -----------------------------------------------------------------------------------
    total drift:                                0.000129      0.000004     -0.000000


--------------------------------------------------------------------------------------------------------



  FREE ENERGIE OF THE ION-ELECTRON SYSTEM (eV)
  ---------------------------------------------------
  free  energy   TOTEN  =       -33.31131901 eV

  energy  without entropy=      -33.31026757  energy(sigma->0) =      -33.31079329
 


--------------------------------------------------------------------------------------------------------


    POTLOK:  cpu time      0.2290: real time      0.2295


--------------------------------------------------------------------------------------------------------


     LOOP+:  cpu time      8.9939: real time      9.0432
    4ORBIT:  cpu time      0.0000: real time      0.0000

 total amount of memory used by VASP MPI-rank0    41770. kBytes
=======================================================================

   base      :      30000. kBytes
   nonl-proj :       9056. kBytes
   fftplans  :        519. kBytes
   grid      :        766. kBytes
   one-center:         16. kBytes
   wavefun   :       1413. kBytes
 
  
  
 General timing and accounting informations for this job:
 ========================================================
  
                  Total CPU time used (sec):       10.788
                            User time (sec):       10.407
                          System time (sec):        0.380
                         Elapsed time (sec):       11.112
  
                   Maximum memory used (kb):      179456.
                   Average memory used (kb):          N/A
  
                          Minor page faults:        23250
                          Major page faults:           92
                 Voluntary context switches:         2021
