 running  160 mpi-ranks, with    1 threads/rank, on   10 nodes
 distrk:  each k-point on   80 cores,    2 groups
 distr:  one band on    5 cores,   16 groups
 vasp.6.4.2 20Jul23 (build Oct 12 2023 10:31:02) complex                         
 POSCAR found type information on POSCAR GeSe
 POSCAR found :  2 types and       8 ions
 Reading from existing POTCAR
 scaLAPACK will be used
 Reading from existing POTCAR
 LDA part: xc-table for Pade appr. of Perdew
 POSCAR, INCAR and KPOINTS ok, starting setup
 FFT: planning ... GRIDC
 FFT: planning ... GRID_SOFT
 FFT: planning ... GRID
 WAVECAR not read
 entering main loop
       N       E                     dE             d eps       ncg     rms          rms(c)
DAV:   1     0.132993983376E+03    0.13299E+03   -0.12867E+04  2560   0.772E+02
DAV:   2    -0.250584861292E+02   -0.15805E+03   -0.15331E+03  3744   0.139E+02
DAV:   3    -0.340539248941E+02   -0.89954E+01   -0.89762E+01  3088   0.386E+01
DAV:   4    -0.341192319380E+02   -0.65307E-01   -0.65295E-01  3424   0.378E+00
DAV:   5    -0.341196756718E+02   -0.44373E-03   -0.44373E-03  3024   0.302E-01    0.648E+00
DAV:   6    -0.337121551518E+02    0.40752E+00   -0.81456E-01  3168   0.304E+00    0.406E+00
DAV:   7    -0.337022689377E+02    0.98862E-02   -0.24835E-01  3280   0.176E+00    0.131E+00
DAV:   8    -0.337010390305E+02    0.12299E-02   -0.27191E-02  3040   0.614E-01    0.176E-01
DAV:   9    -0.337014011232E+02   -0.36209E-03   -0.39106E-03  3072   0.271E-01    0.657E-02
DAV:  10    -0.337015655267E+02   -0.16440E-03   -0.36987E-04  3040   0.829E-02    0.235E-02
DAV:  11    -0.337016027660E+02   -0.37239E-04   -0.47897E-05  3200   0.308E-02    0.125E-02
DAV:  12    -0.337016043660E+02   -0.16000E-05   -0.81106E-06  3232   0.114E-02    0.245E-03
DAV:  13    -0.337016051911E+02   -0.82509E-06   -0.11209E-06  1952   0.453E-03
   1 F= -.33701605E+02 E0= -.33701605E+02  d E =-.186132E-14
