 vasp.6.4.2 20Jul23 (build Oct 12 2023 10:31:02) complex                         
 executed on              LinuxNV date 2025.05.18  07:33:10
 running  160 mpi-ranks, with    1 threads/rank, on   10 nodes
 distrk:  each k-point on   80 cores,    2 groups
 distr:  one band on NCORE=   5 cores,   16 groups


--------------------------------------------------------------------------------------------------------


 INCAR:
   ENCUT = 520.000000
   SIGMA = 0.050000
   EDIFF = 1.00e-06
   ALGO = Normal
   GGA = PE
   PREC = Normal
   SYSTEM = ./
   ICHARG = 2
   ISMEAR = 0
   ISPIN = 1
   ISTART = 0
   ISYM = 0
   KPAR = 2
   LMAXMIX = 4
   NELM = 100
   NPAR = 16
   LASPH = .TRUE.
   LCHARG = .FALSE.
   LWAVE = .FALSE.

 POTCAR:    PAW_PBE Ge 05Jan2001                  
 POTCAR:    PAW_PBE Se 06Sep2000                  
 POTCAR:    PAW_PBE Ge 05Jan2001                  
   VRHFIN =Ge: s2p2                                                                                 
   LEXCH  = PE                                                                                      
   EATOM  =   104.9960 eV,    7.7170 Ry                                                             
                                                                                                    
   TITEL  = PAW_PBE Ge 05Jan2001                                                                    
   LULTRA =        F    use ultrasoft PP ?                                                          
   IUNSCR =        1    unscreen: 0-lin 1-nonlin 2-no                                               
   RPACOR =    2.170    partial core radius                                                         
   POMASS =   72.610; ZVAL   =    4.000    mass and valenz                                          
   RCORE  =    2.300    outmost cutoff radius                                                       
   RWIGS  =    2.300; RWIGS  =    1.217    wigner-seitz radius (au A)                               
   ENMAX  =  173.807; ENMIN  =  130.355 eV                                                          
   ICORE  =        3    local potential                                                             
   LCOR   =        T    correct aug charges                                                         
   LPAW   =        T    paw PP                                                                      
   EAUG   =  385.843                                                                                
   DEXC   =    0.000                                                                                
   RMAX   =    2.342    core radius for proj-oper                                                   
   RAUG   =    1.300    factor for augmentation sphere                                              
   RDEP   =    2.318    radius for radial grids                                                     
   RDEPT  =    2.103    core radius for aug-charge                                                  
                                                                                                    
   Atomic configuration                                                                             
   10 entries                                                                                       
     n  l   j            E        occ.                                                              
     1  0  0.50    -10959.8463   2.0000                                                             
     2  0  0.50     -1371.6056   2.0000                                                             
     2  1  1.50     -1198.4791   6.0000                                                             
     3  0  0.50      -168.4733   2.0000                                                             
     3  1  1.50      -115.6019   6.0000                                                             
     3  2  2.50       -29.3106  10.0000                                                             
     4  0  0.50       -11.7309   2.0000                                                             
     4  1  0.50        -3.8952   2.0000                                                             
     4  2  1.50        -4.0817   0.0000                                                             
     4  3  2.50        -4.0817   0.0000                                                             
   Description                                                                                      
     l       E           TYP  RCUT    TYP  RCUT                                                     
     0    -11.7309493     23  2.300                                                                 
     0     -7.4578696     23  2.300                                                                 
     1     -3.8952261     23  2.300                                                                 
     1      6.1178114     23  2.300                                                                 
     2     -4.0817478     23  2.300                                                                 
     3     -1.3605826      7  2.300                                                                 
  local pseudopotential read in
  partial core-charges read in
  partial kinetic energy density read in
  atomic valenz-charges read in
  non local Contribution for L=            0  read in
    real space projection operators read in
  non local Contribution for L=            0  read in
    real space projection operators read in
  non local Contribution for L=            1  read in
    real space projection operators read in
  non local Contribution for L=            1  read in
    real space projection operators read in
  non local Contribution for L=            2  read in
    real space projection operators read in
    PAW grid and wavefunctions read in
 
   number of l-projection  operators is LMAX  =            5
   number of lm-projection operators is LMMAX =           13
 
 POTCAR:    PAW_PBE Se 06Sep2000                  
   VRHFIN =Se: s2p4                                                                                 
   LEXCH  = PE                                                                                      
   EATOM  =   257.1286 eV,   18.8984 Ry                                                             
                                                                                                    
   TITEL  = PAW_PBE Se 06Sep2000                                                                    
   LULTRA =        F    use ultrasoft PP ?                                                          
   IUNSCR =        1    unscreen: 0-lin 1-nonlin 2-no                                               
   RPACOR =    1.900    partial core radius                                                         
   POMASS =   78.960; ZVAL   =    6.000    mass and valenz                                          
   RCORE  =    2.100    outmost cutoff radius                                                       
   RWIGS  =    2.200; RWIGS  =    1.164    wigner-seitz radius (au A)                               
   ENMAX  =  211.555; ENMIN  =  158.666 eV                                                          
   ICORE  =        3    local potential                                                             
   LCOR   =        T    correct aug charges                                                         
   LPAW   =        T    paw PP                                                                      
   EAUG   =  446.842                                                                                
   DEXC   =    0.000                                                                                
   RMAX   =    2.147    core radius for proj-oper                                                   
   RAUG   =    1.300    factor for augmentation sphere                                              
   RDEP   =    2.177    radius for radial grids                                                     
   RDEPT  =    1.928    core radius for aug-charge                                                  
                                                                                                    
   Atomic configuration                                                                             
   10 entries                                                                                       
     n  l   j            E        occ.                                                              
     1  0  0.50    -12503.4787   2.0000                                                             
     2  0  0.50     -1606.9547   2.0000                                                             
     2  1  1.50     -1413.3140   6.0000                                                             
     3  0  0.50      -213.4885   2.0000                                                             
     3  1  1.50      -152.9538   6.0000                                                             
     3  2  2.50       -53.1221  10.0000                                                             
     4  0  0.50       -17.2865   2.0000                                                             
     4  1  0.50        -6.5110   4.0000                                                             
     4  2  2.50        -6.8029   0.0000                                                             
     4  3  2.50        -6.8029   0.0000                                                             
   Description                                                                                      
     l       E           TYP  RCUT    TYP  RCUT                                                     
     0    -17.2865377     23  2.100                                                                 
     0    -15.3094411     23  2.100                                                                 
     1     -6.5110275     23  2.100                                                                 
     1     -0.0695192     23  2.100                                                                 
     2     -6.8029130     23  2.100                                                                 
     3     -1.3605826      7  2.100                                                                 
  local pseudopotential read in
  partial core-charges read in
  partial kinetic energy density read in
  atomic valenz-charges read in
  non local Contribution for L=            0  read in
    real space projection operators read in
  non local Contribution for L=            0  read in
    real space projection operators read in
  non local Contribution for L=            1  read in
    real space projection operators read in
  non local Contribution for L=            1  read in
    real space projection operators read in
  non local Contribution for L=            2  read in
    real space projection operators read in
    PAW grid and wavefunctions read in
 
   number of l-projection  operators is LMAX  =            5
   number of lm-projection operators is LMMAX =           13
 
  PAW_PBE Ge 05Jan2001                  :
 energy of atom  1       EATOM= -104.9960
 kinetic energy error for atom=    0.0002 (will be added to EATOM!!)
  PAW_PBE Se 06Sep2000                  :
 energy of atom  2       EATOM= -257.1286
 kinetic energy error for atom=    0.0007 (will be added to EATOM!!)
 
 
 POSCAR: Ge Se
  positions in cartesian coordinates
  No initial velocities read in
 exchange correlation table for  LEXCH =        8
   RHO(1)=    0.500       N(1)  =     2000
   RHO(2)=  100.500       N(2)  =     4000
 


--------------------------------------------------------------------------------------------------------


 ion  position               nearest neighbor table
   1  0.598  0.650  0.123-   6 2.60   6 2.60   5 2.60
   2  0.098  0.150  0.377-   5 2.60   5 2.60   6 2.60
   3  0.750  0.886  0.877-   8 2.60   8 2.60   7 2.60
   4  0.250  0.386  0.623-   7 2.60   7 2.60   8 2.60
   5  0.598  0.530  0.352-   2 2.60   2 2.60   1 2.60
   6  0.098  0.030  0.148-   1 2.60   1 2.60   2 2.60
   7  0.750  0.007  0.648-   4 2.60   4 2.60   3 2.60
   8  0.250  0.507  0.852-   3 2.60   3 2.60   4 2.60
 

IMPORTANT INFORMATION: All symmetrisations will be switched off!
NOSYMM: (Re-)initialisation of all symmetry stuff for point group C_1.


----------------------------------------------------------------------------------------

                                     Primitive cell                                     

  volume of cell :     193.5913

  direct lattice vectors                    reciprocal lattice vectors
     3.858100176  0.000000000  0.000000000     0.259194929  0.000000000  0.000000000
     0.000000000  4.526575088  0.000000000     0.000000000  0.220917577  0.000000000
     0.000000000  0.000000000 11.085176468     0.000000000  0.000000000  0.090210562

  length of vectors
     3.858100176  4.526575088 11.085176468     0.259194929  0.220917577  0.090210562

  position of ions in fractional coordinates (direct lattice)
     0.597826087  0.650352318  0.122982664
     0.097826087  0.150352318  0.377017336
     0.750000000  0.885879566  0.877017336
     0.250000000  0.385879566  0.622982664
     0.597826087  0.529541773  0.352381810
     0.097826087  0.029541773  0.147618190
     0.750000000  0.006690111  0.647618190
     0.250000000  0.506690111  0.852381810

  ion indices of the primitive-cell ions
   primitive index   ion index
                 1           1
                 2           2
                 3           3
                 4           4
                 5           5
                 6           6
                 7           7
                 8           8

----------------------------------------------------------------------------------------

 
 
 KPOINTS: KPOINTS created by Atomic Simulation Env

Automatic generation of k-mesh.
 Grid dimensions read from file:
 generate k-points for:    6    6    2

 Generating k-lattice:

  Cartesian coordinates                     Fractional coordinates (reciprocal lattice)
     0.043199155  0.000000000  0.000000000     0.166666667  0.000000000  0.000000000
     0.000000000  0.036819596  0.000000000     0.000000000  0.166666667  0.000000000
     0.000000000  0.000000000  0.045105281     0.000000000  0.000000000  0.500000000

  Length of vectors
     0.043199155  0.036819596  0.045105281

  Shift w.r.t. Gamma in fractional coordinates (k-lattice)
     0.000000000  0.000000000  0.000000000

 
 Subroutine IBZKPT returns following result:
 ===========================================
 
 Found     40 irreducible k-points:
 
 Following reciprocal coordinates:
            Coordinates               Weight
  0.000000  0.000000  0.000000      1.000000
  0.166667  0.000000  0.000000      2.000000
  0.333333  0.000000  0.000000      2.000000
  0.500000  0.000000  0.000000      1.000000
  0.000000  0.166667  0.000000      2.000000
  0.166667  0.166667  0.000000      2.000000
  0.166667 -0.166667  0.000000      2.000000
  0.333333  0.166667  0.000000      2.000000
  0.333333 -0.166667  0.000000      2.000000
  0.500000  0.166667  0.000000      2.000000
  0.000000  0.333333  0.000000      2.000000
  0.166667  0.333333  0.000000      2.000000
  0.166667 -0.333333  0.000000      2.000000
  0.333333  0.333333  0.000000      2.000000
  0.333333 -0.333333  0.000000      2.000000
  0.500000  0.333333  0.000000      2.000000
  0.000000  0.500000  0.000000      1.000000
  0.166667  0.500000  0.000000      2.000000
  0.333333  0.500000  0.000000      2.000000
  0.500000  0.500000  0.000000      1.000000
  0.000000  0.000000  0.500000      1.000000
  0.166667  0.000000  0.500000      2.000000
  0.333333  0.000000  0.500000      2.000000
  0.500000  0.000000  0.500000      1.000000
  0.000000  0.166667  0.500000      2.000000
  0.166667  0.166667  0.500000      2.000000
  0.166667 -0.166667  0.500000      2.000000
  0.333333  0.166667  0.500000      2.000000
  0.333333 -0.166667  0.500000      2.000000
  0.500000  0.166667  0.500000      2.000000
  0.000000  0.333333  0.500000      2.000000
  0.166667  0.333333  0.500000      2.000000
  0.166667 -0.333333  0.500000      2.000000
  0.333333  0.333333  0.500000      2.000000
  0.333333 -0.333333  0.500000      2.000000
  0.500000  0.333333  0.500000      2.000000
  0.000000  0.500000  0.500000      1.000000
  0.166667  0.500000  0.500000      2.000000
  0.333333  0.500000  0.500000      2.000000
  0.500000  0.500000  0.500000      1.000000
 
 Following cartesian coordinates:
            Coordinates               Weight
  0.000000  0.000000  0.000000      1.000000
  0.043199  0.000000  0.000000      2.000000
  0.086398  0.000000  0.000000      2.000000
  0.129597  0.000000  0.000000      1.000000
  0.000000  0.036820  0.000000      2.000000
  0.043199  0.036820  0.000000      2.000000
  0.043199 -0.036820  0.000000      2.000000
  0.086398  0.036820  0.000000      2.000000
  0.086398 -0.036820  0.000000      2.000000
  0.129597  0.036820  0.000000      2.000000
  0.000000  0.073639  0.000000      2.000000
  0.043199  0.073639  0.000000      2.000000
  0.043199 -0.073639  0.000000      2.000000
  0.086398  0.073639  0.000000      2.000000
  0.086398 -0.073639  0.000000      2.000000
  0.129597  0.073639  0.000000      2.000000
  0.000000  0.110459  0.000000      1.000000
  0.043199  0.110459  0.000000      2.000000
  0.086398  0.110459  0.000000      2.000000
  0.129597  0.110459  0.000000      1.000000
  0.000000  0.000000  0.045105      1.000000
  0.043199  0.000000  0.045105      2.000000
  0.086398  0.000000  0.045105      2.000000
  0.129597  0.000000  0.045105      1.000000
  0.000000  0.036820  0.045105      2.000000
  0.043199  0.036820  0.045105      2.000000
  0.043199 -0.036820  0.045105      2.000000
  0.086398  0.036820  0.045105      2.000000
  0.086398 -0.036820  0.045105      2.000000
  0.129597  0.036820  0.045105      2.000000
  0.000000  0.073639  0.045105      2.000000
  0.043199  0.073639  0.045105      2.000000
  0.043199 -0.073639  0.045105      2.000000
  0.086398  0.073639  0.045105      2.000000
  0.086398 -0.073639  0.045105      2.000000
  0.129597  0.073639  0.045105      2.000000
  0.000000  0.110459  0.045105      1.000000
  0.043199  0.110459  0.045105      2.000000
  0.086398  0.110459  0.045105      2.000000
  0.129597  0.110459  0.045105      1.000000
 


--------------------------------------------------------------------------------------------------------




 Dimension of arrays:
   k-points           NKPTS =     40   k-points in BZ     NKDIM =     40   number of bands    NBANDS=     32
   number of dos      NEDOS =    301   number of ions     NIONS =      8
   non local maximal  LDIM  =      5   non local SUM 2l+1 LMDIM =     13
   total plane-waves  NPLWV =  43008
   max r-space proj   IRMAX =      1   max aug-charges    IRDMAX=  12272
   dimension x,y,z NGX =    24 NGY =   28 NGZ =   64
   dimension x,y,z NGXF=    48 NGYF=   56 NGZF=  128
   support grid    NGXF=    48 NGYF=   56 NGZF=  128
   ions per type =               4   4
   NGX,Y,Z   is equivalent  to a cutoff of  10.34, 10.28,  9.60 a.u.
   NGXF,Y,Z  is equivalent  to a cutoff of  20.68, 20.57, 19.20 a.u.

 SYSTEM =  ./                                      
 POSCAR =  Ge Se                                   

 Startparameter for this run:
   NWRITE =      2    write-flag & timer
   PREC   = normal    normal or accurate (medium, high low for compatibility)
   ISTART =      0    job   : 0-new  1-cont  2-samecut
   ICHARG =      2    charge: 1-file 2-atom 10-const
   ISPIN  =      1    spin polarized calculation?
   LNONCOLLINEAR =      F non collinear calculations
   LSORBIT =      F    spin-orbit coupling
   INIWAV =      1    electr: 0-lowe 1-rand  2-diag
   LASPH  =      T    aspherical Exc in radial PAW
 Electronic Relaxation 1
   ENCUT  =  520.0 eV  38.22 Ry    6.18 a.u.   7.17  8.42 20.61*2*pi/ulx,y,z
   ENINI  =  520.0     initial cutoff
   ENAUG  =  446.8 eV  augmentation charge cutoff
   NELM   =    100;   NELMIN=  2; NELMDL= -5     # of ELM steps 
   EDIFF  = 0.1E-05   stopping-criterion for ELM
   LREAL  =      F    real-space projection
   NLSPLINE    = F    spline interpolate recip. space projectors
   LCOMPAT=      F    compatible to vasp.4.4
   GGA_COMPAT  = T    GGA compatible to vasp.4.4-vasp.4.6
   LMAXPAW     = -100 max onsite density
   LMAXMIX     =    4 max onsite mixed and CHGCAR
   VOSKOWN=      0    Vosko Wilk Nusair interpolation
   ROPT   =    0.00000   0.00000
 Ionic relaxation
   EDIFFG = 0.1E-04   stopping-criterion for IOM
   NSW    =      0    number of steps for IOM
   NBLOCK =      1;   KBLOCK =      1    inner block; outer block 
   IBRION =     -1    ionic relax: 0-MD 1-quasi-New 2-CG
   NFREE  =      0    steps in history (QN), initial steepest desc. (CG)
   ISIF   =      2    stress and relaxation
   IWAVPR =     10    prediction:  0-non 1-charg 2-wave 3-comb
   ISYM   =      0    0-nonsym 1-usesym 2-fastsym
   LCORR  =      T    Harris-Foulkes like correction to forces

   POTIM  = 0.5000    time-step for ionic-motion
   TEIN   =    0.0    initial temperature
   TEBEG  =    0.0;   TEEND  =   0.0 temperature during run
   SMASS  =  -3.00    Nose mass-parameter (am)
   estimated Nose-frequenzy (Omega)   =  0.10E-29 period in steps = 0.13E+47 mass=  -0.340E-27a.u.
   SCALEE = 1.0000    scale energy and forces
   NPACO  =    256;   APACO  = 10.0  distance and # of slots for P.C.
   PSTRESS=    0.0 pullay stress

  Mass of Ions in am
   POMASS =  72.61 78.96
  Ionic Valenz
   ZVAL   =   4.00  6.00
  Atomic Wigner-Seitz radii
   RWIGS  =  -1.00 -1.00
  virtual crystal weights 
   VCA    =   1.00  1.00
   NELECT =      40.0000    total number of electrons
   NUPDOWN=      -1.0000    fix difference up-down

 DOS related values:
   EMIN   =  10.00;   EMAX   =-10.00  energy-range for DOS
   EFERMI =   0.00;   METHOD = LEGACY      
   ISMEAR =     0;   SIGMA  =   0.05  broadening in eV -4-tet -1-fermi 0-gaus

 Electronic relaxation 2 (details)
   IALGO  =     38    algorithm
   LDIAG  =      T    sub-space diagonalisation (order eigenvalues)
   LSUBROT=      F    optimize rotation matrix (better conditioning)
   TURBO    =      0    0=normal 1=particle mesh
   IRESTART =      0    0=no restart 2=restart with 2 vectors
   NREBOOT  =      0    no. of reboots
   NMIN     =      0    reboot dimension
   EREF     =   0.00    reference energy to select bands
   IMIX   =      4    mixing-type and parameters
     AMIX     =   0.40;   BMIX     =  1.00
     AMIX_MAG =   1.60;   BMIX_MAG =  1.00
     AMIN     =   0.10
     WC   =   100.;   INIMIX=   1;  MIXPRE=   1;  MAXMIX= -45

 Intra band minimization:
   WEIMIN = 0.0000     energy-eigenvalue tresh-hold
   EBREAK =  0.78E-08  absolut break condition
   DEPER  =   0.30     relativ break condition  

   TIME   =   0.40     timestep for ELM

  volume/ion in A,a.u.               =      24.20       163.30
  Fermi-wavevector in a.u.,A,eV,Ry     =   0.967831  1.828935 12.744535  0.936697
  Thomas-Fermi vector in A             =   2.097750
 
 Write flags
   LWAVE        =      F    write WAVECAR
   LDOWNSAMPLE  =      F    k-point downsampling of WAVECAR
   LCHARG       =      F    write CHGCAR
   LVTOT        =      F    write LOCPOT, total local potential
   LVHAR        =      F    write LOCPOT, Hartree potential only
   LELF         =      F    write electronic localiz. function (ELF)
   LORBIT       =      0    0 simple, 1 ext, 2 COOP (PROOUT), +10 PAW based schemes


 Dipole corrections
   LMONO  =      F    monopole corrections only (constant potential shift)
   LDIPOL =      F    correct potential (dipole corrections)
   IDIPOL =      0    1-x, 2-y, 3-z, 4-all directions 
   EPSILON=  1.0000000 bulk dielectric constant

 Exchange correlation treatment:
   GGA     =    PE    GGA type
   LEXCH   =     8    internal setting for exchange type
   LIBXC   =     F    Libxc                    
   VOSKOWN =     0    Vosko Wilk Nusair interpolation
   LHFCALC =     F    Hartree Fock is set to
   LHFONE  =     F    Hartree Fock one center treatment
   AEXX    =    0.0000 exact exchange contribution

 Linear response parameters
   LEPSILON=     F    determine dielectric tensor
   LRPA    =     F    only Hartree local field effects (RPA)
   LNABLA  =     F    use nabla operator in PAW spheres
   LVEL    =     F    velocity operator in full k-point grid
   CSHIFT  =0.1000    complex shift for real part using Kramers Kronig
   OMEGAMAX=  -1.0    maximum frequency
   DEG_THRESHOLD= 0.2000000E-02 threshold for treating states as degnerate
   RTIME   =   -0.100 relaxation time in fs
  (WPLASMAI=    0.000 imaginary part of plasma frequency in eV, 0.658/RTIME)
   DFIELD  = 0.0000000 0.0000000 0.0000000 field for delta impulse in time
 
  Optional k-point grid parameters
   LKPOINTS_OPT  =     F    use optional k-point grid
   KPOINTS_OPT_MODE=     1    mode for optional k-point grid
 
 Orbital magnetization related:
   ORBITALMAG=     F  switch on orbital magnetization
   LCHIMAG   =     F  perturbation theory with respect to B field
   DQ        =  0.001000  dq finite difference perturbation B field
   LLRAUG    =     F  two centre corrections for induced B field
   LBONE     =     F  B-component reconstruction in AE one-centre
   LVGVCALC  =     T  calculate vGv susceptibility
   LVGVAPPL  =     F  apply vGv susceptibility instead of pGv for G=0

 Random number generation:
   RANDOM_GENERATOR = DEFAULT
   PCG_SEED         = not used


--------------------------------------------------------------------------------------------------------


 Static calculation
 charge density and potential will be updated during run
 non-spin polarized calculation
 Variant of blocked Davidson
 Davidson routine will perform the subspace rotation
 perform sub-space diagonalisation
    after iterative eigenvector-optimisation
 modified Broyden-mixing scheme, WC =      100.0
 initial mixing is a Kerker type mixing with AMIX =  0.4000 and BMIX =      1.0000
 Hartree-type preconditioning will be used
 using additional bands            12
 reciprocal scheme for non local part
 use partial core corrections
 calculate Harris-corrections to forces 
   (improved forces if not selfconsistent)
 use gradient corrections 
 use of overlap-Matrix (Vanderbilt PP)
 Gauss-broadening in eV      SIGMA  =   0.05


--------------------------------------------------------------------------------------------------------


  energy-cutoff  :      520.00
  volume of cell :      193.59
      direct lattice vectors                 reciprocal lattice vectors
     3.858100176  0.000000000  0.000000000     0.259194929  0.000000000  0.000000000
     0.000000000  4.526575088  0.000000000     0.000000000  0.220917577  0.000000000
     0.000000000  0.000000000 11.085176468     0.000000000  0.000000000  0.090210562

  length of vectors
     3.858100176  4.526575088 11.085176468     0.259194929  0.220917577  0.090210562


 
 k-points in units of 2pi/SCALE and weight: KPOINTS created by Atomic Simulation Env
   0.00000000  0.00000000  0.00000000       0.014
   0.04319915  0.00000000  0.00000000       0.028
   0.08639831  0.00000000  0.00000000       0.028
   0.12959746  0.00000000  0.00000000       0.014
   0.00000000  0.03681960  0.00000000       0.028
   0.04319915  0.03681960  0.00000000       0.028
   0.04319915 -0.03681960  0.00000000       0.028
   0.08639831  0.03681960  0.00000000       0.028
   0.08639831 -0.03681960  0.00000000       0.028
   0.12959746  0.03681960  0.00000000       0.028
   0.00000000  0.07363919  0.00000000       0.028
   0.04319915  0.07363919  0.00000000       0.028
   0.04319915 -0.07363919  0.00000000       0.028
   0.08639831  0.07363919  0.00000000       0.028
   0.08639831 -0.07363919  0.00000000       0.028
   0.12959746  0.07363919  0.00000000       0.028
   0.00000000  0.11045879  0.00000000       0.014
   0.04319915  0.11045879  0.00000000       0.028
   0.08639831  0.11045879  0.00000000       0.028
   0.12959746  0.11045879  0.00000000       0.014
   0.00000000  0.00000000  0.04510528       0.014
   0.04319915  0.00000000  0.04510528       0.028
   0.08639831  0.00000000  0.04510528       0.028
   0.12959746  0.00000000  0.04510528       0.014
   0.00000000  0.03681960  0.04510528       0.028
   0.04319915  0.03681960  0.04510528       0.028
   0.04319915 -0.03681960  0.04510528       0.028
   0.08639831  0.03681960  0.04510528       0.028
   0.08639831 -0.03681960  0.04510528       0.028
   0.12959746  0.03681960  0.04510528       0.028
   0.00000000  0.07363919  0.04510528       0.028
   0.04319915  0.07363919  0.04510528       0.028
   0.04319915 -0.07363919  0.04510528       0.028
   0.08639831  0.07363919  0.04510528       0.028
   0.08639831 -0.07363919  0.04510528       0.028
   0.12959746  0.07363919  0.04510528       0.028
   0.00000000  0.11045879  0.04510528       0.014
   0.04319915  0.11045879  0.04510528       0.028
   0.08639831  0.11045879  0.04510528       0.028
   0.12959746  0.11045879  0.04510528       0.014
 
 k-points in reciprocal lattice and weights: KPOINTS created by Atomic Simulation Env
   0.00000000  0.00000000  0.00000000       0.014
   0.16666667  0.00000000  0.00000000       0.028
   0.33333333  0.00000000  0.00000000       0.028
   0.50000000  0.00000000  0.00000000       0.014
   0.00000000  0.16666667  0.00000000       0.028
   0.16666667  0.16666667  0.00000000       0.028
   0.16666667 -0.16666667  0.00000000       0.028
   0.33333333  0.16666667  0.00000000       0.028
   0.33333333 -0.16666667  0.00000000       0.028
   0.50000000  0.16666667  0.00000000       0.028
   0.00000000  0.33333333  0.00000000       0.028
   0.16666667  0.33333333  0.00000000       0.028
   0.16666667 -0.33333333  0.00000000       0.028
   0.33333333  0.33333333  0.00000000       0.028
   0.33333333 -0.33333333  0.00000000       0.028
   0.50000000  0.33333333  0.00000000       0.028
   0.00000000  0.50000000  0.00000000       0.014
   0.16666667  0.50000000  0.00000000       0.028
   0.33333333  0.50000000  0.00000000       0.028
   0.50000000  0.50000000  0.00000000       0.014
   0.00000000  0.00000000  0.50000000       0.014
   0.16666667  0.00000000  0.50000000       0.028
   0.33333333  0.00000000  0.50000000       0.028
   0.50000000  0.00000000  0.50000000       0.014
   0.00000000  0.16666667  0.50000000       0.028
   0.16666667  0.16666667  0.50000000       0.028
   0.16666667 -0.16666667  0.50000000       0.028
   0.33333333  0.16666667  0.50000000       0.028
   0.33333333 -0.16666667  0.50000000       0.028
   0.50000000  0.16666667  0.50000000       0.028
   0.00000000  0.33333333  0.50000000       0.028
   0.16666667  0.33333333  0.50000000       0.028
   0.16666667 -0.33333333  0.50000000       0.028
   0.33333333  0.33333333  0.50000000       0.028
   0.33333333 -0.33333333  0.50000000       0.028
   0.50000000  0.33333333  0.50000000       0.028
   0.00000000  0.50000000  0.50000000       0.014
   0.16666667  0.50000000  0.50000000       0.028
   0.33333333  0.50000000  0.50000000       0.028
   0.50000000  0.50000000  0.50000000       0.014
 
 position of ions in fractional coordinates (direct lattice) 
   0.59782609  0.65035232  0.12298266
   0.09782609  0.15035232  0.37701734
   0.75000000  0.88587957  0.87701734
   0.25000000  0.38587957  0.62298266
   0.59782609  0.52954177  0.35238181
   0.09782609  0.02954177  0.14761819
   0.75000000  0.00669011  0.64761819
   0.25000000  0.50669011  0.85238181
 
 position of ions in cartesian coordinates  (Angst):
   2.30647293  2.94386860  1.36328454
   0.37742284  0.68058106  4.17930370
   2.89357513  4.01000037  9.72189193
   0.96452504  1.74671283  6.90587277
   2.30647293  2.39701060  3.90621455
   0.37742284  0.13372305  1.63637368
   2.89357513  0.03028329  7.17896192
   0.96452504  2.29357083  9.44880278
 


--------------------------------------------------------------------------------------------------------


 k-point   1 :   0.0000 0.0000 0.0000  plane waves:    5211
 k-point   2 :   0.1667 0.0000 0.0000  plane waves:    5225
 k-point   3 :   0.3333 0.0000 0.0000  plane waves:    5224
 k-point   4 :   0.5000 0.0000 0.0000  plane waves:    5258
 k-point   5 :   0.0000 0.1667 0.0000  plane waves:    5209
 k-point   6 :   0.1667 0.1667 0.0000  plane waves:    5201
 k-point   7 :   0.1667-0.1667 0.0000  plane waves:    5201
 k-point   8 :   0.3333 0.1667 0.0000  plane waves:    5230
 k-point   9 :   0.3333-0.1667 0.0000  plane waves:    5230
 k-point  10 :   0.5000 0.1667 0.0000  plane waves:    5236
 k-point  11 :   0.0000 0.3333 0.0000  plane waves:    5213
 k-point  12 :   0.1667 0.3333 0.0000  plane waves:    5199
 k-point  13 :   0.1667-0.3333 0.0000  plane waves:    5199
 k-point  14 :   0.3333 0.3333 0.0000  plane waves:    5211
 k-point  15 :   0.3333-0.3333 0.0000  plane waves:    5211
 k-point  16 :   0.5000 0.3333 0.0000  plane waves:    5230
 k-point  17 :   0.0000 0.5000 0.0000  plane waves:    5220
 k-point  18 :   0.1667 0.5000 0.0000  plane waves:    5208
 k-point  19 :   0.3333 0.5000 0.0000  plane waves:    5230
 k-point  20 :   0.5000 0.5000 0.0000  plane waves:    5180
 k-point  21 :   0.0000 0.0000 0.5000  plane waves:    5210
 k-point  22 :   0.1667 0.0000 0.5000  plane waves:    5178
 k-point  23 :   0.3333 0.0000 0.5000  plane waves:    5214
 k-point  24 :   0.5000 0.0000 0.5000  plane waves:    5232
 k-point  25 :   0.0000 0.1667 0.5000  plane waves:    5224
 k-point  26 :   0.1667 0.1667 0.5000  plane waves:    5210
 k-point  27 :   0.1667-0.1667 0.5000  plane waves:    5210
 k-point  28 :   0.3333 0.1667 0.5000  plane waves:    5196
 k-point  29 :   0.3333-0.1667 0.5000  plane waves:    5196
 k-point  30 :   0.5000 0.1667 0.5000  plane waves:    5224
 k-point  31 :   0.0000 0.3333 0.5000  plane waves:    5202
 k-point  32 :   0.1667 0.3333 0.5000  plane waves:    5214
 k-point  33 :   0.1667-0.3333 0.5000  plane waves:    5214
 k-point  34 :   0.3333 0.3333 0.5000  plane waves:    5216
 k-point  35 :   0.3333-0.3333 0.5000  plane waves:    5216
 k-point  36 :   0.5000 0.3333 0.5000  plane waves:    5216
 k-point  37 :   0.0000 0.5000 0.5000  plane waves:    5212
 k-point  38 :   0.1667 0.5000 0.5000  plane waves:    5192
 k-point  39 :   0.3333 0.5000 0.5000  plane waves:    5208
 k-point  40 :   0.5000 0.5000 0.5000  plane waves:    5208

 maximum and minimum number of plane-waves per node :      1076     1017

 maximum number of plane-waves:      5258
 maximum index in each direction: 
   IXMAX=    7   IYMAX=    8   IZMAX=   20
   IXMIN=   -7   IYMIN=   -8   IZMIN=  -21


 parallel 3D FFT for wavefunctions:
    minimum data exchange during FFTs selected (reduces bandwidth)
 parallel 3D FFT for charge:
    minimum data exchange during FFTs selected (reduces bandwidth)


 total amount of memory used by VASP MPI-rank0    41770. kBytes
=======================================================================

   base      :      30000. kBytes
   nonl-proj :       9056. kBytes
   fftplans  :        519. kBytes
   grid      :        766. kBytes
   one-center:         16. kBytes
   wavefun   :       1413. kBytes
 
     INWAV:  cpu time      0.0000: real time      0.0001
 Broyden mixing: mesh for mixing (old mesh)
   NGX = 15   NGY = 17   NGZ = 41
  (NGX  = 48   NGY  = 56   NGZ  =128)
  gives a total of  10455 points

 initial charge density was supplied:
 charge density of overlapping atoms calculated
 number of electron      40.0000000 magnetization 
 keeping initial charge density in first step


--------------------------------------------------------------------------------------------------------


 Maximum index for augmentation-charges           540 (set IRDMAX)


--------------------------------------------------------------------------------------------------------


 First call to EWALD:  gamma=   0.306
 Maximum number of real-space cells 4x 3x 2
 Maximum number of reciprocal cells 2x 2x 5

    FEWALD:  cpu time      0.0011: real time      0.0011


--------------------------------------- Ionic step        1  -------------------------------------------




--------------------------------------- Iteration      1(   1)  ---------------------------------------


    POTLOK:  cpu time      0.0111: real time      0.0113
    SETDIJ:  cpu time      0.2169: real time      0.2173
     EDDAV:  cpu time      0.3476: real time      0.3488
       DOS:  cpu time      0.0010: real time      0.0010
    --------------------------------------------
      LOOP:  cpu time      0.5766: real time      0.5785

 eigenvalue-minimisations  :  2560
 total energy-change (2. order) : 0.1627591E+03  (-0.1589206E+04)
 number of electron      40.0000000 magnetization 
 augmentation part       40.0000000 magnetization 

 Free energy of the ion-electron system (eV)
  ---------------------------------------------------
  alpha Z        PSCENC =        87.52689448
  Ewald energy   TEWEN  =     -1415.88676339
  -Hartree energ DENC   =      -130.11587180
  -exchange      EXHF   =         0.00000000
  -V(xc)+E(xc)   XCENC  =       -33.27677785
  PAW double counting   =      1193.78262552    -1080.73714043
  entropy T*S    EENTRO =        -0.00187322
  eigenvalues    EBANDS =        92.97335405
  atomic energy  EATOM  =      1448.49460871
  Solvation  Ediel_sol  =         0.00000000
  ---------------------------------------------------
  free energy    TOTEN  =       162.75905607 eV

  energy without entropy =      162.76092929  energy(sigma->0) =      162.75999268


--------------------------------------------------------------------------------------------------------




--------------------------------------- Iteration      1(   2)  ---------------------------------------


     EDDAV:  cpu time      0.4784: real time      0.4819
       DOS:  cpu time      0.0010: real time      0.0010
    --------------------------------------------
      LOOP:  cpu time      0.4794: real time      0.4829

 eigenvalue-minimisations  :  3680
 total energy-change (2. order) :-0.1853555E+03  (-0.1798225E+03)
 number of electron      40.0000000 magnetization 
 augmentation part       40.0000000 magnetization 

 Free energy of the ion-electron system (eV)
  ---------------------------------------------------
  alpha Z        PSCENC =        87.52689448
  Ewald energy   TEWEN  =     -1415.88676339
  -Hartree energ DENC   =      -130.11587180
  -exchange      EXHF   =         0.00000000
  -V(xc)+E(xc)   XCENC  =       -33.27677785
  PAW double counting   =      1193.78262552    -1080.73714043
  entropy T*S    EENTRO =        -0.00103445
  eigenvalues    EBANDS =       -92.38297531
  atomic energy  EATOM  =      1448.49460871
  Solvation  Ediel_sol  =         0.00000000
  ---------------------------------------------------
  free energy    TOTEN  =       -22.59643452 eV

  energy without entropy =      -22.59540007  energy(sigma->0) =      -22.59591730


--------------------------------------------------------------------------------------------------------




--------------------------------------- Iteration      1(   3)  ---------------------------------------


     EDDAV:  cpu time      0.4455: real time      0.4478
       DOS:  cpu time      0.0009: real time      0.0009
    --------------------------------------------
      LOOP:  cpu time      0.4464: real time      0.4487

 eigenvalue-minimisations  :  3296
 total energy-change (2. order) :-0.1122906E+02  (-0.1119034E+02)
 number of electron      40.0000000 magnetization 
 augmentation part       40.0000000 magnetization 

 Free energy of the ion-electron system (eV)
  ---------------------------------------------------
  alpha Z        PSCENC =        87.52689448
  Ewald energy   TEWEN  =     -1415.88676339
  -Hartree energ DENC   =      -130.11587180
  -exchange      EXHF   =         0.00000000
  -V(xc)+E(xc)   XCENC  =       -33.27677785
  PAW double counting   =      1193.78262552    -1080.73714043
  entropy T*S    EENTRO =        -0.00000155
  eigenvalues    EBANDS =      -103.61307124
  atomic energy  EATOM  =      1448.49460871
  Solvation  Ediel_sol  =         0.00000000
  ---------------------------------------------------
  free energy    TOTEN  =       -33.82549755 eV

  energy without entropy =      -33.82549601  energy(sigma->0) =      -33.82549678


--------------------------------------------------------------------------------------------------------




--------------------------------------- Iteration      1(   4)  ---------------------------------------


     EDDAV:  cpu time      0.4878: real time      0.4907
       DOS:  cpu time      0.0008: real time      0.0008
    --------------------------------------------
      LOOP:  cpu time      0.4887: real time      0.4916

 eigenvalue-minimisations  :  3248
 total energy-change (2. order) :-0.8788791E-01  (-0.8787284E-01)
 number of electron      40.0000000 magnetization 
 augmentation part       40.0000000 magnetization 

 Free energy of the ion-electron system (eV)
  ---------------------------------------------------
  alpha Z        PSCENC =        87.52689448
  Ewald energy   TEWEN  =     -1415.88676339
  -Hartree energ DENC   =      -130.11587180
  -exchange      EXHF   =         0.00000000
  -V(xc)+E(xc)   XCENC  =       -33.27677785
  PAW double counting   =      1193.78262552    -1080.73714043
  entropy T*S    EENTRO =        -0.00000150
  eigenvalues    EBANDS =      -103.70095919
  atomic energy  EATOM  =      1448.49460871
  Solvation  Ediel_sol  =         0.00000000
  ---------------------------------------------------
  free energy    TOTEN  =       -33.91338546 eV

  energy without entropy =      -33.91338396  energy(sigma->0) =      -33.91338471


--------------------------------------------------------------------------------------------------------




--------------------------------------- Iteration      1(   5)  ---------------------------------------


     EDDAV:  cpu time      0.4387: real time      0.4412
       DOS:  cpu time      0.0008: real time      0.0008
    CHARGE:  cpu time      0.0090: real time      0.0091
    MIXING:  cpu time      0.0010: real time      0.0010
    --------------------------------------------
      LOOP:  cpu time      0.4496: real time      0.4521

 eigenvalue-minimisations  :  3360
 total energy-change (2. order) :-0.5857653E-03  (-0.5856998E-03)
 number of electron      40.0000004 magnetization 
 augmentation part       -7.4046733 magnetization 

 Broyden mixing:
  rms(total) = 0.64758E+00    rms(broyden)= 0.64758E+00
  rms(prec ) = 0.72728E+00
  weight for this iteration     100.00

 Free energy of the ion-electron system (eV)
  ---------------------------------------------------
  alpha Z        PSCENC =        87.52689448
  Ewald energy   TEWEN  =     -1415.88676339
  -Hartree energ DENC   =      -130.11587180
  -exchange      EXHF   =         0.00000000
  -V(xc)+E(xc)   XCENC  =       -33.27677785
  PAW double counting   =      1193.78262552    -1080.73714043
  entropy T*S    EENTRO =        -0.00000150
  eigenvalues    EBANDS =      -103.70154496
  atomic energy  EATOM  =      1448.49460871
  Solvation  Ediel_sol  =         0.00000000
  ---------------------------------------------------
  free energy    TOTEN  =       -33.91397122 eV

  energy without entropy =      -33.91396972  energy(sigma->0) =      -33.91397047


--------------------------------------------------------------------------------------------------------




--------------------------------------- Iteration      1(   6)  ---------------------------------------


    POTLOK:  cpu time      0.0103: real time      0.0104
    SETDIJ:  cpu time      0.2255: real time      0.2261
     EDDAV:  cpu time      0.4649: real time      0.4678
       DOS:  cpu time      0.0131: real time      0.0131
    CHARGE:  cpu time      0.0087: real time      0.0088
    MIXING:  cpu time      0.0007: real time      0.0007
    --------------------------------------------
      LOOP:  cpu time      0.7232: real time      0.7269

 eigenvalue-minimisations  :  3312
 total energy-change (2. order) : 0.3582949E+00  (-0.7488937E-01)
 number of electron      40.0000004 magnetization 
 augmentation part       -7.3516252 magnetization 

 Broyden mixing:
  rms(total) = 0.40731E+00    rms(broyden)= 0.40731E+00
  rms(prec ) = 0.42781E+00
  weight for this iteration     100.00

 eigenvalues of (default mixing * dielectric matrix)
  average eigenvalue GAMMA=   2.2071
  2.2071

 Free energy of the ion-electron system (eV)
  ---------------------------------------------------
  alpha Z        PSCENC =        87.52689448
  Ewald energy   TEWEN  =     -1415.88676339
  -Hartree energ DENC   =      -135.72086510
  -exchange      EXHF   =         0.00000000
  -V(xc)+E(xc)   XCENC  =       -32.68138090
  PAW double counting   =      1459.16606001    -1346.44384701
  entropy T*S    EENTRO =        -0.00001427
  eigenvalues    EBANDS =       -98.01036888
  atomic energy  EATOM  =      1448.49460871
  Solvation  Ediel_sol  =         0.00000000
  ---------------------------------------------------
  free energy    TOTEN  =       -33.55567634 eV

  energy without entropy =      -33.55566208  energy(sigma->0) =      -33.55566921


--------------------------------------------------------------------------------------------------------




--------------------------------------- Iteration      1(   7)  ---------------------------------------


    POTLOK:  cpu time      0.0099: real time      0.0100
    SETDIJ:  cpu time      0.2181: real time      0.2188
     EDDAV:  cpu time      0.4683: real time      0.4715
       DOS:  cpu time      0.0009: real time      0.0009
    CHARGE:  cpu time      0.0088: real time      0.0088
    MIXING:  cpu time      0.0006: real time      0.0007
    --------------------------------------------
      LOOP:  cpu time      0.7066: real time      0.7106

 eigenvalue-minimisations  :  3024
 total energy-change (2. order) : 0.1100127E-01  (-0.2090942E-01)
 number of electron      40.0000004 magnetization 
 augmentation part       -7.3376838 magnetization 

 Broyden mixing:
  rms(total) = 0.12556E+00    rms(broyden)= 0.12556E+00
  rms(prec ) = 0.13395E+00
  weight for this iteration     100.00

 eigenvalues of (default mixing * dielectric matrix)
  average eigenvalue GAMMA=   1.7871
  1.1892  2.3849

 Free energy of the ion-electron system (eV)
  ---------------------------------------------------
  alpha Z        PSCENC =        87.52689448
  Ewald energy   TEWEN  =     -1415.88676339
  -Hartree energ DENC   =      -138.33478757
  -exchange      EXHF   =         0.00000000
  -V(xc)+E(xc)   XCENC  =       -32.21330825
  PAW double counting   =      1790.39982514    -1677.92531096
  entropy T*S    EENTRO =        -0.00002449
  eigenvalues    EBANDS =       -95.60580873
  atomic energy  EATOM  =      1448.49460871
  Solvation  Ediel_sol  =         0.00000000
  ---------------------------------------------------
  free energy    TOTEN  =       -33.54467507 eV

  energy without entropy =      -33.54465058  energy(sigma->0) =      -33.54466283


--------------------------------------------------------------------------------------------------------




--------------------------------------- Iteration      1(   8)  ---------------------------------------


    POTLOK:  cpu time      0.0101: real time      0.0102
    SETDIJ:  cpu time      0.2244: real time      0.2250
     EDDAV:  cpu time      0.4258: real time      0.4279
       DOS:  cpu time      0.0010: real time      0.0010
    CHARGE:  cpu time      0.0088: real time      0.0088
    MIXING:  cpu time      0.0008: real time      0.0008
    --------------------------------------------
      LOOP:  cpu time      0.6708: real time      0.6737

 eigenvalue-minimisations  :  3072
 total energy-change (2. order) : 0.1539645E-02  (-0.2049196E-02)
 number of electron      40.0000004 magnetization 
 augmentation part       -7.3453622 magnetization 

 Broyden mixing:
  rms(total) = 0.17213E-01    rms(broyden)= 0.17213E-01
  rms(prec ) = 0.20668E-01
  weight for this iteration     100.00

 eigenvalues of (default mixing * dielectric matrix)
  average eigenvalue GAMMA=   1.6977
  2.5042  1.2944  1.2944

 Free energy of the ion-electron system (eV)
  ---------------------------------------------------
  alpha Z        PSCENC =        87.52689448
  Ewald energy   TEWEN  =     -1415.88676339
  -Hartree energ DENC   =      -138.43907266
  -exchange      EXHF   =         0.00000000
  -V(xc)+E(xc)   XCENC  =       -32.07953974
  PAW double counting   =      1925.54686987    -1813.13525842
  entropy T*S    EENTRO =        -0.00003260
  eigenvalues    EBANDS =       -95.57084168
  atomic energy  EATOM  =      1448.49460871
  Solvation  Ediel_sol  =         0.00000000
  ---------------------------------------------------
  free energy    TOTEN  =       -33.54313543 eV

  energy without entropy =      -33.54310283  energy(sigma->0) =      -33.54311913


--------------------------------------------------------------------------------------------------------




--------------------------------------- Iteration      1(   9)  ---------------------------------------


    POTLOK:  cpu time      0.0103: real time      0.0104
    SETDIJ:  cpu time      0.2182: real time      0.2188
     EDDAV:  cpu time      0.4374: real time      0.4396
       DOS:  cpu time      0.0009: real time      0.0009
    CHARGE:  cpu time      0.0086: real time      0.0087
    MIXING:  cpu time      0.0008: real time      0.0008
    --------------------------------------------
      LOOP:  cpu time      0.6762: real time      0.6793

 eigenvalue-minimisations  :  3328
 total energy-change (2. order) :-0.3427530E-03  (-0.2765598E-03)
 number of electron      40.0000004 magnetization 
 augmentation part       -7.3442284 magnetization 

 Broyden mixing:
  rms(total) = 0.65030E-02    rms(broyden)= 0.65030E-02
  rms(prec ) = 0.72291E-02
  weight for this iteration     100.00

 eigenvalues of (default mixing * dielectric matrix)
  average eigenvalue GAMMA=   1.7388
  2.2996  2.2996  1.1781  1.1781

 Free energy of the ion-electron system (eV)
  ---------------------------------------------------
  alpha Z        PSCENC =        87.52689448
  Ewald energy   TEWEN  =     -1415.88676339
  -Hartree energ DENC   =      -138.74655191
  -exchange      EXHF   =         0.00000000
  -V(xc)+E(xc)   XCENC  =       -32.04086476
  PAW double counting   =      1938.95098007    -1826.54882385
  entropy T*S    EENTRO =        -0.00003115
  eigenvalues    EBANDS =       -95.29292637
  atomic energy  EATOM  =      1448.49460871
  Solvation  Ediel_sol  =         0.00000000
  ---------------------------------------------------
  free energy    TOTEN  =       -33.54347818 eV

  energy without entropy =      -33.54344703  energy(sigma->0) =      -33.54346260


--------------------------------------------------------------------------------------------------------




--------------------------------------- Iteration      1(  10)  ---------------------------------------


    POTLOK:  cpu time      0.0099: real time      0.0100
    SETDIJ:  cpu time      0.2175: real time      0.2181
     EDDAV:  cpu time      0.4141: real time      0.4162
       DOS:  cpu time      0.0008: real time      0.0008
    CHARGE:  cpu time      0.0081: real time      0.0082
    MIXING:  cpu time      0.0006: real time      0.0006
    --------------------------------------------
      LOOP:  cpu time      0.6510: real time      0.6539

 eigenvalue-minimisations  :  3104
 total energy-change (2. order) :-0.9921383E-04  (-0.2276701E-04)
 number of electron      40.0000004 magnetization 
 augmentation part       -7.3441107 magnetization 

 Broyden mixing:
  rms(total) = 0.22758E-02    rms(broyden)= 0.22758E-02
  rms(prec ) = 0.27678E-02
  weight for this iteration     100.00

 eigenvalues of (default mixing * dielectric matrix)
  average eigenvalue GAMMA=   1.7444
  2.6998  2.3609  1.1960  1.2327  1.2327

 Free energy of the ion-electron system (eV)
  ---------------------------------------------------
  alpha Z        PSCENC =        87.52689448
  Ewald energy   TEWEN  =     -1415.88676339
  -Hartree energ DENC   =      -138.79029872
  -exchange      EXHF   =         0.00000000
  -V(xc)+E(xc)   XCENC  =       -32.03653510
  PAW double counting   =      1932.58614406    -1820.17918759
  entropy T*S    EENTRO =        -0.00002989
  eigenvalues    EBANDS =       -95.25840995
  atomic energy  EATOM  =      1448.49460871
  Solvation  Ediel_sol  =         0.00000000
  ---------------------------------------------------
  free energy    TOTEN  =       -33.54357739 eV

  energy without entropy =      -33.54354750  energy(sigma->0) =      -33.54356245


--------------------------------------------------------------------------------------------------------




--------------------------------------- Iteration      1(  11)  ---------------------------------------


    POTLOK:  cpu time      0.0098: real time      0.0099
    SETDIJ:  cpu time      0.2197: real time      0.2203
     EDDAV:  cpu time      0.4411: real time      0.4432
       DOS:  cpu time      0.0010: real time      0.0010
    CHARGE:  cpu time      0.0091: real time      0.0092
    MIXING:  cpu time      0.0006: real time      0.0006
    --------------------------------------------
      LOOP:  cpu time      0.6813: real time      0.6842

 eigenvalue-minimisations  :  3280
 total energy-change (2. order) :-0.2415786E-04  (-0.3311932E-05)
 number of electron      40.0000004 magnetization 
 augmentation part       -7.3442583 magnetization 

 Broyden mixing:
  rms(total) = 0.10955E-02    rms(broyden)= 0.10955E-02
  rms(prec ) = 0.12060E-02
  weight for this iteration     100.00

 eigenvalues of (default mixing * dielectric matrix)
  average eigenvalue GAMMA=   1.7136
  2.5217  2.2395  2.2395  1.1929  1.1929  0.8953

 Free energy of the ion-electron system (eV)
  ---------------------------------------------------
  alpha Z        PSCENC =        87.52689448
  Ewald energy   TEWEN  =     -1415.88676339
  -Hartree energ DENC   =      -138.81674310
  -exchange      EXHF   =         0.00000000
  -V(xc)+E(xc)   XCENC  =       -32.03055601
  PAW double counting   =      1934.28357186    -1821.87709002
  entropy T*S    EENTRO =        -0.00002989
  eigenvalues    EBANDS =       -95.23749419
  atomic energy  EATOM  =      1448.49460871
  Solvation  Ediel_sol  =         0.00000000
  ---------------------------------------------------
  free energy    TOTEN  =       -33.54360155 eV

  energy without entropy =      -33.54357166  energy(sigma->0) =      -33.54358661


--------------------------------------------------------------------------------------------------------




--------------------------------------- Iteration      1(  12)  ---------------------------------------


    POTLOK:  cpu time      0.0099: real time      0.0101
    SETDIJ:  cpu time      0.2183: real time      0.2190
     EDDAV:  cpu time      0.4513: real time      0.4534
       DOS:  cpu time      0.0009: real time      0.0009
    CHARGE:  cpu time      0.0090: real time      0.0091
    MIXING:  cpu time      0.0006: real time      0.0006
    --------------------------------------------
      LOOP:  cpu time      0.6901: real time      0.6931

 eigenvalue-minimisations  :  3360
 total energy-change (2. order) :-0.1052428E-05  (-0.4632520E-06)
 number of electron      40.0000004 magnetization 
 augmentation part       -7.3441716 magnetization 

 Broyden mixing:
  rms(total) = 0.33818E-03    rms(broyden)= 0.33818E-03
  rms(prec ) = 0.38802E-03
  weight for this iteration     100.00

 eigenvalues of (default mixing * dielectric matrix)
  average eigenvalue GAMMA=   1.7083
  2.9203  2.4282  2.0028  0.9940  1.2957  1.1586  1.1586

 Free energy of the ion-electron system (eV)
  ---------------------------------------------------
  alpha Z        PSCENC =        87.52689448
  Ewald energy   TEWEN  =     -1415.88676339
  -Hartree energ DENC   =      -138.82883847
  -exchange      EXHF   =         0.00000000
  -V(xc)+E(xc)   XCENC  =       -32.02968219
  PAW double counting   =      1933.77161844    -1821.36500071
  entropy T*S    EENTRO =        -0.00003000
  eigenvalues    EBANDS =       -95.22640948
  atomic energy  EATOM  =      1448.49460871
  Solvation  Ediel_sol  =         0.00000000
  ---------------------------------------------------
  free energy    TOTEN  =       -33.54360260 eV

  energy without entropy =      -33.54357260  energy(sigma->0) =      -33.54358760


--------------------------------------------------------------------------------------------------------




--------------------------------------- Iteration      1(  13)  ---------------------------------------


    POTLOK:  cpu time      0.0099: real time      0.0101
    SETDIJ:  cpu time      0.2180: real time      0.2186
     EDDAV:  cpu time      0.3723: real time      0.3743
       DOS:  cpu time      0.0037: real time      0.0037
    --------------------------------------------
      LOOP:  cpu time      0.6038: real time      0.6067

 eigenvalue-minimisations  :  1840
 total energy-change (2. order) :-0.2841724E-06  (-0.1001764E-06)
 number of electron      40.0000004 magnetization 
 augmentation part       -7.3441716 magnetization 

 Free energy of the ion-electron system (eV)
  ---------------------------------------------------
  alpha Z        PSCENC =        87.52689448
  Ewald energy   TEWEN  =     -1415.88676339
  -Hartree energ DENC   =      -138.83296851
  -exchange      EXHF   =         0.00000000
  -V(xc)+E(xc)   XCENC  =       -32.02917868
  PAW double counting   =      1933.56320197    -1821.15637386
  entropy T*S    EENTRO =        -0.00003001
  eigenvalues    EBANDS =       -95.22299359
  atomic energy  EATOM  =      1448.49460871
  Solvation  Ediel_sol  =         0.00000000
  ---------------------------------------------------
  free energy    TOTEN  =       -33.54360289 eV

  energy without entropy =      -33.54357287  energy(sigma->0) =      -33.54358788


--------------------------------------------------------------------------------------------------------




 average (electrostatic) potential at core
  the test charge radii are     1.1631  1.0808
  (the norm of the test charge is              1.0000)
       1 -33.4837       2 -33.4837       3 -33.4837       4 -33.4837       5 -54.9945
       6 -54.9945       7 -54.9945       8 -54.9945
 
 
 
 E-fermi :   3.3568     XC(G=0):  -9.2764     alpha+bet : -8.7197

 Fermi energy:         3.3568360213

 k-point     1 :       0.0000    0.0000    0.0000
  band No.  band energies     occupation 
      1     -10.9987      2.00000
      2     -10.6615      2.00000
      3      -9.7384      2.00000
      4      -9.2644      2.00000
      5      -4.9253      2.00000
      6      -4.0294      2.00000
      7      -2.9963      2.00000
      8      -2.4297      2.00000
      9      -1.7133      2.00000
     10      -0.4785      2.00000
     11       0.1124      2.00000
     12       0.2001      2.00000
     13       0.2971      2.00000
     14       0.4098      2.00000
     15       1.1700      2.00000
     16       1.4136      2.00000
     17       1.7832      2.00000
     18       2.3872      2.00000
     19       2.3959      2.00000
     20       2.9478      2.00000
     21       3.4476      0.01022
     22       5.7442      0.00000
     23       5.8371      0.00000
     24       5.9449      0.00000
     25       5.9704      0.00000
     26       6.9310      0.00000
     27       7.2226      0.00000
     28       8.2147      0.00000
     29       8.2620      0.00000
     30       8.5773      0.00000
     31       8.6367      0.00000
     32       9.1525      0.00000

 k-point     2 :       0.1667    0.0000    0.0000
  band No.  band energies     occupation 
      1     -10.8077      2.00000
      2     -10.4849      2.00000
      3      -9.6203      2.00000
      4      -9.2016      2.00000
      5      -5.1898      2.00000
      6      -4.2208      2.00000
      7      -3.4026      2.00000
      8      -2.7108      2.00000
      9      -1.7773      2.00000
     10      -0.3894      2.00000
     11      -0.0708      2.00000
     12       0.0673      2.00000
     13       0.4057      2.00000
     14       0.4481      2.00000
     15       0.9816      2.00000
     16       1.3883      2.00000
     17       1.8280      2.00000
     18       2.2163      2.00000
     19       2.4999      2.00000
     20       2.9027      2.00000
     21       3.6120      0.00000
     22       5.2798      0.00000
     23       5.9368      0.00000
     24       6.4339      0.00000
     25       6.5058      0.00000
     26       6.5453      0.00000
     27       6.7527      0.00000
     28       7.3903      0.00000
     29       7.9907      0.00000
     30       8.0103      0.00000
     31       8.4292      0.00000
     32       9.0523      0.00000

 k-point     3 :       0.3333    0.0000    0.0000
  band No.  band energies     occupation 
      1     -10.2880      2.00000
      2     -10.0123      2.00000
      3      -9.4350      2.00000
      4      -9.1686      2.00000
      5      -5.6942      2.00000
      6      -4.5786      2.00000
      7      -4.5726      2.00000
      8      -3.5695      2.00000
      9      -1.3561      2.00000
     10      -0.3860      2.00000
     11       0.0441      2.00000
     12       0.4127      2.00000
     13       0.6653      2.00000
     14       0.9193      2.00000
     15       1.0316      2.00000
     16       1.2463      2.00000
     17       1.5717      2.00000
     18       2.1488      2.00000
     19       2.5353      2.00000
     20       2.6637      2.00000
     21       4.1078      0.00000
     22       4.1194      0.00000
     23       4.7917      0.00000
     24       5.2547      0.00000
     25       5.6907      0.00000
     26       5.7486      0.00000
     27       5.9709      0.00000
     28       6.7399      0.00000
     29       6.8678      0.00000
     30       7.0560      0.00000
     31       8.6178      0.00000
     32       9.1321      0.00000

 k-point     4 :       0.5000    0.0000    0.0000
  band No.  band energies     occupation 
      1      -9.6660      2.00000
      2      -9.6660      2.00000
      3      -9.4605      2.00000
      4      -9.4605      2.00000
      5      -5.5697      2.00000
      6      -5.5697      2.00000
      7      -4.4158      2.00000
      8      -4.4158      2.00000
      9      -0.5990      2.00000
     10      -0.5990      2.00000
     11       0.5723      2.00000
     12       0.5723      2.00000
     13       0.8283      2.00000
     14       0.8283      2.00000
     15       1.2141      2.00000
     16       1.2141      2.00000
     17       1.6922      2.00000
     18       1.6922      2.00000
     19       2.4242      2.00000
     20       2.4242      2.00000
     21       4.1917      0.00000
     22       4.1917      0.00000
     23       4.8171      0.00000
     24       4.8171      0.00000
     25       4.9794      0.00000
     26       4.9794      0.00000
     27       5.8219      0.00000
     28       5.8219      0.00000
     29       6.0535      0.00000
     30       6.0535      0.00000
     31       8.9104      0.00000
     32       8.9104      0.00000

 k-point     5 :       0.0000    0.1667    0.0000
  band No.  band energies     occupation 
      1     -10.8815      2.00000
      2     -10.5584      2.00000
      3      -9.7400      2.00000
      4      -9.3375      2.00000
      5      -5.1063      2.00000
      6      -4.2773      2.00000
      7      -3.5717      2.00000
      8      -2.7095      2.00000
      9      -1.7257      2.00000
     10      -0.0106      2.00000
     11       0.2849      2.00000
     12       0.4688      2.00000
     13       0.6072      2.00000
     14       0.6216      2.00000
     15       1.4037      2.00000
     16       1.6983      2.00000
     17       1.7138      2.00000
     18       1.9703      2.00000
     19       2.6570      2.00000
     20       3.1369      2.00000
     21       3.7735      0.00000
     22       5.1330      0.00000
     23       5.7512      0.00000
     24       5.7729      0.00000
     25       6.0731      0.00000
     26       6.5195      0.00000
     27       6.7605      0.00000
     28       7.8097      0.00000
     29       7.8959      0.00000
     30       8.0921      0.00000
     31       8.3124      0.00000
     32       8.9414      0.00000

 k-point     6 :       0.1667    0.1667    0.0000
  band No.  band energies     occupation 
      1     -10.6943      2.00000
      2     -10.3886      2.00000
      3      -9.6198      2.00000
      4      -9.2726      2.00000
      5      -5.2349      2.00000
      6      -4.3615      2.00000
      7      -3.8468      2.00000
      8      -2.8518      2.00000
      9      -1.6137      2.00000
     10      -0.8055      2.00000
     11      -0.4340      2.00000
     12       0.2451      2.00000
     13       0.8111      2.00000
     14       0.8939      2.00000
     15       1.1787      2.00000
     16       1.2524      2.00000
     17       1.6273      2.00000
     18       2.3888      2.00000
     19       2.5935      2.00000
     20       3.1522      2.00000
     21       3.9535      0.00000
     22       4.9706      0.00000
     23       5.4530      0.00000
     24       5.8825      0.00000
     25       6.5030      0.00000
     26       6.5951      0.00000
     27       7.3223      0.00000
     28       7.3244      0.00000
     29       7.3689      0.00000
     30       7.7860      0.00000
     31       8.2120      0.00000
     32       9.0665      0.00000

 k-point     7 :       0.1667   -0.1667    0.0000
  band No.  band energies     occupation 
      1     -10.6968      2.00000
      2     -10.3868      2.00000
      3      -9.6257      2.00000
      4      -9.2643      2.00000
      5      -5.2830      2.00000
      6      -4.3063      2.00000
      7      -3.6093      2.00000
      8      -3.1817      2.00000
      9      -1.6018      2.00000
     10      -0.6644      2.00000
     11      -0.6401      2.00000
     12       0.3709      2.00000
     13       0.7879      2.00000
     14       0.9703      2.00000
     15       1.1860      2.00000
     16       1.2782      2.00000
     17       1.8848      2.00000
     18       2.1813      2.00000
     19       2.7431      2.00000
     20       2.7553      2.00000
     21       3.9603      0.00000
     22       5.2025      0.00000
     23       5.4691      0.00000
     24       5.6976      0.00000
     25       6.4335      0.00000
     26       6.5919      0.00000
     27       6.7289      0.00000
     28       7.4268      0.00000
     29       7.9547      0.00000
     30       7.9902      0.00000
     31       8.5066      0.00000
     32       8.8593      0.00000

 k-point     8 :       0.3333    0.1667    0.0000
  band No.  band energies     occupation 
      1     -10.1931      2.00000
      2      -9.9388      2.00000
      3      -9.4225      2.00000
      4      -9.2141      2.00000
      5      -5.5719      2.00000
      6      -4.6710      2.00000
      7      -4.5595      2.00000
      8      -3.5655      2.00000
      9      -1.2188      2.00000
     10      -1.0180      2.00000
     11      -0.7510      2.00000
     12       0.1586      2.00000
     13       0.6046      2.00000
     14       0.6754      2.00000
     15       0.8817      2.00000
     16       1.3132      2.00000
     17       1.5622      2.00000
     18       1.8738      2.00000
     19       2.3178      2.00000
     20       2.9299      2.00000
     21       4.0483      0.00000
     22       4.8336      0.00000
     23       4.9961      0.00000
     24       5.5406      0.00000
     25       5.8045      0.00000
     26       6.2315      0.00000
     27       6.7933      0.00000
     28       6.8292      0.00000
     29       7.3900      0.00000
     30       7.9355      0.00000
     31       8.2846      0.00000
     32       9.3025      0.00000

 k-point     9 :       0.3333   -0.1667    0.0000
  band No.  band energies     occupation 
      1     -10.1977      2.00000
      2      -9.9358      2.00000
      3      -9.4364      2.00000
      4      -9.1948      2.00000
      5      -5.6510      2.00000
      6      -4.5053      2.00000
      7      -4.4686      2.00000
      8      -3.7783      2.00000
      9      -1.2333      2.00000
     10      -0.9761      2.00000
     11      -0.8789      2.00000
     12       0.2159      2.00000
     13       0.4780      2.00000
     14       0.8588      2.00000
     15       1.0394      2.00000
     16       1.3205      2.00000
     17       1.7031      2.00000
     18       2.0469      2.00000
     19       2.2427      2.00000
     20       2.3895      2.00000
     21       4.1868      0.00000
     22       4.8643      0.00000
     23       5.0667      0.00000
     24       5.3538      0.00000
     25       5.5316      0.00000
     26       6.3360      0.00000
     27       6.4097      0.00000
     28       7.5863      0.00000
     29       7.6706      0.00000
     30       8.2676      0.00000
     31       8.2802      0.00000
     32       8.9383      0.00000

 k-point    10 :       0.5000    0.1667    0.0000
  band No.  band energies     occupation 
      1      -9.6183      2.00000
      2      -9.6163      2.00000
      3      -9.4372      2.00000
      4      -9.4309      2.00000
      5      -5.5297      2.00000
      6      -5.4340      2.00000
      7      -4.4182      2.00000
      8      -4.3079      2.00000
      9      -0.7477      2.00000
     10      -0.6581      2.00000
     11      -0.2115      2.00000
     12      -0.1827      2.00000
     13       0.1321      2.00000
     14       0.4202      2.00000
     15       0.7784      2.00000
     16       0.8311      2.00000
     17       1.5684      2.00000
     18       1.7784      2.00000
     19       2.3935      2.00000
     20       2.6246      2.00000
     21       4.3193      0.00000
     22       4.3302      0.00000
     23       5.1299      0.00000
     24       5.1614      0.00000
     25       5.9580      0.00000
     26       6.3716      0.00000
     27       6.3866      0.00000
     28       6.4309      0.00000
     29       6.9388      0.00000
     30       7.1677      0.00000
     31       8.1763      0.00000
     32       9.0812      0.00000

 k-point    11 :       0.0000    0.3333    0.0000
  band No.  band energies     occupation 
      1     -10.5575      2.00000
      2     -10.2811      2.00000
      3      -9.8215      2.00000
      4      -9.5781      2.00000
      5      -5.3360      2.00000
      6      -4.5093      2.00000
      7      -4.5017      2.00000
      8      -3.5534      2.00000
      9      -1.2969      2.00000
     10       0.3252      2.00000
     11       0.6851      2.00000
     12       0.8338      2.00000
     13       1.0794      2.00000
     14       1.2488      2.00000
     15       1.3975      2.00000
     16       1.6562      2.00000
     17       1.7605      2.00000
     18       2.7686      2.00000
     19       2.8930      2.00000
     20       3.2578      1.99489
     21       4.2046      0.00000
     22       4.6023      0.00000
     23       4.9123      0.00000
     24       5.4540      0.00000
     25       5.8919      0.00000
     26       5.9423      0.00000
     27       6.1934      0.00000
     28       6.8807      0.00000
     29       6.9319      0.00000
     30       7.2203      0.00000
     31       8.4535      0.00000
     32       9.0123      0.00000

 k-point    12 :       0.1667    0.3333    0.0000
  band No.  band energies     occupation 
      1     -10.3854      2.00000
      2     -10.1304      2.00000
      3      -9.6947      2.00000
      4      -9.4930      2.00000
      5      -5.2814      2.00000
      6      -4.5552      2.00000
      7      -4.4778      2.00000
      8      -3.5304      2.00000
      9      -1.0911      2.00000
     10      -0.8136      2.00000
     11      -0.4281      2.00000
     12       0.0859      2.00000
     13       0.4982      2.00000
     14       0.5758      2.00000
     15       1.3811      2.00000
     16       1.6472      2.00000
     17       2.2090      2.00000
     18       2.2677      2.00000
     19       2.7635      2.00000
     20       3.1226      2.00000
     21       4.4214      0.00000
     22       5.2148      0.00000
     23       5.2870      0.00000
     24       5.8255      0.00000
     25       6.0192      0.00000
     26       6.4226      0.00000
     27       6.7645      0.00000
     28       7.1583      0.00000
     29       7.2831      0.00000
     30       8.0483      0.00000
     31       8.1780      0.00000
     32       9.1556      0.00000

 k-point    13 :       0.1667   -0.3333    0.0000
  band No.  band energies     occupation 
      1     -10.3897      2.00000
      2     -10.1273      2.00000
      3      -9.7026      2.00000
      4      -9.4820      2.00000
      5      -5.3588      2.00000
      6      -4.3962      2.00000
      7      -4.3925      2.00000
      8      -3.7255      2.00000
      9      -1.1804      2.00000
     10      -0.6770      2.00000
     11      -0.5894      2.00000
     12       0.2464      2.00000
     13       0.4136      2.00000
     14       0.7322      2.00000
     15       1.3126      2.00000
     16       1.8250      2.00000
     17       2.0053      2.00000
     18       2.4586      2.00000
     19       2.6833      2.00000
     20       2.9427      2.00000
     21       4.5079      0.00000
     22       5.0882      0.00000
     23       5.5876      0.00000
     24       5.7471      0.00000
     25       5.7970      0.00000
     26       6.2396      0.00000
     27       6.6181      0.00000
     28       7.4153      0.00000
     29       7.5662      0.00000
     30       8.0019      0.00000
     31       8.5412      0.00000
     32       8.6900      0.00000

 k-point    14 :       0.3333    0.3333    0.0000
  band No.  band energies     occupation 
      1      -9.9447      2.00000
      2      -9.7485      2.00000
      3      -9.4472      2.00000
      4      -9.3497      2.00000
      5      -5.3023      2.00000
      6      -4.8636      2.00000
      7      -4.4537      2.00000
      8      -3.7577      2.00000
      9      -1.5832      2.00000
     10      -1.1935      2.00000
     11      -0.8900      2.00000
     12      -0.5603      2.00000
     13      -0.3800      2.00000
     14       0.3390      2.00000
     15       0.4499      2.00000
     16       0.8605      2.00000
     17       1.0789      2.00000
     18       2.0096      2.00000
     19       2.2125      2.00000
     20       2.8401      2.00000
     21       4.4994      0.00000
     22       5.5523      0.00000
     23       5.7029      0.00000
     24       6.6223      0.00000
     25       6.8497      0.00000
     26       7.1461      0.00000
     27       7.1950      0.00000
     28       7.7166      0.00000
     29       8.0167      0.00000
     30       8.4641      0.00000
     31       8.9083      0.00000
     32       9.2577      0.00000

 k-point    15 :       0.3333   -0.3333    0.0000
  band No.  band energies     occupation 
      1      -9.9524      2.00000
      2      -9.7445      2.00000
      3      -9.4714      2.00000
      4      -9.3181      2.00000
      5      -5.4617      2.00000
      6      -4.5728      2.00000
      7      -4.2699      2.00000
      8      -4.1033      2.00000
      9      -1.4959      2.00000
     10      -1.3571      2.00000
     11      -1.0122      2.00000
     12      -0.5283      2.00000
     13      -0.2437      2.00000
     14       0.2039      2.00000
     15       0.5954      2.00000
     16       1.2126      2.00000
     17       1.2139      2.00000
     18       1.7004      2.00000
     19       2.3480      2.00000
     20       2.4532      2.00000
     21       4.3522      0.00000
     22       5.7922      0.00000
     23       6.1085      0.00000
     24       6.1965      0.00000
     25       6.5135      0.00000
     26       7.1734      0.00000
     27       7.5020      0.00000
     28       7.9142      0.00000
     29       8.3688      0.00000
     30       8.4854      0.00000
     31       8.9976      0.00000
     32       9.3229      0.00000

 k-point    16 :       0.5000    0.3333    0.0000
  band No.  band energies     occupation 
      1      -9.5103      2.00000
      2      -9.5031      2.00000
      3      -9.3958      2.00000
      4      -9.3810      2.00000
      5      -5.3857      2.00000
      6      -5.1758      2.00000
      7      -4.3881      2.00000
      8      -4.1434      2.00000
      9      -1.1413      2.00000
     10      -1.1132      2.00000
     11      -0.9378      2.00000
     12      -0.8617      2.00000
     13      -0.5937      2.00000
     14      -0.4418      2.00000
     15       0.1648      2.00000
     16       0.3599      2.00000
     17       1.1208      2.00000
     18       1.2099      2.00000
     19       2.0445      2.00000
     20       2.6369      2.00000
     21       4.8388      0.00000
     22       5.2027      0.00000
     23       6.5994      0.00000
     24       6.7593      0.00000
     25       6.9393      0.00000
     26       7.1365      0.00000
     27       7.4633      0.00000
     28       8.2742      0.00000
     29       8.2809      0.00000
     30       8.5009      0.00000
     31       8.5887      0.00000
     32       9.1405      0.00000

 k-point    17 :       0.0000    0.5000    0.0000
  band No.  band energies     occupation 
      1     -10.1289      2.00000
      2     -10.1289      2.00000
      3      -9.9250      2.00000
      4      -9.9250      2.00000
      5      -5.1675      2.00000
      6      -5.1675      2.00000
      7      -4.2575      2.00000
      8      -4.2575      2.00000
      9      -0.5510      2.00000
     10      -0.5510      2.00000
     11       1.1268      2.00000
     12       1.1268      2.00000
     13       1.3085      2.00000
     14       1.3085      2.00000
     15       1.7627      2.00000
     16       1.7627      2.00000
     17       2.4278      2.00000
     18       2.4278      2.00000
     19       2.9286      2.00000
     20       2.9286      2.00000
     21       4.6492      0.00000
     22       4.6492      0.00000
     23       5.0682      0.00000
     24       5.0682      0.00000
     25       5.5308      0.00000
     26       5.5308      0.00000
     27       6.1903      0.00000
     28       6.1903      0.00000
     29       6.4987      0.00000
     30       6.4987      0.00000
     31       8.8382      0.00000
     32       8.8382      0.00000

 k-point    18 :       0.1667    0.5000    0.0000
  band No.  band energies     occupation 
      1      -9.9851      2.00000
      2      -9.9834      2.00000
      3      -9.8023      2.00000
      4      -9.8019      2.00000
      5      -5.1385      2.00000
      6      -5.0347      2.00000
      7      -4.2530      2.00000
      8      -4.1424      2.00000
      9      -0.6121      2.00000
     10      -0.4521      2.00000
     11      -0.2659      2.00000
     12      -0.2073      2.00000
     13       0.0165      2.00000
     14       0.2011      2.00000
     15       1.4566      2.00000
     16       1.7455      2.00000
     17       2.0792      2.00000
     18       2.5892      2.00000
     19       2.9342      2.00000
     20       2.9865      2.00000
     21       4.7542      0.00000
     22       4.7936      0.00000
     23       5.5905      0.00000
     24       5.8699      0.00000
     25       6.0983      0.00000
     26       6.4644      0.00000
     27       6.8650      0.00000
     28       6.9635      0.00000
     29       7.4522      0.00000
     30       7.5259      0.00000
     31       8.2638      0.00000
     32       8.8667      0.00000

[...]
     32       8.3618      0.00000

 k-point    32 :       0.1667    0.3333    0.5000
  band No.  band energies     occupation 
      1     -10.2799      2.00000
      2     -10.2799      2.00000
      3      -9.5711      2.00000
      4      -9.5711      2.00000
      5      -5.0397      2.00000
      6      -5.0397      2.00000
      7      -3.9418      2.00000
      8      -3.9418      2.00000
      9      -0.8062      2.00000
     10      -0.8062      2.00000
     11      -0.0794      2.00000
     12      -0.0794      2.00000
     13       0.4272      2.00000
     14       0.4272      2.00000
     15       1.4582      2.00000
     16       1.4582      2.00000
     17       2.3348      2.00000
     18       2.3348      2.00000
     19       2.5375      2.00000
     20       2.5375      2.00000
     21       5.0522      0.00000
     22       5.0522      0.00000
     23       5.7227      0.00000
     24       5.7227      0.00000
     25       6.2428      0.00000
     26       6.2428      0.00000
     27       6.8800      0.00000
     28       6.8800      0.00000
     29       7.8340      0.00000
     30       7.8340      0.00000
     31       8.4350      0.00000
     32       8.4350      0.00000

 k-point    33 :       0.1667   -0.3333    0.5000
  band No.  band energies     occupation 
      1     -10.2822      2.00000
      2     -10.2822      2.00000
      3      -9.5682      2.00000
      4      -9.5682      2.00000
      5      -5.0396      2.00000
      6      -5.0396      2.00000
      7      -3.9375      2.00000
      8      -3.9375      2.00000
      9      -0.7952      2.00000
     10      -0.7952      2.00000
     11      -0.1548      2.00000
     12      -0.1548      2.00000
     13       0.4520      2.00000
     14       0.4520      2.00000
     15       1.5083      2.00000
     16       1.5083      2.00000
     17       2.2190      2.00000
     18       2.2190      2.00000
     19       2.6448      2.00000
     20       2.6448      2.00000
     21       5.2069      0.00000
     22       5.2069      0.00000
     23       5.7438      0.00000
     24       5.7438      0.00000
     25       6.1268      0.00000
     26       6.1268      0.00000
     27       6.8200      0.00000
     28       6.8200      0.00000
     29       7.5507      0.00000
     30       7.5507      0.00000
     31       8.5489      0.00000
     32       8.5489      0.00000

 k-point    34 :       0.3333    0.3333    0.5000
  band No.  band energies     occupation 
      1      -9.8616      2.00000
      2      -9.8616      2.00000
      3      -9.3833      2.00000
      4      -9.3833      2.00000
      5      -5.1351      2.00000
      6      -5.1351      2.00000
      7      -4.0683      2.00000
      8      -4.0683      2.00000
      9      -1.5072      2.00000
     10      -1.5072      2.00000
     11      -0.7199      2.00000
     12      -0.7199      2.00000
     13       0.1076      2.00000
     14       0.1076      2.00000
     15       0.8637      2.00000
     16       0.8637      2.00000
     17       1.5068      2.00000
     18       1.5068      2.00000
     19       2.1161      2.00000
     20       2.1161      2.00000
     21       5.3277      0.00000
     22       5.3277      0.00000
     23       5.8407      0.00000
     24       5.8407      0.00000
     25       7.3611      0.00000
     26       7.3611      0.00000
     27       7.4698      0.00000
     28       7.4698      0.00000
     29       8.5782      0.00000
     30       8.5782      0.00000
     31       8.8989      0.00000
     32       8.8989      0.00000

 k-point    35 :       0.3333   -0.3333    0.5000
  band No.  band energies     occupation 
      1      -9.8668      2.00000
      2      -9.8668      2.00000
      3      -9.3771      2.00000
      4      -9.3771      2.00000
      5      -5.1387      2.00000
      6      -5.1387      2.00000
      7      -4.0617      2.00000
      8      -4.0617      2.00000
      9      -1.4593      2.00000
     10      -1.4593      2.00000
     11      -0.8207      2.00000
     12      -0.8207      2.00000
     13       0.1139      2.00000
     14       0.1139      2.00000
     15       0.9370      2.00000
     16       0.9370      2.00000
     17       1.3406      2.00000
     18       1.3406      2.00000
     19       2.3230      2.00000
     20       2.3230      2.00000
     21       5.2227      0.00000
     22       5.2227      0.00000
     23       5.8868      0.00000
     24       5.8868      0.00000
     25       7.0779      0.00000
     26       7.0779      0.00000
     27       7.7702      0.00000
     28       7.7702      0.00000
     29       8.1853      0.00000
     30       8.1853      0.00000
     31       9.3843      0.00000
     32       9.3843      0.00000

 k-point    36 :       0.5000    0.3333    0.5000
  band No.  band energies     occupation 
      1      -9.4998      2.00000
      2      -9.4998      2.00000
      3      -9.3962      2.00000
      4      -9.3962      2.00000
      5      -5.2807      2.00000
      6      -5.2807      2.00000
      7      -4.2635      2.00000
      8      -4.2635      2.00000
      9      -1.2530      2.00000
     10      -1.2530      2.00000
     11      -0.9160      2.00000
     12      -0.9160      2.00000
     13      -0.3708      2.00000
     14      -0.3708      2.00000
     15       0.2343      2.00000
     16       0.2343      2.00000
     17       1.5479      2.00000
     18       1.5479      2.00000
     19       1.8994      2.00000
     20       1.8994      2.00000
     21       5.0254      0.00000
     22       5.0254      0.00000
     23       6.7855      0.00000
     24       6.7855      0.00000
     25       6.8969      0.00000
     26       6.8969      0.00000
     27       8.0158      0.00000
     28       8.0158      0.00000
     29       8.3518      0.00000
     30       8.3518      0.00000
     31       9.0204      0.00000
     32       9.0204      0.00000

 k-point    37 :       0.0000    0.5000    0.5000
  band No.  band energies     occupation 
      1     -10.1203      2.00000
      2     -10.1203      2.00000
      3      -9.9356      2.00000
      4      -9.9356      2.00000
      5      -5.0175      2.00000
      6      -5.0175      2.00000
      7      -4.4875      2.00000
      8      -4.4875      2.00000
      9       0.1138      2.00000
     10       0.1138      2.00000
     11       0.7356      2.00000
     12       0.7356      2.00000
     13       1.1463      2.00000
     14       1.1463      2.00000
     15       1.3316      2.00000
     16       1.3316      2.00000
     17       2.6294      2.00000
     18       2.6294      2.00000
     19       2.9812      2.00000
     20       2.9812      2.00000
     21       4.6896      0.00000
     22       4.6896      0.00000
     23       4.7429      0.00000
     24       4.7429      0.00000
     25       6.1811      0.00000
     26       6.1811      0.00000
     27       6.2260      0.00000
     28       6.2260      0.00000
     29       6.8658      0.00000
     30       6.8658      0.00000
     31       8.0863      0.00000
     32       8.0863      0.00000

 k-point    38 :       0.1667    0.5000    0.5000
  band No.  band energies     occupation 
      1      -9.9756      2.00000
      2      -9.9756      2.00000
      3      -9.8124      2.00000
      4      -9.8124      2.00000
      5      -4.9805      2.00000
      6      -4.9805      2.00000
      7      -4.3613      2.00000
      8      -4.3613      2.00000
      9      -0.4982      2.00000
     10      -0.4982      2.00000
     11      -0.1734      2.00000
     12      -0.1734      2.00000
     13       0.5808      2.00000
     14       0.5808      2.00000
     15       1.0373      2.00000
     16       1.0373      2.00000
     17       2.3474      2.00000
     18       2.3474      2.00000
     19       2.6031      2.00000
     20       2.6031      2.00000
     21       5.4455      0.00000
     22       5.4455      0.00000
     23       5.7190      0.00000
     24       5.7190      0.00000
     25       6.0787      0.00000
     26       6.0787      0.00000
     27       7.2285      0.00000
     28       7.2285      0.00000
     29       7.4069      0.00000
     30       7.4069      0.00000
     31       8.3464      0.00000
     32       8.3464      0.00000

 k-point    39 :       0.3333    0.5000    0.5000
  band No.  band energies     occupation 
      1      -9.6377      2.00000
      2      -9.6377      2.00000
      3      -9.5371      2.00000
      4      -9.5371      2.00000
      5      -5.0476      2.00000
      6      -5.0476      2.00000
      7      -4.1634      2.00000
      8      -4.1634      2.00000
      9      -1.4058      2.00000
     10      -1.4058      2.00000
     11      -1.2919      2.00000
     12      -1.2919      2.00000
     13       0.1325      2.00000
     14       0.1325      2.00000
     15       0.5817      2.00000
     16       0.5817      2.00000
     17       1.5015      2.00000
     18       1.5015      2.00000
     19       1.9021      2.00000
     20       1.9021      2.00000
     21       5.2601      0.00000
     22       5.2601      0.00000
     23       7.1221      0.00000
     24       7.1221      0.00000
     25       7.2545      0.00000
     26       7.2545      0.00000
     27       8.1939      0.00000
     28       8.1939      0.00000
     29       8.6318      0.00000
     30       8.6318      0.00000
     31       9.1136      0.00000
     32       9.1136      0.00000

 k-point    40 :       0.5000    0.5000    0.5000
  band No.  band energies     occupation 
      1      -9.4286      2.00000
      2      -9.4286      2.00000
      3      -9.3854      2.00000
      4      -9.3854      2.00000
      5      -5.2001      2.00000
      6      -5.2001      2.00000
      7      -4.1583      2.00000
      8      -4.1583      2.00000
      9      -1.4870      2.00000
     10      -1.4870      2.00000
     11      -1.2117      2.00000
     12      -1.2117      2.00000
     13      -0.6889      2.00000
     14      -0.6889      2.00000
     15      -0.1844      2.00000
     16      -0.1844      2.00000
     17       1.6173      2.00000
     18       1.6173      2.00000
     19       1.9234      2.00000
     20       1.9234      2.00000
     21       4.7938      0.00000
     22       4.7938      0.00000
     23       7.5128      0.00000
     24       7.5128      0.00000
     25       7.9085      0.00000
     26       7.9085      0.00000
     27       8.3158      0.00000
     28       8.3158      0.00000
     29       8.7192      0.00000
     30       8.7192      0.00000
     31       9.6787      0.00000
     32       9.6787      0.00000


--------------------------------------------------------------------------------------------------------


 soft charge-density along one line, spin component            1
         0         1         2         3         4         5         6         7         8         9
 total charge-density along one line
 
 pseudopotential strength for first ion, spin component:            1
 14.524  18.120   0.040   0.041  -0.002   0.072   0.074  -0.003
 18.120  22.622   0.050   0.052  -0.002   0.090   0.094  -0.004
  0.040   0.050   3.226  -0.002   0.000   5.492  -0.003   0.000
  0.041   0.052  -0.002   3.223   0.000  -0.003   5.487   0.000
 -0.002  -0.002   0.000   0.000   3.228   0.000   0.000   5.495
  0.072   0.090   5.492  -0.003   0.000   9.407  -0.006   0.001
  0.074   0.094  -0.003   5.487   0.000  -0.006   9.399   0.001
 -0.003  -0.004   0.000   0.000   5.495   0.001   0.001   9.411
  0.000   0.001  -0.000   0.000   0.007  -0.001   0.000   0.013
 -0.004  -0.005   0.010   0.012   0.000   0.019   0.022   0.000
 -0.004  -0.005  -0.003   0.011   0.000  -0.007   0.020   0.000
  0.000   0.001   0.000  -0.001   0.010   0.000  -0.001   0.019
  0.001   0.002  -0.012  -0.000  -0.000  -0.021  -0.000  -0.001
 total augmentation occupancy for first ion, spin component:            1
  2.784  -0.740   0.370   0.297   0.006  -0.075  -0.048  -0.004   0.003  -0.016   0.005  -0.001   0.009
 -0.740   0.685  -0.447  -0.419   0.005   0.073   0.061   0.000  -0.004   0.007   0.000  -0.003  -0.005
  0.370  -0.447   1.234   0.024  -0.000  -0.202   0.009  -0.001  -0.000   0.042  -0.096  -0.002  -0.001
  0.297  -0.419   0.024   1.394  -0.014   0.009  -0.230   0.003  -0.002  -0.001   0.075   0.007  -0.001
  0.006   0.005  -0.000  -0.014   1.255  -0.001   0.003  -0.217   0.147  -0.003   0.002   0.036  -0.000
 -0.075   0.073  -0.202   0.009  -0.001   0.037  -0.004   0.000  -0.000  -0.007   0.016   0.001   0.000
 -0.048   0.061   0.009  -0.230   0.003  -0.004   0.044  -0.001   0.001  -0.000  -0.013  -0.001   0.000
 -0.004   0.000  -0.001   0.003  -0.217   0.000  -0.001   0.042  -0.026   0.001  -0.000  -0.006   0.000
  0.003  -0.004  -0.000  -0.002   0.147  -0.000   0.001  -0.026   0.031   0.000   0.000   0.003   0.000
 -0.016   0.007   0.042  -0.001  -0.003  -0.007  -0.000   0.001   0.000   0.014  -0.009   0.001   0.002
  0.005   0.000  -0.096   0.075   0.002   0.016  -0.013  -0.000   0.000  -0.009   0.033  -0.000  -0.003
 -0.001  -0.003  -0.002   0.007   0.036   0.001  -0.001  -0.006   0.003   0.001  -0.000   0.011   0.000
  0.009  -0.005  -0.001  -0.001  -0.000   0.000   0.000   0.000   0.000   0.002  -0.003   0.000   0.009


------------------------ aborting loop because EDIFF is reached ----------------------------------------


    CHARGE:  cpu time      0.0129: real time      0.0129
    FORLOC:  cpu time      0.0004: real time      0.0004
    FORNL :  cpu time      0.0632: real time      0.0635
    STRESS:  cpu time      0.4569: real time      0.4648
    FORCOR:  cpu time      0.0089: real time      0.0090
    FORHAR:  cpu time      0.0022: real time      0.0022
    MIXING:  cpu time      0.0007: real time      0.0007
    OFIELD:  cpu time      0.0000: real time      0.0000

  FORCE on cell =-STRESS in cart. coord.  units (eV):
  Direction    XX          YY          ZZ          XY          YZ          ZX
  --------------------------------------------------------------------------------------
  Alpha Z    87.52689    87.52689    87.52689
  Ewald    -433.99311  -498.34678  -483.54849     6.57991    -0.00000    -0.00000
  Hartree    65.27086    39.87114    33.69433     2.37681     0.00000     0.00000
  E(xc)    -141.33443  -141.40873  -141.54029     0.03631    -0.00000     0.00000
  Local    -196.56055  -113.43131  -122.98789    -9.09265    -0.00000    -0.00000
  n-local   240.59460   240.07056   242.19958     0.04943     0.00000    -0.00000
  augment   -11.43805   -11.87281   -12.06769    -0.03763    -0.00000    -0.00000
  Kinetic   391.26669   398.01466   399.58266     1.00396    -0.00000     0.00000
  Fock        0.00000     0.00000     0.00000     0.00000     0.00000     0.00000
  -------------------------------------------------------------------------------------
  Total       1.33291     0.42362     2.85911     0.91613    -0.00000     0.00000
  in kB      11.03129     3.50591    23.66221     7.58196    -0.00000     0.00000
  external pressure =       12.73 kB  Pullay stress =        0.00 kB


 VOLUME and BASIS-vectors are now :
 -----------------------------------------------------------------------------
  energy-cutoff  :      520.00
  volume of cell :      193.59
      direct lattice vectors                 reciprocal lattice vectors
     3.858100176  0.000000000  0.000000000     0.259194929  0.000000000  0.000000000
     0.000000000  4.526575088  0.000000000     0.000000000  0.220917577  0.000000000
     0.000000000  0.000000000 11.085176468     0.000000000  0.000000000  0.090210562

  length of vectors
     3.858100176  4.526575088 11.085176468     0.259194929  0.220917577  0.090210562


 FORCES acting on ions
    electron-ion (+dipol)            ewald-force                    non-local-force                 convergence-correction
 -----------------------------------------------------------------------------------------------
   0.678E-01 0.176E+02 0.207E+02   0.155E+00 -.199E+02 -.233E+02   -.186E+00 0.227E+01 0.295E+01   0.881E-04 0.756E-04 -.661E-03
   0.678E-01 0.176E+02 -.207E+02   0.155E+00 -.199E+02 0.233E+02   -.186E+00 0.227E+01 -.295E+01   0.881E-04 0.757E-04 0.662E-03
   -.678E-01 -.176E+02 -.207E+02   -.155E+00 0.199E+02 0.233E+02   0.186E+00 -.227E+01 -.295E+01   -.883E-04 -.759E-04 0.662E-03
   -.678E-01 -.176E+02 0.207E+02   -.155E+00 0.199E+02 -.233E+02   0.186E+00 -.227E+01 0.295E+01   -.879E-04 -.752E-04 -.662E-03
   -.953E+00 -.190E+02 -.264E+02   0.784E+00 0.207E+02 0.278E+02   0.324E+00 -.153E+01 -.159E+01   -.211E-03 -.288E-03 0.958E-03
   -.953E+00 -.190E+02 0.264E+02   0.784E+00 0.207E+02 -.278E+02   0.324E+00 -.153E+01 0.159E+01   -.211E-03 -.288E-03 -.958E-03
   0.953E+00 0.190E+02 0.264E+02   -.784E+00 -.207E+02 -.278E+02   -.324E+00 0.153E+01 0.159E+01   0.210E-03 0.286E-03 -.959E-03
   0.953E+00 0.190E+02 -.264E+02   -.784E+00 -.207E+02 0.278E+02   -.324E+00 0.153E+01 -.159E+01   0.211E-03 0.288E-03 0.957E-03
 -----------------------------------------------------------------------------------------------
   -.893E-05 0.182E-05 0.546E-05   -.344E-14 0.355E-14 -.142E-13   -.337E-03 -.135E-03 -.168E-05   0.624E-06 -.107E-05 -.178E-05
 
 
 POSITION                                       TOTAL-FORCE (eV/Angst)
 -----------------------------------------------------------------------------------
      2.30647      2.94387      1.36328         0.036195     -0.028485      0.265314
      0.37742      0.68058      4.17930         0.036194     -0.028485     -0.265314
      2.89358      4.01000      9.72189        -0.036113      0.028509     -0.265352
      0.96453      1.74671      6.90587        -0.036113      0.028509      0.265352
      2.30647      2.39701      3.90621         0.154895      0.110943     -0.122296
      0.37742      0.13372      1.63637         0.154895      0.110943      0.122297
      2.89358      0.03028      7.17896        -0.154976     -0.110967      0.122237
      0.96453      2.29357      9.44880        -0.154977     -0.110967     -0.122238
 -----------------------------------------------------------------------------------
    total drift:                               -0.000345     -0.000134      0.000002


--------------------------------------------------------------------------------------------------------



  FREE ENERGIE OF THE ION-ELECTRON SYSTEM (eV)
  ---------------------------------------------------
  free  energy   TOTEN  =       -33.54360289 eV

  energy  without entropy=      -33.54357287  energy(sigma->0) =      -33.54358788
 


--------------------------------------------------------------------------------------------------------


    POTLOK:  cpu time      0.2272: real time      0.2279


--------------------------------------------------------------------------------------------------------


     LOOP+:  cpu time      8.8290: real time      8.8795
    4ORBIT:  cpu time      0.0000: real time      0.0000

 total amount of memory used by VASP MPI-rank0    41770. kBytes
=======================================================================

   base      :      30000. kBytes
   nonl-proj :       9056. kBytes
   fftplans  :        519. kBytes
   grid      :        766. kBytes
   one-center:         16. kBytes
   wavefun   :       1413. kBytes
 
  
  
 General timing and accounting informations for this job:
 ========================================================
  
                  Total CPU time used (sec):       10.615
                            User time (sec):       10.295
                          System time (sec):        0.320
                         Elapsed time (sec):       10.918
  
                   Maximum memory used (kb):      179116.
                   Average memory used (kb):          N/A
  
                          Minor page faults:        24317
                          Major page faults:           32
                 Voluntary context switches:         1687
