 vasp.6.4.2 20Jul23 (build Oct 12 2023 10:31:02) complex                         
 executed on              LinuxNV date 2025.05.27  13:35:35
 running   32 mpi-ranks, with    1 threads/rank, on    2 nodes
 distrk:  each k-point on   16 cores,    2 groups
 distr:  one band on NCORE=   1 cores,   16 groups


--------------------------------------------------------------------------------------------------------


 INCAR:
   ENCUT = 520.000000
   SIGMA = 0.050000
   EDIFF = 1.00e-06
   ALGO = N
   GGA = PE
   PREC = Accurate
   SYSTEM = 02_SCF
   ICHARG = 0
   ISMEAR = 0
   ISPIN = 2
   ISTART = 1
   KPAR = 2
   LORBIT = 11
   NBANDS = 220
   NELM = 100
   NELMIN = 5
   LASPH = .TRUE.
   LCHARG = .TRUE.
   LWAVE = .TRUE.
   LREAL = .FALSE.

 POTCAR:    PAW_PBE Ge 05Jan2001                  
 POTCAR:    PAW_PBE Se 06Sep2000                  
 -----------------------------------------------------------------------------
|                                                                             |
|           W    W    AA    RRRRR   N    N  II  N    N   GGGG   !!!           |
|           W    W   A  A   R    R  NN   N  II  NN   N  G    G  !!!           |
|           W    W  A    A  R    R  N N  N  II  N N  N  G       !!!           |
|           W WW W  AAAAAA  RRRRR   N  N N  II  N  N N  G  GGG   !            |
|           WW  WW  A    A  R   R   N   NN  II  N   NN  G    G                |
|           W    W  A    A  R    R  N    N  II  N    N   GGGG   !!!           |
|                                                                             |
|     You use a magnetic or noncollinear calculation, but did not specify     |
|     the initial magnetic moment with the MAGMOM tag. Note that a            |
|     default of 1 will be used for all atoms. This ferromagnetic setup       |
|     may break the symmetry of the crystal, in particular it may rule        |
|     out finding an antiferromagnetic solution. Thence, we recommend         |
|     setting the initial magnetic moment manually or verifying carefully     |
|     that this magnetic setup is desired.                                    |
|                                                                             |
 -----------------------------------------------------------------------------

 POTCAR:    PAW_PBE Ge 05Jan2001                  
   VRHFIN =Ge: s2p2                                                                                 
   LEXCH  = PE                                                                                      
   EATOM  =   104.9960 eV,    7.7170 Ry                                                             
                                                                                                    
   TITEL  = PAW_PBE Ge 05Jan2001                                                                    
   LULTRA =        F    use ultrasoft PP ?                                                          
   IUNSCR =        1    unscreen: 0-lin 1-nonlin 2-no                                               
   RPACOR =    2.170    partial core radius                                                         
   POMASS =   72.610; ZVAL   =    4.000    mass and valenz                                          
   RCORE  =    2.300    outmost cutoff radius                                                       
   RWIGS  =    2.300; RWIGS  =    1.217    wigner-seitz radius (au A)                               
   ENMAX  =  173.807; ENMIN  =  130.355 eV                                                          
   ICORE  =        3    local potential                                                             
   LCOR   =        T    correct aug charges                                                         
   LPAW   =        T    paw PP                                                                      
   EAUG   =  385.843                                                                                
   DEXC   =    0.000                                                                                
   RMAX   =    2.342    core radius for proj-oper                                                   
   RAUG   =    1.300    factor for augmentation sphere                                              
   RDEP   =    2.318    radius for radial grids                                                     
   RDEPT  =    2.103    core radius for aug-charge                                                  
                                                                                                    
   Atomic configuration                                                                             
   10 entries                                                                                       
     n  l   j            E        occ.                                                              
     1  0  0.50    -10959.8463   2.0000                                                             
     2  0  0.50     -1371.6056   2.0000                                                             
     2  1  1.50     -1198.4791   6.0000                                                             
     3  0  0.50      -168.4733   2.0000                                                             
     3  1  1.50      -115.6019   6.0000                                                             
     3  2  2.50       -29.3106  10.0000                                                             
     4  0  0.50       -11.7309   2.0000                                                             
     4  1  0.50        -3.8952   2.0000                                                             
     4  2  1.50        -4.0817   0.0000                                                             
     4  3  2.50        -4.0817   0.0000                                                             
   Description                                                                                      
     l       E           TYP  RCUT    TYP  RCUT                                                     
     0    -11.7309493     23  2.300                                                                 
     0     -7.4578696     23  2.300                                                                 
     1     -3.8952261     23  2.300                                                                 
     1      6.1178114     23  2.300                                                                 
     2     -4.0817478     23  2.300                                                                 
     3     -1.3605826      7  2.300                                                                 
  local pseudopotential read in
  partial core-charges read in
  partial kinetic energy density read in
  atomic valenz-charges read in
  non local Contribution for L=            0  read in
    real space projection operators read in
  non local Contribution for L=            0  read in
    real space projection operators read in
  non local Contribution for L=            1  read in
    real space projection operators read in
  non local Contribution for L=            1  read in
    real space projection operators read in
  non local Contribution for L=            2  read in
    real space projection operators read in
    PAW grid and wavefunctions read in
 
   number of l-projection  operators is LMAX  =            5
   number of lm-projection operators is LMMAX =           13
 
 POTCAR:    PAW_PBE Se 06Sep2000                  
   VRHFIN =Se: s2p4                                                                                 
   LEXCH  = PE                                                                                      
   EATOM  =   257.1286 eV,   18.8984 Ry                                                             
                                                                                                    
   TITEL  = PAW_PBE Se 06Sep2000                                                                    
   LULTRA =        F    use ultrasoft PP ?                                                          
   IUNSCR =        1    unscreen: 0-lin 1-nonlin 2-no                                               
   RPACOR =    1.900    partial core radius                                                         
   POMASS =   78.960; ZVAL   =    6.000    mass and valenz                                          
   RCORE  =    2.100    outmost cutoff radius                                                       
   RWIGS  =    2.200; RWIGS  =    1.164    wigner-seitz radius (au A)                               
   ENMAX  =  211.555; ENMIN  =  158.666 eV                                                          
   ICORE  =        3    local potential                                                             
   LCOR   =        T    correct aug charges                                                         
   LPAW   =        T    paw PP                                                                      
   EAUG   =  446.842                                                                                
   DEXC   =    0.000                                                                                
   RMAX   =    2.147    core radius for proj-oper                                                   
   RAUG   =    1.300    factor for augmentation sphere                                              
   RDEP   =    2.177    radius for radial grids                                                     
   RDEPT  =    1.928    core radius for aug-charge                                                  
                                                                                                    
   Atomic configuration                                                                             
   10 entries                                                                                       
     n  l   j            E        occ.                                                              
     1  0  0.50    -12503.4787   2.0000                                                             
     2  0  0.50     -1606.9547   2.0000                                                             
     2  1  1.50     -1413.3140   6.0000                                                             
     3  0  0.50      -213.4885   2.0000                                                             
     3  1  1.50      -152.9538   6.0000                                                             
     3  2  2.50       -53.1221  10.0000                                                             
     4  0  0.50       -17.2865   2.0000                                                             
     4  1  0.50        -6.5110   4.0000                                                             
     4  2  2.50        -6.8029   0.0000                                                             
     4  3  2.50        -6.8029   0.0000                                                             
   Description                                                                                      
     l       E           TYP  RCUT    TYP  RCUT                                                     
     0    -17.2865377     23  2.100                                                                 
     0    -15.3094411     23  2.100                                                                 
     1     -6.5110275     23  2.100                                                                 
     1     -0.0695192     23  2.100                                                                 
     2     -6.8029130     23  2.100                                                                 
     3     -1.3605826      7  2.100                                                                 
  local pseudopotential read in
  partial core-charges read in
  partial kinetic energy density read in
  atomic valenz-charges read in
  non local Contribution for L=            0  read in
    real space projection operators read in
  non local Contribution for L=            0  read in
    real space projection operators read in
  non local Contribution for L=            1  read in
    real space projection operators read in
  non local Contribution for L=            1  read in
    real space projection operators read in
  non local Contribution for L=            2  read in
    real space projection operators read in
    PAW grid and wavefunctions read in
 
   number of l-projection  operators is LMAX  =            5
   number of lm-projection operators is LMMAX =           13
 
  PAW_PBE Ge 05Jan2001                  :
 energy of atom  1       EATOM= -104.9960
 kinetic energy error for atom=    0.0002 (will be added to EATOM!!)
  PAW_PBE Se 06Sep2000                  :
 energy of atom  2       EATOM= -257.1286
 kinetic energy error for atom=    0.0007 (will be added to EATOM!!)
 
 
 POSCAR: Ge Se
  positions in cartesian coordinates
  No initial velocities read in
 exchange correlation table for  LEXCH =        8
   RHO(1)=    0.500       N(1)  =     2000
   RHO(2)=  100.500       N(2)  =     4000
 


--------------------------------------------------------------------------------------------------------


 ion  position               nearest neighbor table
   1  0.250  0.116  0.105-   6 2.60   6 2.60   8 2.60
   2  0.750  0.884  0.819-   5 2.60   5 2.60   7 2.60
   3  0.750  0.616  0.319-   8 2.60   8 2.60   6 2.60
   4  0.250  0.384  0.605-   7 2.60   7 2.60   5 2.60
   5  0.250  0.505  0.799-   2 2.60   2 2.60   4 2.60
   6  0.750  0.495  0.125-   1 2.60   1 2.60   3 2.60
   7  0.750  0.005  0.625-   4 2.60   4 2.60   2 2.60
   8  0.250  0.995  0.299-   3 2.60   3 2.60   1 2.60
 
  LATTYP: Found a simple orthorhombic cell.
 ALAT       =     3.8581001759
 B/A-ratio  =     1.1732653073
 C/A-ratio  =     3.3916113816
  
  Lattice vectors:
  
 A1 = (   3.8581001759,   0.0000000000,   0.0000000000)
 A2 = (   0.0000000000,   4.5265750885,   0.0000000000)
 A3 = (   0.0000000000,   0.0000000000,  13.0851764679)


Analysis of symmetry for initial positions (statically):
=====================================================================
 Subroutine PRICEL returns:
 Original cell was already a primitive cell.
 

 Routine SETGRP: Setting up the symmetry group for a 
 simple orthorhombic supercell.


 Subroutine GETGRP returns: Found  8 space group operations
 (whereof  1 operations were pure point group operations)
 out of a pool of  8 trial point group operations.


The static configuration has the point symmetry C_1 .
 The point group associated with its full space group is D_2h.


Analysis of symmetry for dynamics (positions and initial velocities):
=====================================================================
 Subroutine PRICEL returns:
 Original cell was already a primitive cell.
 

 Routine SETGRP: Setting up the symmetry group for a 
 simple orthorhombic supercell.


 Subroutine GETGRP returns: Found  8 space group operations
 (whereof  1 operations were pure point group operations)
 out of a pool of  8 trial point group operations.


The dynamic configuration has the point symmetry C_1 .
 The point group associated with its full space group is D_2h.


Analysis of structural, dynamic, and magnetic symmetry:
=====================================================================
 Subroutine PRICEL returns:
 Original cell was already a primitive cell.
 

 Routine SETGRP: Setting up the symmetry group for a 
 simple orthorhombic supercell.


 Subroutine GETGRP returns: Found  8 space group operations
 (whereof  1 operations were pure point group operations)
 out of a pool of  8 trial point group operations.


The overall configuration has the point symmetry C_1 .
 The point group associated with its full space group is D_2h.


 Subroutine INISYM returns: Found  8 space group operations
 (whereof  1 operations are pure point group operations),
 and found     1 'primitive' translations


----------------------------------------------------------------------------------------

                                     Primitive cell                                     

  volume of cell :     228.5193

  direct lattice vectors                    reciprocal lattice vectors
     3.858100176  0.000000000  0.000000000     0.259194929  0.000000000  0.000000000
     0.000000000  4.526575088  0.000000000     0.000000000  0.220917577  0.000000000
     0.000000000  0.000000000 13.085176468     0.000000000  0.000000000  0.076422355

  length of vectors
     3.858100176  4.526575088 13.085176468     0.259194929  0.220917577  0.076422355

  position of ions in fractional coordinates (direct lattice)
     0.250000000  0.115641899  0.104657797
     0.750000000  0.884358108  0.818919841
     0.750000000  0.615641892  0.318919841
     0.250000000  0.384358108  0.604657804
     0.250000000  0.504948974  0.798732437
     0.750000000  0.495050967  0.124845183
     0.750000000  0.004949023  0.624845208
     0.250000000  0.995051026  0.298732462

  ion indices of the primitive-cell ions
   primitive index   ion index
                 1           1
                 2           2
                 3           3
                 4           4
                 5           5
                 6           6
                 7           7
                 8           8

----------------------------------------------------------------------------------------

 
 
 KPOINTS: KPOINTS created by Atomic Simulation Env

Automatic generation of k-mesh.
 Grid dimensions read from file:
 generate k-points for:    6    6    2

 Generating k-lattice:

  Cartesian coordinates                     Fractional coordinates (reciprocal lattice)
     0.043199155  0.000000000  0.000000000     0.166666667  0.000000000  0.000000000
     0.000000000  0.036819596  0.000000000     0.000000000  0.166666667  0.000000000
     0.000000000  0.000000000  0.038211177     0.000000000  0.000000000  0.500000000

  Length of vectors
     0.043199155  0.036819596  0.038211177

  Shift w.r.t. Gamma in fractional coordinates (k-lattice)
     0.000000000  0.000000000  0.000000000

 
 Subroutine IBZKPT returns following result:
 ===========================================
 
 Found     32 irreducible k-points:
 
 Following reciprocal coordinates:
            Coordinates               Weight
  0.000000  0.000000  0.000000      1.000000
  0.166667  0.000000  0.000000      2.000000
  0.333333  0.000000  0.000000      2.000000
  0.500000  0.000000  0.000000      1.000000
  0.000000  0.166667  0.000000      2.000000
  0.166667  0.166667  0.000000      4.000000
  0.333333  0.166667  0.000000      4.000000
  0.500000  0.166667  0.000000      2.000000
  0.000000  0.333333  0.000000      2.000000
  0.166667  0.333333  0.000000      4.000000
  0.333333  0.333333  0.000000      4.000000
  0.500000  0.333333  0.000000      2.000000
  0.000000  0.500000  0.000000      1.000000
  0.166667  0.500000  0.000000      2.000000
  0.333333  0.500000  0.000000      2.000000
  0.500000  0.500000  0.000000      1.000000
  0.000000  0.000000  0.500000      1.000000
  0.166667  0.000000  0.500000      2.000000
  0.333333  0.000000  0.500000      2.000000
  0.500000  0.000000  0.500000      1.000000
  0.000000  0.166667  0.500000      2.000000
  0.166667  0.166667  0.500000      4.000000
  0.333333  0.166667  0.500000      4.000000
  0.500000  0.166667  0.500000      2.000000
  0.000000  0.333333  0.500000      2.000000
  0.166667  0.333333  0.500000      4.000000
  0.333333  0.333333  0.500000      4.000000
  0.500000  0.333333  0.500000      2.000000
  0.000000  0.500000  0.500000      1.000000
  0.166667  0.500000  0.500000      2.000000
  0.333333  0.500000  0.500000      2.000000
  0.500000  0.500000  0.500000      1.000000
 
 Following cartesian coordinates:
            Coordinates               Weight
  0.000000  0.000000  0.000000      1.000000
  0.043199  0.000000  0.000000      2.000000
  0.086398  0.000000  0.000000      2.000000
  0.129597  0.000000  0.000000      1.000000
  0.000000  0.036820  0.000000      2.000000
  0.043199  0.036820  0.000000      4.000000
  0.086398  0.036820  0.000000      4.000000
  0.129597  0.036820  0.000000      2.000000
  0.000000  0.073639  0.000000      2.000000
  0.043199  0.073639  0.000000      4.000000
  0.086398  0.073639  0.000000      4.000000
  0.129597  0.073639  0.000000      2.000000
  0.000000  0.110459  0.000000      1.000000
  0.043199  0.110459  0.000000      2.000000
  0.086398  0.110459  0.000000      2.000000
  0.129597  0.110459  0.000000      1.000000
  0.000000  0.000000  0.038211      1.000000
  0.043199  0.000000  0.038211      2.000000
  0.086398  0.000000  0.038211      2.000000
  0.129597  0.000000  0.038211      1.000000
  0.000000  0.036820  0.038211      2.000000
  0.043199  0.036820  0.038211      4.000000
  0.086398  0.036820  0.038211      4.000000
  0.129597  0.036820  0.038211      2.000000
  0.000000  0.073639  0.038211      2.000000
  0.043199  0.073639  0.038211      4.000000
  0.086398  0.073639  0.038211      4.000000
  0.129597  0.073639  0.038211      2.000000
  0.000000  0.110459  0.038211      1.000000
  0.043199  0.110459  0.038211      2.000000
  0.086398  0.110459  0.038211      2.000000
  0.129597  0.110459  0.038211      1.000000
 
 -----------------------------------------------------------------------------
|                                                                             |
|           W    W    AA    RRRRR   N    N  II  N    N   GGGG   !!!           |
|           W    W   A  A   R    R  NN   N  II  NN   N  G    G  !!!           |
|           W    W  A    A  R    R  N N  N  II  N N  N  G       !!!           |
|           W WW W  AAAAAA  RRRRR   N  N N  II  N  N N  G  GGG   !            |
|           WW  WW  A    A  R   R   N   NN  II  N   NN  G    G                |
|           W    W  A    A  R    R  N    N  II  N    N   GGGG   !!!           |
|                                                                             |
|     The number of bands has been changed from the values supplied in        |
|     the INCAR file. This is a result of running the parallel version.       |
|     The orbitals not found in the WAVECAR file will be initialized with     |
|     random numbers, which is usually adequate. For correlated               |
|     calculations, however, you should redo the groundstate calculation.     |
|     I found NBANDS = 220. Now, NBANDS = 224.                                |
|                                                                             |
 -----------------------------------------------------------------------------



--------------------------------------------------------------------------------------------------------




 Dimension of arrays:
   k-points           NKPTS =     32   k-points in BZ     NKDIM =     32   number of bands    NBANDS=    224
   number of dos      NEDOS =    301   number of ions     NIONS =      8
   non local maximal  LDIM  =      5   non local SUM 2l+1 LMDIM =     13
   total plane-waves  NPLWV = 105840
   max r-space proj   IRMAX =      1   max aug-charges    IRDMAX=  25369
   dimension x,y,z NGX =    30 NGY =   36 NGZ =   98
   dimension x,y,z NGXF=    60 NGYF=   72 NGZF=  196
   support grid    NGXF=    60 NGYF=   72 NGZF=  196
   ions per type =               4   4
   NGX,Y,Z   is equivalent  to a cutoff of  12.93, 13.22, 12.45 a.u.
   NGXF,Y,Z  is equivalent  to a cutoff of  25.85, 26.44, 24.90 a.u.

 SYSTEM =  02_SCF                                  
 POSCAR =  Ge Se                                   

 Startparameter for this run:
   NWRITE =      2    write-flag & timer
   PREC   = accura    normal or accurate (medium, high low for compatibility)
   ISTART =      0    job   : 0-new  1-cont  2-samecut
   ICHARG =      2    charge: 1-file 2-atom 10-const
   ISPIN  =      2    spin polarized calculation?
   LNONCOLLINEAR =      F non collinear calculations
   LSORBIT =      F    spin-orbit coupling
   INIWAV =      1    electr: 0-lowe 1-rand  2-diag
   LASPH  =      T    aspherical Exc in radial PAW
 Electronic Relaxation 1
   ENCUT  =  520.0 eV  38.22 Ry    6.18 a.u.   7.17  8.42 24.33*2*pi/ulx,y,z
   ENINI  =  520.0     initial cutoff
   ENAUG  =  446.8 eV  augmentation charge cutoff
   NELM   =    100;   NELMIN=  5; NELMDL=  0     # of ELM steps 
   EDIFF  = 0.1E-05   stopping-criterion for ELM
   LREAL  =      F    real-space projection
   NLSPLINE    = F    spline interpolate recip. space projectors
   LCOMPAT=      F    compatible to vasp.4.4
   GGA_COMPAT  = T    GGA compatible to vasp.4.4-vasp.4.6
   LMAXPAW     = -100 max onsite density
   LMAXMIX     =    2 max onsite mixed and CHGCAR
   VOSKOWN=      0    Vosko Wilk Nusair interpolation
   ROPT   =    0.00000   0.00000
 Ionic relaxation
   EDIFFG = 0.1E-04   stopping-criterion for IOM
   NSW    =      0    number of steps for IOM
   NBLOCK =      1;   KBLOCK =      1    inner block; outer block 
   IBRION =     -1    ionic relax: 0-MD 1-quasi-New 2-CG
   NFREE  =      0    steps in history (QN), initial steepest desc. (CG)
   ISIF   =      2    stress and relaxation
   IWAVPR =     10    prediction:  0-non 1-charg 2-wave 3-comb
   ISYM   =      2    0-nonsym 1-usesym 2-fastsym
   LCORR  =      T    Harris-Foulkes like correction to forces

   POTIM  = 0.5000    time-step for ionic-motion
   TEIN   =    0.0    initial temperature
   TEBEG  =    0.0;   TEEND  =   0.0 temperature during run
   SMASS  =  -3.00    Nose mass-parameter (am)
   estimated Nose-frequenzy (Omega)   =  0.10E-29 period in steps = 0.13E+47 mass=  -0.340E-27a.u.
   SCALEE = 1.0000    scale energy and forces
   NPACO  =    256;   APACO  = 10.0  distance and # of slots for P.C.
   PSTRESS=    0.0 pullay stress

  Mass of Ions in am
   POMASS =  72.61 78.96
  Ionic Valenz
   ZVAL   =   4.00  6.00
  Atomic Wigner-Seitz radii
   RWIGS  =  -1.00 -1.00
  virtual crystal weights 
   VCA    =   1.00  1.00
   NELECT =      40.0000    total number of electrons
   NUPDOWN=      -1.0000    fix difference up-down

 DOS related values:
   EMIN   =  10.00;   EMAX   =-10.00  energy-range for DOS
   EFERMI =   0.00;   METHOD = LEGACY      
   ISMEAR =     0;   SIGMA  =   0.05  broadening in eV -4-tet -1-fermi 0-gaus

 Electronic relaxation 2 (details)
   IALGO  =     38    algorithm
   LDIAG  =      T    sub-space diagonalisation (order eigenvalues)
   LSUBROT=      F    optimize rotation matrix (better conditioning)
   TURBO    =      0    0=normal 1=particle mesh
   IRESTART =      0    0=no restart 2=restart with 2 vectors
   NREBOOT  =      0    no. of reboots
   NMIN     =      0    reboot dimension
   EREF     =   0.00    reference energy to select bands
   IMIX   =      4    mixing-type and parameters
     AMIX     =   0.40;   BMIX     =  1.00
     AMIX_MAG =   1.60;   BMIX_MAG =  1.00
     AMIN     =   0.10
     WC   =   100.;   INIMIX=   1;  MIXPRE=   1;  MAXMIX= -45

 Intra band minimization:
   WEIMIN = 0.0000     energy-eigenvalue tresh-hold
   EBREAK =  0.11E-08  absolut break condition
   DEPER  =   0.30     relativ break condition  

   TIME   =   0.40     timestep for ELM

  volume/ion in A,a.u.               =      28.56       192.77
  Fermi-wavevector in a.u.,A,eV,Ry     =   0.915772  1.730558 11.410360  0.838638
  Thomas-Fermi vector in A             =   2.040551
 
 Write flags
   LWAVE        =      T    write WAVECAR
   LDOWNSAMPLE  =      F    k-point downsampling of WAVECAR
   LCHARG       =      T    write CHGCAR
   LVTOT        =      F    write LOCPOT, total local potential
   LVHAR        =      F    write LOCPOT, Hartree potential only
   LELF         =      F    write electronic localiz. function (ELF)
   LORBIT       =     11    0 simple, 1 ext, 2 COOP (PROOUT), +10 PAW based schemes


 Dipole corrections
   LMONO  =      F    monopole corrections only (constant potential shift)
   LDIPOL =      F    correct potential (dipole corrections)
   IDIPOL =      0    1-x, 2-y, 3-z, 4-all directions 
   EPSILON=  1.0000000 bulk dielectric constant

 Exchange correlation treatment:
   GGA     =    PE    GGA type
   LEXCH   =     8    internal setting for exchange type
   LIBXC   =     F    Libxc                    
   VOSKOWN =     0    Vosko Wilk Nusair interpolation
   LHFCALC =     F    Hartree Fock is set to
   LHFONE  =     F    Hartree Fock one center treatment
   AEXX    =    0.0000 exact exchange contribution

 Linear response parameters
   LEPSILON=     F    determine dielectric tensor
   LRPA    =     F    only Hartree local field effects (RPA)
   LNABLA  =     F    use nabla operator in PAW spheres
   LVEL    =     F    velocity operator in full k-point grid
   CSHIFT  =0.1000    complex shift for real part using Kramers Kronig
   OMEGAMAX=  -1.0    maximum frequency
   DEG_THRESHOLD= 0.2000000E-02 threshold for treating states as degnerate
   RTIME   =   -0.100 relaxation time in fs
  (WPLASMAI=    0.000 imaginary part of plasma frequency in eV, 0.658/RTIME)
   DFIELD  = 0.0000000 0.0000000 0.0000000 field for delta impulse in time
 
  Optional k-point grid parameters
   LKPOINTS_OPT  =     F    use optional k-point grid
   KPOINTS_OPT_MODE=     1    mode for optional k-point grid
 
 Orbital magnetization related:
   ORBITALMAG=     F  switch on orbital magnetization
   LCHIMAG   =     F  perturbation theory with respect to B field
   DQ        =  0.001000  dq finite difference perturbation B field
   LLRAUG    =     F  two centre corrections for induced B field
   LBONE     =     F  B-component reconstruction in AE one-centre
   LVGVCALC  =     T  calculate vGv susceptibility
   LVGVAPPL  =     F  apply vGv susceptibility instead of pGv for G=0

 Random number generation:
   RANDOM_GENERATOR = DEFAULT
   PCG_SEED         = not used


--------------------------------------------------------------------------------------------------------


 Static calculation
 charge density and potential will be updated during run
 spin polarized calculation
 Variant of blocked Davidson
 Davidson routine will perform the subspace rotation
 perform sub-space diagonalisation
    after iterative eigenvector-optimisation
 modified Broyden-mixing scheme, WC =      100.0
 initial mixing is a Kerker type mixing with AMIX =  0.4000 and BMIX =      1.0000
 Hartree-type preconditioning will be used
 using additional bands           204
 reciprocal scheme for non local part
 use partial core corrections
 calculate Harris-corrections to forces 
   (improved forces if not selfconsistent)
 use gradient corrections 
 use of overlap-Matrix (Vanderbilt PP)
 Gauss-broadening in eV      SIGMA  =   0.05


--------------------------------------------------------------------------------------------------------


  energy-cutoff  :      520.00
  volume of cell :      228.52
      direct lattice vectors                 reciprocal lattice vectors
     3.858100176  0.000000000  0.000000000     0.259194929  0.000000000  0.000000000
     0.000000000  4.526575088  0.000000000     0.000000000  0.220917577  0.000000000
     0.000000000  0.000000000 13.085176468     0.000000000  0.000000000  0.076422355

  length of vectors
     3.858100176  4.526575088 13.085176468     0.259194929  0.220917577  0.076422355


 
 k-points in units of 2pi/SCALE and weight: KPOINTS created by Atomic Simulation Env
   0.00000000  0.00000000  0.00000000       0.014
   0.04319915  0.00000000  0.00000000       0.028
   0.08639831  0.00000000  0.00000000       0.028
   0.12959746  0.00000000  0.00000000       0.014
   0.00000000  0.03681960  0.00000000       0.028
   0.04319915  0.03681960  0.00000000       0.056
   0.08639831  0.03681960  0.00000000       0.056
   0.12959746  0.03681960  0.00000000       0.028
   0.00000000  0.07363919  0.00000000       0.028
   0.04319915  0.07363919  0.00000000       0.056
   0.08639831  0.07363919  0.00000000       0.056
   0.12959746  0.07363919  0.00000000       0.028
   0.00000000  0.11045879  0.00000000       0.014
   0.04319915  0.11045879  0.00000000       0.028
   0.08639831  0.11045879  0.00000000       0.028
   0.12959746  0.11045879  0.00000000       0.014
   0.00000000  0.00000000  0.03821118       0.014
   0.04319915  0.00000000  0.03821118       0.028
   0.08639831  0.00000000  0.03821118       0.028
   0.12959746  0.00000000  0.03821118       0.014
   0.00000000  0.03681960  0.03821118       0.028
   0.04319915  0.03681960  0.03821118       0.056
   0.08639831  0.03681960  0.03821118       0.056
   0.12959746  0.03681960  0.03821118       0.028
   0.00000000  0.07363919  0.03821118       0.028
   0.04319915  0.07363919  0.03821118       0.056
   0.08639831  0.07363919  0.03821118       0.056
   0.12959746  0.07363919  0.03821118       0.028
   0.00000000  0.11045879  0.03821118       0.014
   0.04319915  0.11045879  0.03821118       0.028
   0.08639831  0.11045879  0.03821118       0.028
   0.12959746  0.11045879  0.03821118       0.014
 
 k-points in reciprocal lattice and weights: KPOINTS created by Atomic Simulation Env
   0.00000000  0.00000000  0.00000000       0.014
   0.16666667  0.00000000  0.00000000       0.028
   0.33333333  0.00000000  0.00000000       0.028
   0.50000000  0.00000000  0.00000000       0.014
   0.00000000  0.16666667  0.00000000       0.028
   0.16666667  0.16666667  0.00000000       0.056
   0.33333333  0.16666667  0.00000000       0.056
   0.50000000  0.16666667  0.00000000       0.028
   0.00000000  0.33333333  0.00000000       0.028
   0.16666667  0.33333333  0.00000000       0.056
   0.33333333  0.33333333  0.00000000       0.056
   0.50000000  0.33333333  0.00000000       0.028
   0.00000000  0.50000000  0.00000000       0.014
   0.16666667  0.50000000  0.00000000       0.028
   0.33333333  0.50000000  0.00000000       0.028
   0.50000000  0.50000000  0.00000000       0.014
   0.00000000  0.00000000  0.50000000       0.014
   0.16666667  0.00000000  0.50000000       0.028
   0.33333333  0.00000000  0.50000000       0.028
   0.50000000  0.00000000  0.50000000       0.014
   0.00000000  0.16666667  0.50000000       0.028
   0.16666667  0.16666667  0.50000000       0.056
   0.33333333  0.16666667  0.50000000       0.056
   0.50000000  0.16666667  0.50000000       0.028
   0.00000000  0.33333333  0.50000000       0.028
   0.16666667  0.33333333  0.50000000       0.056
   0.33333333  0.33333333  0.50000000       0.056
   0.50000000  0.33333333  0.50000000       0.028
   0.00000000  0.50000000  0.50000000       0.014
   0.16666667  0.50000000  0.50000000       0.028
   0.33333333  0.50000000  0.50000000       0.028
   0.50000000  0.50000000  0.50000000       0.014
 
 position of ions in fractional coordinates (direct lattice) 
   0.25000000  0.11564190  0.10465780
   0.75000000  0.88435811  0.81891984
   0.75000000  0.61564189  0.31891984
   0.25000000  0.38435811  0.60465780
   0.25000000  0.50494897  0.79873244
   0.75000000  0.49505097  0.12484518
   0.75000000  0.00494902  0.62484521
   0.25000000  0.99505103  0.29873246
 
 position of ions in cartesian coordinates  (Angst):
   0.96452504  0.52346174  1.36946575
   2.89357513  4.00311338 10.71571064
   2.89357513  2.78674925  4.17312240
   0.96452504  1.73982584  7.91205406
   0.96452504  2.28568945 10.45155489
   2.89357513  2.24088537  1.63362125
   2.89357513  0.02240212  8.17620982
   0.96452504  4.50417319  3.90896698
 


--------------------------------------------------------------------------------------------------------


 k-point   1 :   0.0000 0.0000 0.0000  plane waves:    6159
 k-point   2 :   0.1667 0.0000 0.0000  plane waves:    6165
 k-point   3 :   0.3333 0.0000 0.0000  plane waves:    6182
 k-point   4 :   0.5000 0.0000 0.0000  plane waves:    6186
 k-point   5 :   0.0000 0.1667 0.0000  plane waves:    6163
 k-point   6 :   0.1667 0.1667 0.0000  plane waves:    6145
 k-point   7 :   0.3333 0.1667 0.0000  plane waves:    6156
 k-point   8 :   0.5000 0.1667 0.0000  plane waves:    6180
 k-point   9 :   0.0000 0.3333 0.0000  plane waves:    6165
 k-point  10 :   0.1667 0.3333 0.0000  plane waves:    6145
 k-point  11 :   0.3333 0.3333 0.0000  plane waves:    6145
 k-point  12 :   0.5000 0.3333 0.0000  plane waves:    6142
 k-point  13 :   0.0000 0.5000 0.0000  plane waves:    6168
 k-point  14 :   0.1667 0.5000 0.0000  plane waves:    6152
 k-point  15 :   0.3333 0.5000 0.0000  plane waves:    6146
 k-point  16 :   0.5000 0.5000 0.0000  plane waves:    6116
 k-point  17 :   0.0000 0.0000 0.5000  plane waves:    6124
 k-point  18 :   0.1667 0.0000 0.5000  plane waves:    6162
 k-point  19 :   0.3333 0.0000 0.5000  plane waves:    6154
 k-point  20 :   0.5000 0.0000 0.5000  plane waves:    6212
 k-point  21 :   0.0000 0.1667 0.5000  plane waves:    6138
 k-point  22 :   0.1667 0.1667 0.5000  plane waves:    6146
 k-point  23 :   0.3333 0.1667 0.5000  plane waves:    6170
 k-point  24 :   0.5000 0.1667 0.5000  plane waves:    6196
 k-point  25 :   0.0000 0.3333 0.5000  plane waves:    6152
 k-point  26 :   0.1667 0.3333 0.5000  plane waves:    6130
 k-point  27 :   0.3333 0.3333 0.5000  plane waves:    6150
 k-point  28 :   0.5000 0.3333 0.5000  plane waves:    6160
 k-point  29 :   0.0000 0.5000 0.5000  plane waves:    6144
 k-point  30 :   0.1667 0.5000 0.5000  plane waves:    6124
 k-point  31 :   0.3333 0.5000 0.5000  plane waves:    6136
 k-point  32 :   0.5000 0.5000 0.5000  plane waves:    6136

 maximum and minimum number of plane-waves per node :      6212     6116

 maximum number of plane-waves:      6212
 maximum index in each direction: 
   IXMAX=    7   IYMAX=    8   IZMAX=   24
   IXMIN=   -7   IYMIN=   -8   IZMIN=  -24


 serial   3D FFT for wavefunctions
 parallel 3D FFT for charge:
    minimum data exchange during FFTs selected (reduces bandwidth)


 total amount of memory used by VASP MPI-rank0   178554. kBytes
=======================================================================

   base      :      30000. kBytes
   nonl-proj :      42223. kBytes
   fftplans  :       2316. kBytes
   grid      :      13054. kBytes
   one-center:        129. kBytes
   wavefun   :      90832. kBytes
 
     INWAV:  cpu time      0.0000: real time      0.0001
 Broyden mixing: mesh for mixing (old mesh)
   NGX = 15   NGY = 17   NGZ = 49
  (NGX  = 60   NGY  = 72   NGZ  =196)
  gives a total of  12495 points

 initial charge density was supplied:
 charge density of overlapping atoms calculated
 number of electron      40.0000000 magnetization       8.0000000
 keeping initial charge density in first step


--------------------------------------------------------------------------------------------------------


 Maximum index for augmentation-charges          1787 (set IRDMAX)


--------------------------------------------------------------------------------------------------------


 First call to EWALD:  gamma=   0.290
 Maximum number of real-space cells 4x 4x 2
 Maximum number of reciprocal cells 2x 2x 5

    FEWALD:  cpu time      0.0014: real time      0.0014


--------------------------------------- Ionic step        1  -------------------------------------------




--------------------------------------- Iteration      1(   1)  ---------------------------------------


    POTLOK:  cpu time      0.1100: real time      0.1107
    SETDIJ:  cpu time      1.1704: real time      1.1730
     EDDAV:  cpu time     14.9332: real time     15.0522
       DOS:  cpu time      0.0024: real time      0.0024
    --------------------------------------------
      LOOP:  cpu time     16.2160: real time     16.3383

 eigenvalue-minimisations  : 28672
 total energy-change (2. order) : 0.1704438E+03  (-0.9889962E+03)
 number of electron      40.0000000 magnetization       8.0000000
 augmentation part       40.0000000 magnetization       8.0000000

 Free energy of the ion-electron system (eV)
  ---------------------------------------------------
  alpha Z        PSCENC =        74.14887169
  Ewald energy   TEWEN  =     -1250.39766715
  -Hartree energ DENC   =      -232.77210760
  -exchange      EXHF   =         0.00000000
  -V(xc)+E(xc)   XCENC  =       -33.70668961
  PAW double counting   =      1193.15788873    -1079.99237720
  entropy T*S    EENTRO =        -0.00158439
  eigenvalues    EBANDS =        51.51280944
  atomic energy  EATOM  =      1448.49460871
  Solvation  Ediel_sol  =         0.00000000
  ---------------------------------------------------
  free energy    TOTEN  =       170.44375262 eV

  energy without entropy =      170.44533701  energy(sigma->0) =      170.44454481


--------------------------------------------------------------------------------------------------------




--------------------------------------- Iteration      1(   2)  ---------------------------------------


     EDDAV:  cpu time     17.1951: real time     17.3447
       DOS:  cpu time      0.0024: real time      0.0024
    --------------------------------------------
      LOOP:  cpu time     17.1975: real time     17.3471

 eigenvalue-minimisations  : 34592
 total energy-change (2. order) :-0.1942520E+03  (-0.1726897E+03)
 number of electron      40.0000000 magnetization       8.0000000
 augmentation part       40.0000000 magnetization       8.0000000

 Free energy of the ion-electron system (eV)
  ---------------------------------------------------
  alpha Z        PSCENC =        74.14887169
  Ewald energy   TEWEN  =     -1250.39766715
  -Hartree energ DENC   =      -232.77210760
  -exchange      EXHF   =         0.00000000
  -V(xc)+E(xc)   XCENC  =       -33.70668961
  PAW double counting   =      1193.15788873    -1079.99237720
  entropy T*S    EENTRO =        -0.00014117
  eigenvalues    EBANDS =      -142.74062202
  atomic energy  EATOM  =      1448.49460871
  Solvation  Ediel_sol  =         0.00000000
  ---------------------------------------------------
  free energy    TOTEN  =       -23.80823561 eV

  energy without entropy =      -23.80809444  energy(sigma->0) =      -23.80816503


--------------------------------------------------------------------------------------------------------




--------------------------------------- Iteration      1(   3)  ---------------------------------------


     EDDAV:  cpu time     17.0528: real time     17.1962
       DOS:  cpu time      0.0023: real time      0.0023
    --------------------------------------------
      LOOP:  cpu time     17.0551: real time     17.1985

 eigenvalue-minimisations  : 34160
 total energy-change (2. order) :-0.8661195E+01  (-0.8539346E+01)
 number of electron      40.0000000 magnetization       8.0000000
 augmentation part       40.0000000 magnetization       8.0000000

 Free energy of the ion-electron system (eV)
  ---------------------------------------------------
  alpha Z        PSCENC =        74.14887169
  Ewald energy   TEWEN  =     -1250.39766715
  -Hartree energ DENC   =      -232.77210760
  -exchange      EXHF   =         0.00000000
  -V(xc)+E(xc)   XCENC  =       -33.70668961
  PAW double counting   =      1193.15788873    -1079.99237720
  entropy T*S    EENTRO =        -0.00000572
  eigenvalues    EBANDS =      -151.40195294
  atomic energy  EATOM  =      1448.49460871
  Solvation  Ediel_sol  =         0.00000000
  ---------------------------------------------------
  free energy    TOTEN  =       -32.46943108 eV

  energy without entropy =      -32.46942536  energy(sigma->0) =      -32.46942822


--------------------------------------------------------------------------------------------------------




--------------------------------------- Iteration      1(   4)  ---------------------------------------


     EDDAV:  cpu time     16.9085: real time     17.0377
       DOS:  cpu time      0.0022: real time      0.0022
    --------------------------------------------
      LOOP:  cpu time     16.9108: real time     17.0400

 eigenvalue-minimisations  : 33696
 total energy-change (2. order) :-0.2301326E-01  (-0.2300876E-01)
 number of electron      40.0000000 magnetization       8.0000000
 augmentation part       40.0000000 magnetization       8.0000000

 Free energy of the ion-electron system (eV)
  ---------------------------------------------------
  alpha Z        PSCENC =        74.14887169
  Ewald energy   TEWEN  =     -1250.39766715
  -Hartree energ DENC   =      -232.77210760
  -exchange      EXHF   =         0.00000000
  -V(xc)+E(xc)   XCENC  =       -33.70668961
  PAW double counting   =      1193.15788873    -1079.99237720
  entropy T*S    EENTRO =        -0.00000568
  eigenvalues    EBANDS =      -151.42496623
  atomic energy  EATOM  =      1448.49460871
  Solvation  Ediel_sol  =         0.00000000
  ---------------------------------------------------
  free energy    TOTEN  =       -32.49244434 eV

  energy without entropy =      -32.49243866  energy(sigma->0) =      -32.49244150


--------------------------------------------------------------------------------------------------------




--------------------------------------- Iteration      1(   5)  ---------------------------------------


     EDDAV:  cpu time     16.6099: real time     16.7382
       DOS:  cpu time      0.0024: real time      0.0024
    CHARGE:  cpu time      0.1621: real time      0.1630
    MIXING:  cpu time      0.0047: real time      0.0047
    --------------------------------------------
      LOOP:  cpu time     16.7790: real time     16.9083

 eigenvalue-minimisations  : 33072
 total energy-change (2. order) :-0.2072431E-04  (-0.2072412E-04)
 number of electron      40.0000008 magnetization       5.6017088
 augmentation part       -7.4442279 magnetization       5.6190170

 Broyden mixing:
  rms(total) = 0.96509E+00    rms(broyden)= 0.96509E+00
  rms(prec ) = 0.10168E+01
  weight for this iteration     100.00

 Free energy of the ion-electron system (eV)
  ---------------------------------------------------
  alpha Z        PSCENC =        74.14887169
  Ewald energy   TEWEN  =     -1250.39766715
  -Hartree energ DENC   =      -232.77210760
  -exchange      EXHF   =         0.00000000
  -V(xc)+E(xc)   XCENC  =       -33.70668961
  PAW double counting   =      1193.15788873    -1079.99237720
  entropy T*S    EENTRO =        -0.00000568
  eigenvalues    EBANDS =      -151.42498696
  atomic energy  EATOM  =      1448.49460871
  Solvation  Ediel_sol  =         0.00000000
  ---------------------------------------------------
  free energy    TOTEN  =       -32.49246506 eV

  energy without entropy =      -32.49245938  energy(sigma->0) =      -32.49246222


--------------------------------------------------------------------------------------------------------




--------------------------------------- Iteration      1(   6)  ---------------------------------------


    POTLOK:  cpu time      0.1042: real time      0.1047
    SETDIJ:  cpu time      1.1359: real time      1.1380
     EDDAV:  cpu time     16.1482: real time     16.2794
       DOS:  cpu time      0.0023: real time      0.0023
    CHARGE:  cpu time      0.1593: real time      0.1599
    MIXING:  cpu time      0.0046: real time      0.0046
    --------------------------------------------
      LOOP:  cpu time     17.5546: real time     17.6889

 eigenvalue-minimisations  : 31888
 total energy-change (2. order) : 0.1972985E+01  (-0.1791320E+00)
 number of electron      40.0000008 magnetization       3.3941831
 augmentation part       -7.4026539 magnetization       3.5605173

 Broyden mixing:
  rms(total) = 0.56365E+00    rms(broyden)= 0.56365E+00
  rms(prec ) = 0.58376E+00
  weight for this iteration     100.00

 eigenvalues of (default mixing * dielectric matrix)
  average eigenvalue GAMMA=   1.0328
  1.0328

 Free energy of the ion-electron system (eV)
  ---------------------------------------------------
  alpha Z        PSCENC =        74.14887169
  Ewald energy   TEWEN  =     -1250.39766715
  -Hartree energ DENC   =      -240.74447365
  -exchange      EXHF   =         0.00000000
  -V(xc)+E(xc)   XCENC  =       -32.24376476
  PAW double counting   =      1448.46480137    -1335.70798905
  entropy T*S    EENTRO =        -0.00027987
  eigenvalues    EBANDS =      -142.53358726
  atomic energy  EATOM  =      1448.49460871
  Solvation  Ediel_sol  =         0.00000000
  ---------------------------------------------------
  free energy    TOTEN  =       -30.51947998 eV

  energy without entropy =      -30.51920011  energy(sigma->0) =      -30.51934004


--------------------------------------------------------------------------------------------------------




--------------------------------------- Iteration      1(   7)  ---------------------------------------


    POTLOK:  cpu time      0.1030: real time      0.1036
    SETDIJ:  cpu time      1.1440: real time      1.1462
     EDDAV:  cpu time     16.2985: real time     16.4349
       DOS:  cpu time      0.0023: real time      0.0023
    CHARGE:  cpu time      0.1592: real time      0.1606
    MIXING:  cpu time      0.0046: real time      0.0047
    --------------------------------------------
      LOOP:  cpu time     17.7117: real time     17.8523

 eigenvalue-minimisations  : 32288
 total energy-change (2. order) :-0.9787269E+00  (-0.2210313E-01)
 number of electron      40.0000008 magnetization       1.2421846
 augmentation part       -7.3691380 magnetization       1.3656933

 Broyden mixing:
  rms(total) = 0.30932E+00    rms(broyden)= 0.30932E+00
  rms(prec ) = 0.31718E+00
  weight for this iteration     100.00

 eigenvalues of (default mixing * dielectric matrix)
  average eigenvalue GAMMA=   1.3933
  0.8610  1.9255

 Free energy of the ion-electron system (eV)
  ---------------------------------------------------
  alpha Z        PSCENC =        74.14887169
  Ewald energy   TEWEN  =     -1250.39766715
  -Hartree energ DENC   =      -245.56792870
  -exchange      EXHF   =         0.00000000
  -V(xc)+E(xc)   XCENC  =       -32.37658082
  PAW double counting   =      1694.41822135    -1581.87782611
  entropy T*S    EENTRO =        -0.00005405
  eigenvalues    EBANDS =      -138.33985184
  atomic energy  EATOM  =      1448.49460871
  Solvation  Ediel_sol  =         0.00000000
  ---------------------------------------------------
  free energy    TOTEN  =       -31.49820692 eV

  energy without entropy =      -31.49815287  energy(sigma->0) =      -31.49817990


--------------------------------------------------------------------------------------------------------




--------------------------------------- Iteration      1(   8)  ---------------------------------------


    POTLOK:  cpu time      0.1439: real time      0.1448
    SETDIJ:  cpu time      1.1360: real time      1.1394
     EDDAV:  cpu time     16.0372: real time     16.1778
       DOS:  cpu time      0.0020: real time      0.0020
    CHARGE:  cpu time      0.1579: real time      0.1588
    MIXING:  cpu time      0.0044: real time      0.0045
    --------------------------------------------
      LOOP:  cpu time     17.4816: real time     17.6272

 eigenvalue-minimisations  : 31776
 total energy-change (2. order) :-0.1877820E+01  (-0.5278443E-01)
 number of electron      40.0000008 magnetization       0.7463617
 augmentation part       -7.3247740 magnetization       0.8009211

 Broyden mixing:
  rms(total) = 0.12416E+00    rms(broyden)= 0.12416E+00
  rms(prec ) = 0.13181E+00
  weight for this iteration     100.00

 eigenvalues of (default mixing * dielectric matrix)
  average eigenvalue GAMMA=   1.3879
  2.3978  1.0872  0.6787

 Free energy of the ion-electron system (eV)
  ---------------------------------------------------
  alpha Z        PSCENC =        74.14887169
  Ewald energy   TEWEN  =     -1250.39766715
  -Hartree energ DENC   =      -248.33080017
  -exchange      EXHF   =         0.00000000
  -V(xc)+E(xc)   XCENC  =       -32.66691907
  PAW double counting   =      1907.13961901    -1794.71018752
  entropy T*S    EENTRO =        -0.00000000
  eigenvalues    EBANDS =      -137.05355289
  atomic energy  EATOM  =      1448.49460871
  Solvation  Ediel_sol  =         0.00000000
  ---------------------------------------------------
  free energy    TOTEN  =       -33.37602739 eV

  energy without entropy =      -33.37602739  energy(sigma->0) =      -33.37602739


--------------------------------------------------------------------------------------------------------




--------------------------------------- Iteration      1(   9)  ---------------------------------------


    POTLOK:  cpu time      0.1027: real time      0.1032
    SETDIJ:  cpu time      1.1244: real time      1.1265
     EDDAV:  cpu time     16.4035: real time     16.5414
       DOS:  cpu time      0.0019: real time      0.0019
    CHARGE:  cpu time      0.1592: real time      0.1598
    MIXING:  cpu time      0.0047: real time      0.0047
    --------------------------------------------
      LOOP:  cpu time     17.7963: real time     17.9376

 eigenvalue-minimisations  : 32432
 total energy-change (2. order) :-0.2615476E+00  (-0.1379184E-01)
 number of electron      40.0000008 magnetization       0.3873936
 augmentation part       -7.3299181 magnetization       0.4126250

 Broyden mixing:
  rms(total) = 0.62941E-01    rms(broyden)= 0.62941E-01
  rms(prec ) = 0.69385E-01
  weight for this iteration     100.00

 eigenvalues of (default mixing * dielectric matrix)
  average eigenvalue GAMMA=   1.3854
  2.5275  1.4946  0.8823  0.6371

 Free energy of the ion-electron system (eV)
  ---------------------------------------------------
  alpha Z        PSCENC =        74.14887169
  Ewald energy   TEWEN  =     -1250.39766715
  -Hartree energ DENC   =      -247.34108970
  -exchange      EXHF   =         0.00000000
  -V(xc)+E(xc)   XCENC  =       -32.80189840
  PAW double counting   =      1923.75060089    -1811.34325518
  entropy T*S    EENTRO =        -0.00000000
  eigenvalues    EBANDS =      -138.14774584
  atomic energy  EATOM  =      1448.49460871
  Solvation  Ediel_sol  =         0.00000000
  ---------------------------------------------------
  free energy    TOTEN  =       -33.63757498 eV

  energy without entropy =      -33.63757498  energy(sigma->0) =      -33.63757498


--------------------------------------------------------------------------------------------------------




--------------------------------------- Iteration      1(  10)  ---------------------------------------


    POTLOK:  cpu time      0.1003: real time      0.1011
    SETDIJ:  cpu time      1.1271: real time      1.1292
     EDDAV:  cpu time     16.0368: real time     16.1719
       DOS:  cpu time      0.0019: real time      0.0019
    CHARGE:  cpu time      0.1602: real time      0.1608
    MIXING:  cpu time      0.0046: real time      0.0046
    --------------------------------------------
      LOOP:  cpu time     17.4309: real time     17.5695

 eigenvalue-minimisations  : 31616
 total energy-change (2. order) :-0.1957036E-02  (-0.2369729E-02)
 number of electron      40.0000008 magnetization       0.1481163
 augmentation part       -7.3412553 magnetization       0.1575126

 Broyden mixing:
  rms(total) = 0.31663E-01    rms(broyden)= 0.31663E-01
  rms(prec ) = 0.32963E-01
  weight for this iteration     100.00

 eigenvalues of (default mixing * dielectric matrix)
  average eigenvalue GAMMA=   1.4030
  2.8035  1.5298  1.2676  0.7919  0.6220

 Free energy of the ion-electron system (eV)
  ---------------------------------------------------
  alpha Z        PSCENC =        74.14887169
  Ewald energy   TEWEN  =     -1250.39766715
  -Hartree energ DENC   =      -246.35289659
  -exchange      EXHF   =         0.00000000
  -V(xc)+E(xc)   XCENC  =       -32.87578180
  PAW double counting   =      1921.33293821    -1808.90752334
  entropy T*S    EENTRO =        -0.00000000
  eigenvalues    EBANDS =      -139.08208174
  atomic energy  EATOM  =      1448.49460871
  Solvation  Ediel_sol  =         0.00000000
  ---------------------------------------------------
  free energy    TOTEN  =       -33.63953201 eV

  energy without entropy =      -33.63953201  energy(sigma->0) =      -33.63953201


--------------------------------------------------------------------------------------------------------




--------------------------------------- Iteration      1(  11)  ---------------------------------------


    POTLOK:  cpu time      0.0996: real time      0.1000
    SETDIJ:  cpu time      1.1274: real time      1.1295
     EDDAV:  cpu time     16.3158: real time     16.4464
       DOS:  cpu time      0.0019: real time      0.0019
    CHARGE:  cpu time      0.1600: real time      0.1609
    MIXING:  cpu time      0.0048: real time      0.0048
    --------------------------------------------
      LOOP:  cpu time     17.7094: real time     17.8434

 eigenvalue-minimisations  : 32208
 total energy-change (2. order) :-0.5678284E-02  (-0.3119435E-03)
 number of electron      40.0000008 magnetization       0.0542842
 augmentation part       -7.3436247 magnetization       0.0587275

 Broyden mixing:
  rms(total) = 0.14705E-01    rms(broyden)= 0.14705E-01
  rms(prec ) = 0.15348E-01
  weight for this iteration     100.00

 eigenvalues of (default mixing * dielectric matrix)
  average eigenvalue GAMMA=   1.4174
  2.9064  1.8135  1.3955  1.0067  0.7561  0.6263

 Free energy of the ion-electron system (eV)
  ---------------------------------------------------
  alpha Z        PSCENC =        74.14887169
  Ewald energy   TEWEN  =     -1250.39766715
  -Hartree energ DENC   =      -246.17345683
  -exchange      EXHF   =         0.00000000
  -V(xc)+E(xc)   XCENC  =       -32.88453721
  PAW double counting   =      1921.08637448    -1808.65895328
  entropy T*S    EENTRO =        -0.00000000
  eigenvalues    EBANDS =      -139.26045070
  atomic energy  EATOM  =      1448.49460871
  Solvation  Ediel_sol  =         0.00000000
  ---------------------------------------------------
  free energy    TOTEN  =       -33.64521030 eV

  energy without entropy =      -33.64521030  energy(sigma->0) =      -33.64521030


--------------------------------------------------------------------------------------------------------




--------------------------------------- Iteration      1(  12)  ---------------------------------------


    POTLOK:  cpu time      0.1292: real time      0.1300
    SETDIJ:  cpu time      1.1214: real time      1.1284
     EDDAV:  cpu time     16.2374: real time     16.3621
       DOS:  cpu time      0.0019: real time      0.0019
    CHARGE:  cpu time      0.1587: real time      0.1592
    MIXING:  cpu time      0.0049: real time      0.0049
    --------------------------------------------
      LOOP:  cpu time     17.6535: real time     17.7865

 eigenvalue-minimisations  : 32224
 total energy-change (2. order) :-0.1048103E-02  (-0.5460198E-04)
 number of electron      40.0000008 magnetization       0.0097723
 augmentation part       -7.3446722 magnetization       0.0113891

 Broyden mixing:
  rms(total) = 0.56203E-02    rms(broyden)= 0.56203E-02
  rms(prec ) = 0.57874E-02
  weight for this iteration     100.00

 eigenvalues of (default mixing * dielectric matrix)
  average eigenvalue GAMMA=   1.4533
  3.1092  2.3688  1.2737  1.2737  0.8137  0.7006  0.6330

 Free energy of the ion-electron system (eV)
  ---------------------------------------------------
  alpha Z        PSCENC =        74.14887169
  Ewald energy   TEWEN  =     -1250.39766715
  -Hartree energ DENC   =      -245.99048938
  -exchange      EXHF   =         0.00000000
  -V(xc)+E(xc)   XCENC  =       -32.90520182
  PAW double counting   =      1910.85913588    -1798.42625957
  entropy T*S    EENTRO =        -0.00000000
  eigenvalues    EBANDS =      -139.42925677
  atomic energy  EATOM  =      1448.49460871
  Solvation  Ediel_sol  =         0.00000000
  ---------------------------------------------------
  free energy    TOTEN  =       -33.64625840 eV

  energy without entropy =      -33.64625840  energy(sigma->0) =      -33.64625840


--------------------------------------------------------------------------------------------------------




--------------------------------------- Iteration      1(  13)  ---------------------------------------


    POTLOK:  cpu time      0.1000: real time      0.1005
    SETDIJ:  cpu time      1.1234: real time      1.1256
     EDDAV:  cpu time     16.2126: real time     16.3398
       DOS:  cpu time      0.0019: real time      0.0019
    CHARGE:  cpu time      0.1578: real time      0.1588
    MIXING:  cpu time      0.0048: real time      0.0048
    --------------------------------------------
      LOOP:  cpu time     17.6005: real time     17.7314

 eigenvalue-minimisations  : 31936
 total energy-change (2. order) :-0.2207434E-03  (-0.7885127E-05)
 number of electron      40.0000008 magnetization       0.0016638
 augmentation part       -7.3450159 magnetization       0.0019037

 Broyden mixing:
  rms(total) = 0.20831E-02    rms(broyden)= 0.20831E-02
  rms(prec ) = 0.22094E-02
  weight for this iteration     100.00

 eigenvalues of (default mixing * dielectric matrix)
  average eigenvalue GAMMA=   1.4225
  3.2833  2.4253  1.3578  1.3578  0.9026  0.7852  0.6341  0.6341

 Free energy of the ion-electron system (eV)
  ---------------------------------------------------
  alpha Z        PSCENC =        74.14887169
  Ewald energy   TEWEN  =     -1250.39766715
  -Hartree energ DENC   =      -245.93177008
  -exchange      EXHF   =         0.00000000
  -V(xc)+E(xc)   XCENC  =       -32.91249786
  PAW double counting   =      1907.26403611    -1794.82995284
  entropy T*S    EENTRO =        -0.00000000
  eigenvalues    EBANDS =      -139.48210771
  atomic energy  EATOM  =      1448.49460871
  Solvation  Ediel_sol  =         0.00000000
  ---------------------------------------------------
  free energy    TOTEN  =       -33.64647914 eV

  energy without entropy =      -33.64647914  energy(sigma->0) =      -33.64647914


--------------------------------------------------------------------------------------------------------




--------------------------------------- Iteration      1(  14)  ---------------------------------------


    POTLOK:  cpu time      0.0990: real time      0.0997
    SETDIJ:  cpu time      1.1249: real time      1.1271
     EDDAV:  cpu time     16.6102: real time     16.7287
       DOS:  cpu time      0.0019: real time      0.0019
    CHARGE:  cpu time      0.1610: real time      0.1616
    MIXING:  cpu time      0.0049: real time      0.0050
    --------------------------------------------
      LOOP:  cpu time     18.0020: real time     18.1239

 eigenvalue-minimisations  : 32976
 total energy-change (2. order) :-0.9415288E-05  (-0.9139442E-06)
 number of electron      40.0000008 magnetization       0.0004730
 augmentation part       -7.3447933 magnetization       0.0005175

 Broyden mixing:
  rms(total) = 0.84414E-03    rms(broyden)= 0.84414E-03
  rms(prec ) = 0.93114E-03
  weight for this iteration     100.00

 eigenvalues of (default mixing * dielectric matrix)
  average eigenvalue GAMMA=   1.3848
  3.3138  2.3744  1.6012  1.1371  1.1371  0.8736  0.7502  0.6251  0.6504

 Free energy of the ion-electron system (eV)
  ---------------------------------------------------
  alpha Z        PSCENC =        74.14887169
  Ewald energy   TEWEN  =     -1250.39766715
  -Hartree energ DENC   =      -245.95050539
  -exchange      EXHF   =         0.00000000
  -V(xc)+E(xc)   XCENC  =       -32.91247563
  PAW double counting   =      1907.17197491    -1794.73873242
  entropy T*S    EENTRO =        -0.00000000
  eigenvalues    EBANDS =      -139.46256328
  atomic energy  EATOM  =      1448.49460871
  Solvation  Ediel_sol  =         0.00000000
  ---------------------------------------------------
  free energy    TOTEN  =       -33.64648856 eV

  energy without entropy =      -33.64648856  energy(sigma->0) =      -33.64648856


--------------------------------------------------------------------------------------------------------




--------------------------------------- Iteration      1(  15)  ---------------------------------------


    POTLOK:  cpu time      0.0993: real time      0.0997
    SETDIJ:  cpu time      1.1252: real time      1.1277
     EDDAV:  cpu time     16.3945: real time     16.5166
       DOS:  cpu time      0.0019: real time      0.0019
    CHARGE:  cpu time      0.1599: real time      0.1605
    MIXING:  cpu time      0.0049: real time      0.0049
    --------------------------------------------
      LOOP:  cpu time     17.7857: real time     17.9114

 eigenvalue-minimisations  : 32480
 total energy-change (2. order) :-0.2103650E-05  (-0.1924624E-06)
 number of electron      40.0000008 magnetization       0.0000636
 augmentation part       -7.3445910 magnetization       0.0000897

 Broyden mixing:
  rms(total) = 0.36572E-03    rms(broyden)= 0.36572E-03
  rms(prec ) = 0.40687E-03
  weight for this iteration     100.00

 eigenvalues of (default mixing * dielectric matrix)
  average eigenvalue GAMMA=   1.3750
  3.3252  2.2693  1.9783  1.2392  1.2392  0.9204  0.8243  0.6850  0.6320  0.6367

 Free energy of the ion-electron system (eV)
  ---------------------------------------------------
  alpha Z        PSCENC =        74.14887169
  Ewald energy   TEWEN  =     -1250.39766715
  -Hartree energ DENC   =      -245.96403287
  -exchange      EXHF   =         0.00000000
  -V(xc)+E(xc)   XCENC  =       -32.91246623
  PAW double counting   =      1907.18160433    -1794.74892775
  entropy T*S    EENTRO =        -0.00000000
  eigenvalues    EBANDS =      -139.44848139
  atomic energy  EATOM  =      1448.49460871
  Solvation  Ediel_sol  =         0.00000000
  ---------------------------------------------------
  free energy    TOTEN  =       -33.64649066 eV

  energy without entropy =      -33.64649066  energy(sigma->0) =      -33.64649066


--------------------------------------------------------------------------------------------------------




--------------------------------------- Iteration      1(  16)  ---------------------------------------


    POTLOK:  cpu time      0.0986: real time      0.0993
    SETDIJ:  cpu time      1.1312: real time      1.1335
     EDDAV:  cpu time     16.3366: real time     16.4680
       DOS:  cpu time      0.0019: real time      0.0019
    CHARGE:  cpu time      0.1612: real time      0.1621
    MIXING:  cpu time      0.0050: real time      0.0051
    --------------------------------------------
      LOOP:  cpu time     17.7345: real time     17.8698

 eigenvalue-minimisations  : 32192
 total energy-change (2. order) :-0.1002821E-05  (-0.2614352E-07)
 number of electron      40.0000008 magnetization      -0.0000653
 augmentation part       -7.3445449 magnetization      -0.0000546

 Broyden mixing:
  rms(total) = 0.16536E-03    rms(broyden)= 0.16536E-03
  rms(prec ) = 0.19160E-03
  weight for this iteration     100.00

 eigenvalues of (default mixing * dielectric matrix)
  average eigenvalue GAMMA=   1.4080
  3.3344  2.2982  2.2982  1.5506  1.1769  1.1769  0.9116  0.7939  0.6993  0.6240
  0.6240

 Free energy of the ion-electron system (eV)
  ---------------------------------------------------
  alpha Z        PSCENC =        74.14887169
  Ewald energy   TEWEN  =     -1250.39766715
  -Hartree energ DENC   =      -245.96418050
  -exchange      EXHF   =         0.00000000
  -V(xc)+E(xc)   XCENC  =       -32.91278449
  PAW double counting   =      1907.17464260    -1794.74207553
  entropy T*S    EENTRO =        -0.00000000
  eigenvalues    EBANDS =      -139.44790699
  atomic energy  EATOM  =      1448.49460871
  Solvation  Ediel_sol  =         0.00000000
  ---------------------------------------------------
  free energy    TOTEN  =       -33.64649167 eV

  energy without entropy =      -33.64649167  energy(sigma->0) =      -33.64649167


--------------------------------------------------------------------------------------------------------




--------------------------------------- Iteration      1(  17)  ---------------------------------------


    POTLOK:  cpu time      0.0986: real time      0.0991
    SETDIJ:  cpu time      1.1311: real time      1.1335
     EDDAV:  cpu time     15.6589: real time     15.7804
       DOS:  cpu time      0.0018: real time      0.0019
    --------------------------------------------
      LOOP:  cpu time     16.8904: real time     17.0149

 eigenvalue-minimisations  : 30432
 total energy-change (2. order) :-0.3711702E-06  (-0.1119838E-07)
 number of electron      40.0000008 magnetization      -0.0000653
 augmentation part       -7.3445449 magnetization      -0.0000546

 Free energy of the ion-electron system (eV)
  ---------------------------------------------------
  alpha Z        PSCENC =        74.14887169
  Ewald energy   TEWEN  =     -1250.39766715
  -Hartree energ DENC   =      -245.96156399
  -exchange      EXHF   =         0.00000000
  -V(xc)+E(xc)   XCENC  =       -32.91304184
  PAW double counting   =      1907.23183216    -1794.79925556
  entropy T*S    EENTRO =        -0.00000000
  eigenvalues    EBANDS =      -139.45027605
  atomic energy  EATOM  =      1448.49460871
  Solvation  Ediel_sol  =         0.00000000
  ---------------------------------------------------
  free energy    TOTEN  =       -33.64649204 eV

  energy without entropy =      -33.64649204  energy(sigma->0) =      -33.64649204


--------------------------------------------------------------------------------------------------------




 average (electrostatic) potential at core
  the test charge radii are     1.1631  1.0808
  (the norm of the test charge is              1.0000)
       1 -34.6745       2 -34.6745       3 -34.6745       4 -34.6745       5 -56.1371
       6 -56.1371       7 -56.1371       8 -56.1371
 
 
 
 E-fermi :   2.2339     XC(G=0):  -8.4016     alpha+bet : -7.3869

 Fermi energy:         2.2338651140

 spin component 1

 k-point     1 :       0.0000    0.0000    0.0000
  band No.  band energies     occupation 
      1     -11.9866      1.00000
      2     -11.9402      1.00000
      3     -10.6338      1.00000
      4     -10.5573      1.00000
      5      -5.6727      1.00000
      6      -5.5285      1.00000
      7      -3.5515      1.00000
      8      -3.4554      1.00000
      9      -2.4510      1.00000
     10      -1.7979      1.00000
     11      -1.4178      1.00000
     12      -1.2597      1.00000
     13      -0.8500      1.00000
     14      -0.7912      1.00000
     15       0.2640      1.00000
     16       0.4470      1.00000
     17       0.5421      1.00000
     18       0.5662      1.00000
     19       1.7305      1.00000
     20       1.9508      1.00000
     21       2.5831      0.00000
     22       4.2801      0.00000
     23       4.6267      0.00000
     24       4.7725      0.00000
     25       4.9494      0.00000
     26       5.1006      0.00000
     27       5.8673      0.00000
     28       6.0082      0.00000
     29       6.8555      0.00000
     30       7.3386      0.00000
     31       7.3785      0.00000
     32       7.5925      0.00000
     33       8.7770      0.00000
     34       8.8898      0.00000
     35       9.0086      0.00000
     36       9.0269      0.00000
     37       9.6723      0.00000
     38       9.7741      0.00000
     39       9.9848      0.00000
     40      10.3169      0.00000
     41      10.6587      0.00000
     42      10.7255      0.00000
     43      11.1786      0.00000
     44      11.2158      0.00000
     45      11.4873      0.00000
     46      11.8475      0.00000
     47      12.2475      0.00000
     48      12.5143      0.00000
     49      12.8340      0.00000
     50      13.1676      0.00000
     51      13.3329      0.00000
     52      13.6261      0.00000
     53      13.8996      0.00000
     54      14.2067      0.00000
     55      14.8018      0.00000
     56      15.5440      0.00000
     57      16.0119      0.00000
     58      16.0857      0.00000
     59      16.3816      0.00000
     60      16.3967      0.00000
     61      16.6511      0.00000
     62      16.6515      0.00000
     63      16.7968      0.00000
     64      17.0271      0.00000
     65      17.3705      0.00000
     66      18.1355      0.00000
     67      18.2046      0.00000
     68      18.7872      0.00000
     69      18.9792      0.00000
     70      19.7755      0.00000
     71      19.8075      0.00000
     72      19.9423      0.00000
     73      20.0280      0.00000
     74      20.8101      0.00000
     75      21.4346      0.00000
     76      21.4454      0.00000
     77      21.4966      0.00000
     78      21.9199      0.00000
     79      22.1468      0.00000
     80      22.2206      0.00000
     81      22.3976      0.00000
     82      22.4227      0.00000
     83      23.1690      0.00000
     84      23.2264      0.00000
     85      23.2459      0.00000
     86      23.4855      0.00000
     87      23.8279      0.00000
     88      24.0214      0.00000
     89      24.3434      0.00000
     90      24.4752      0.00000
     91      24.6698      0.00000
     92      24.7271      0.00000
     93      25.0286      0.00000
     94      25.1049      0.00000
     95      25.3709      0.00000
     96      25.4208      0.00000
     97      25.7652      0.00000
     98      25.9850      0.00000
     99      26.1854      0.00000
    100      26.5689      0.00000
    101      26.9083      0.00000
    102      28.3514      0.00000
    103      28.3725      0.00000
    104      29.0297      0.00000
    105      29.3969      0.00000
    106      29.4424      0.00000
    107      29.4460      0.00000
    108      29.6307      0.00000
    109      29.7957      0.00000
    110      29.8334      0.00000
    111      29.8347      0.00000
    112      29.9924      0.00000
    113      30.0892      0.00000
    114      30.1885      0.00000
    115      30.6013      0.00000
    116      30.7530      0.00000
    117      30.7635      0.00000
    118      31.0248      0.00000
    119      31.0314      0.00000
    120      31.1827      0.00000
    121      31.3311      0.00000
    122      31.4010      0.00000
    123      31.7895      0.00000
    124      31.8734      0.00000
    125      31.8832      0.00000
    126      31.9592      0.00000
    127      32.0794      0.00000
    128      32.1182      0.00000
    129      32.3833      0.00000
    130      32.7114      0.00000
    131      32.7532      0.00000
    132      32.8328      0.00000
    133      32.9568      0.00000
    134      33.0574      0.00000
    135      33.0601      0.00000
    136      33.1493      0.00000
    137      33.2646      0.00000
    138      33.5189      0.00000
    139      33.7577      0.00000
    140      34.1925      0.00000
    141      34.4861      0.00000
    142      34.6282      0.00000
    143      34.8972      0.00000
    144      35.3300      0.00000
    145      35.5413      0.00000
    146      35.7356      0.00000
    147      36.1268      0.00000
    148      36.4867      0.00000
    149      36.5655      0.00000
    150      36.9778      0.00000
    151      37.3323      0.00000
    152      37.7423      0.00000
    153      37.8511      0.00000
    154      38.0123      0.00000
    155      38.0576      0.00000
    156      38.0732      0.00000
    157      38.1190      0.00000
    158      38.2134      0.00000
    159      38.2744      0.00000
    160      38.5556      0.00000
    161      38.7354      0.00000
    162      38.7813      0.00000
    163      38.7948      0.00000
    164      39.0586      0.00000
    165      39.1815      0.00000
    166      39.2798      0.00000
    167      39.3343      0.00000
    168      39.4327      0.00000
    169      39.9149      0.00000
    170      39.9282      0.00000
    171      40.4798      0.00000
    172      40.5076      0.00000
    173      40.6040      0.00000
    174      40.7817      0.00000
    175      40.8597      0.00000
    176      40.8639      0.00000
    177      41.0890      0.00000
    178      41.1747      0.00000
    179      41.3650      0.00000
    180      41.3690      0.00000
    181      41.3833      0.00000
    182      41.5311      0.00000
    183      41.6152      0.00000
    184      41.9498      0.00000
    185      42.1487      0.00000
    186      42.4662      0.00000
    187      42.7474      0.00000
    188      43.0351      0.00000
    189      43.0374      0.00000
    190      43.2375      0.00000
    191      43.3372      0.00000
    192      43.3707      0.00000
    193      43.7134      0.00000
    194      43.9413      0.00000
    195      44.0428      0.00000
    196      44.1235      0.00000
    197      44.2829      0.00000
    198      44.4988      0.00000
    199      44.7047      0.00000
    200      44.8878      0.00000
    201      44.9863      0.00000
    202      45.0921      0.00000
    203      45.2690      0.00000
    204      45.3609      0.00000
    205      45.4407      0.00000
    206      45.5989      0.00000
    207      45.9187      0.00000
    208      45.9913      0.00000
    209      46.1791      0.00000
    210      46.2464      0.00000
    211      46.2552      0.00000
    212      46.3637      0.00000
    213      46.5544      0.00000
    214      46.9338      0.00000
    215      47.1875      0.00000
    216      47.3883      0.00000
    217      47.4059      0.00000
    218      47.4415      0.00000
    219      47.6685      0.00000
    220      47.9419      0.00000
    221      48.4794      0.00000
    222      48.9850      0.00000
    223      49.3326      0.00000
    224      49.5184      0.00000

 k-point     2 :       0.1667    0.0000    0.0000
  band No.  band energies     occupation 
      1     -11.8024      1.00000
      2     -11.7583      1.00000
      3     -10.5435      1.00000
      4     -10.4773      1.00000
      5      -5.8860      1.00000
      6      -5.7577      1.00000
      7      -4.0014      1.00000
      8      -3.9800      1.00000
      9      -2.2475      1.00000
     10      -1.6064      1.00000
     11      -1.3166      1.00000
     12      -1.3098      1.00000
     13      -0.9760      1.00000
     14      -0.8635      1.00000
     15       0.1515      1.00000
     16       0.1581      1.00000
     17       0.5596      1.00000
     18       0.8787      1.00000
     19       1.6092      1.00000
     20       1.7122      1.00000
     21       2.7869      0.00000
     22       4.4996      0.00000
     23       4.5040      0.00000
     24       4.6358      0.00000
     25       5.3758      0.00000
     26       5.4755      0.00000
     27       5.4884      0.00000
     28       5.6066      0.00000
     29       6.4579      0.00000
     30       6.7385      0.00000
     31       6.8848      0.00000
     32       7.0849      0.00000
     33       8.2950      0.00000
     34       8.3261      0.00000
     35       8.7167      0.00000
     36       9.0080      0.00000
     37       9.3033      0.00000
     38       9.3861      0.00000
     39       9.4329      0.00000
     40       9.8507      0.00000
     41      10.4203      0.00000
     42      11.1102      0.00000
     43      11.9977      0.00000
     44      12.3918      0.00000
     45      12.8624      0.00000
     46      13.0929      0.00000
     47      13.4317      0.00000
     48      13.4739      0.00000
     49      13.5189      0.00000
     50      13.6088      0.00000
     51      14.2653      0.00000
     52      14.3627      0.00000
     53      14.4279      0.00000
     54      14.7446      0.00000
     55      15.2563      0.00000
     56      15.3203      0.00000
     57      15.3306      0.00000
     58      15.6735      0.00000
     59      15.7367      0.00000
     60      16.2856      0.00000
     61      16.5068      0.00000
     62      16.7378      0.00000
     63      16.9357      0.00000
     64      16.9643      0.00000
     65      18.1497      0.00000
     66      18.1782      0.00000
     67      18.3601      0.00000
     68      18.5399      0.00000
[...]
     50      15.3514      0.00000
     51      15.3514      0.00000
     52      15.3514      0.00000
     53      15.9278      0.00000
     54      15.9278      0.00000
     55      15.9278      0.00000
     56      15.9278      0.00000
     57      16.3884      0.00000
     58      16.3884      0.00000
     59      16.3884      0.00000
     60      16.3884      0.00000
     61      16.8005      0.00000
     62      16.8005      0.00000
     63      16.8005      0.00000
     64      16.8005      0.00000
     65      18.5490      0.00000
     66      18.5490      0.00000
     67      18.5490      0.00000
     68      18.5490      0.00000
     69      19.3344      0.00000
     70      19.3344      0.00000
     71      19.3344      0.00000
     72      19.3344      0.00000
     73      20.3549      0.00000
     74      20.3549      0.00000
     75      20.3549      0.00000
     76      20.3549      0.00000
     77      20.4868      0.00000
     78      20.4868      0.00000
     79      20.4868      0.00000
     80      20.4868      0.00000
     81      22.1586      0.00000
     82      22.1586      0.00000
     83      22.1586      0.00000
     84      22.1586      0.00000
     85      23.1470      0.00000
     86      23.1470      0.00000
     87      23.1470      0.00000
     88      23.1470      0.00000
     89      24.3340      0.00000
     90      24.3340      0.00000
     91      24.3340      0.00000
     92      24.3340      0.00000
     93      24.9256      0.00000
     94      24.9256      0.00000
     95      24.9256      0.00000
     96      24.9256      0.00000
     97      25.8138      0.00000
     98      25.8138      0.00000
     99      25.8138      0.00000
    100      25.8138      0.00000
    101      26.1196      0.00000
    102      26.1196      0.00000
    103      26.1196      0.00000
    104      26.1196      0.00000
    105      27.6180      0.00000
    106      27.6180      0.00000
    107      27.6180      0.00000
    108      27.6180      0.00000
    109      28.4613      0.00000
    110      28.4613      0.00000
    111      28.4613      0.00000
    112      28.4613      0.00000
    113      29.2532      0.00000
    114      29.2532      0.00000
    115      29.2533      0.00000
    116      29.2533      0.00000
    117      30.0436      0.00000
    118      30.0436      0.00000
    119      30.0436      0.00000
    120      30.0436      0.00000
    121      31.0584      0.00000
    122      31.0584      0.00000
    123      31.0584      0.00000
    124      31.0584      0.00000
    125      31.4666      0.00000
    126      31.4666      0.00000
    127      31.4666      0.00000
    128      31.4666      0.00000
    129      32.1286      0.00000
    130      32.1286      0.00000
    131      32.1286      0.00000
    132      32.1286      0.00000
    133      32.9998      0.00000
    134      32.9998      0.00000
    135      32.9998      0.00000
    136      32.9998      0.00000
    137      34.3307      0.00000
    138      34.3307      0.00000
    139      34.3307      0.00000
    140      34.3307      0.00000
    141      34.6364      0.00000
    142      34.6364      0.00000
    143      34.6364      0.00000
    144      34.6364      0.00000
    145      35.4051      0.00000
    146      35.4051      0.00000
    147      35.4051      0.00000
    148      35.4051      0.00000
    149      36.4050      0.00000
    150      36.4050      0.00000
    151      36.4050      0.00000
    152      36.4050      0.00000
    153      38.1164      0.00000
    154      38.1164      0.00000
    155      38.1164      0.00000
    156      38.1164      0.00000
    157      38.5723      0.00000
    158      38.5723      0.00000
    159      38.5723      0.00000
    160      38.5723      0.00000
    161      39.2230      0.00000
    162      39.2230      0.00000
    163      39.2230      0.00000
    164      39.2230      0.00000
    165      39.8773      0.00000
    166      39.8773      0.00000
    167      39.8773      0.00000
    168      39.8773      0.00000
    169      40.2240      0.00000
    170      40.2240      0.00000
    171      40.2240      0.00000
    172      40.2240      0.00000
    173      40.5468      0.00000
    174      40.5468      0.00000
    175      40.5468      0.00000
    176      40.5468      0.00000
    177      41.3448      0.00000
    178      41.3448      0.00000
    179      41.3448      0.00000
    180      41.3448      0.00000
    181      41.9039      0.00000
    182      41.9039      0.00000
    183      41.9039      0.00000
    184      41.9039      0.00000
    185      42.4923      0.00000
    186      42.4923      0.00000
    187      42.4923      0.00000
    188      42.4923      0.00000
    189      42.9750      0.00000
    190      42.9750      0.00000
    191      42.9750      0.00000
    192      42.9750      0.00000
    193      44.5381      0.00000
    194      44.5381      0.00000
    195      44.5381      0.00000
    196      44.5381      0.00000
    197      45.3594      0.00000
    198      45.3594      0.00000
    199      45.3594      0.00000
    200      45.3594      0.00000
    201      45.7913      0.00000
    202      45.7913      0.00000
    203      45.7913      0.00000
    204      45.7913      0.00000
    205      46.3658      0.00000
    206      46.3658      0.00000
    207      46.3658      0.00000
    208      46.3658      0.00000
    209      48.2165      0.00000
    210      48.2165      0.00000
    211      48.2165      0.00000
    212      48.2165      0.00000
    213      48.4805      0.00000
    214      48.4805      0.00000
    215      48.4805      0.00000
    216      48.4805      0.00000
    217      48.7433      0.00000
    218      48.7433      0.00000
    219      48.7433      0.00000
    220      48.7433      0.00000
    221      49.5585      0.00000
    222      49.5586      0.00000
    223      49.5588      0.00000
    224      49.6060      0.00000


--------------------------------------------------------------------------------------------------------


 soft charge-density along one line, spin component            1
         0         1         2         3         4         5         6         7         8         9
 total charge-density along one line
 
 soft charge-density along one line, spin component            2
         0         1         2         3         4         5         6         7         8         9
 total charge-density along one line
 
 pseudopotential strength for first ion, spin component:            1
 14.878  18.573   0.042   0.052  -0.000   0.076   0.093  -0.000
 18.573  23.200   0.053   0.065  -0.000   0.096   0.117  -0.000
  0.042   0.053   3.284  -0.003  -0.000   5.596  -0.005  -0.000
  0.052   0.065  -0.003   3.282  -0.000  -0.005   5.592  -0.000
 -0.000  -0.000  -0.000  -0.000   3.285  -0.000  -0.000   5.598
  0.076   0.096   5.596  -0.005  -0.000   9.593  -0.009  -0.000
  0.093   0.117  -0.005   5.592  -0.000  -0.009   9.586  -0.000
 -0.000  -0.000  -0.000  -0.000   5.598  -0.000  -0.000   9.597
 -0.000  -0.000  -0.000  -0.000   0.007  -0.000  -0.000   0.013
 -0.007  -0.008   0.013   0.013  -0.000   0.024   0.024  -0.000
 -0.003  -0.004  -0.003   0.013   0.000  -0.007   0.024   0.000
 -0.000  -0.000  -0.000  -0.000   0.013  -0.000  -0.000   0.024
  0.002   0.002  -0.012   0.000  -0.000  -0.022   0.000  -0.000
 pseudopotential strength for first ion, spin component:            2
 14.878  18.573   0.042   0.052  -0.000   0.076   0.093  -0.000
 18.573  23.200   0.053   0.065  -0.000   0.096   0.117  -0.000
  0.042   0.053   3.284  -0.003  -0.000   5.596  -0.005  -0.000
  0.052   0.065  -0.003   3.282  -0.000  -0.005   5.592  -0.000
 -0.000  -0.000  -0.000  -0.000   3.285  -0.000  -0.000   5.598
  0.076   0.096   5.596  -0.005  -0.000   9.593  -0.009  -0.000
  0.093   0.117  -0.005   5.592  -0.000  -0.009   9.586  -0.000
 -0.000  -0.000  -0.000  -0.000   5.598  -0.000  -0.000   9.597
 -0.000  -0.000  -0.000  -0.000   0.007  -0.000  -0.000   0.013
 -0.006  -0.008   0.013   0.013  -0.000   0.024   0.024  -0.000
 -0.003  -0.004  -0.003   0.013   0.000  -0.007   0.024   0.000
 -0.000  -0.000  -0.000  -0.000   0.013  -0.000  -0.000   0.024
  0.002   0.002  -0.012   0.000  -0.000  -0.022   0.000  -0.000
 total augmentation occupancy for first ion, spin component:            1
  2.682  -0.652   0.349   0.402   0.000  -0.065  -0.074  -0.000   0.000  -0.009  -0.013   0.000   0.009
 -0.652   0.618  -0.443  -0.541   0.000   0.070   0.086   0.000  -0.000   0.002   0.015  -0.000  -0.005
  0.349  -0.443   1.225   0.076   0.000  -0.197   0.000   0.000   0.000   0.051  -0.099   0.000   0.002
  0.402  -0.541   0.076   1.271   0.000  -0.000  -0.199   0.000  -0.000  -0.017   0.110   0.000  -0.003
  0.000   0.000   0.000   0.000   1.238  -0.000  -0.000  -0.211   0.148   0.000   0.000   0.045   0.000
 -0.065   0.070  -0.197  -0.000   0.000   0.036  -0.002  -0.000   0.000  -0.009   0.017   0.000   0.000
 -0.074   0.086   0.000  -0.199   0.000  -0.002   0.035   0.000  -0.000   0.003  -0.019  -0.000   0.001
  0.000   0.000  -0.000   0.000  -0.211   0.000   0.000   0.040  -0.026   0.000   0.000  -0.008   0.000
 -0.000  -0.000  -0.000  -0.000   0.148   0.000   0.000  -0.026   0.030  -0.000   0.000   0.003   0.000
 -0.009   0.002   0.051  -0.017   0.000  -0.009   0.003  -0.000   0.000   0.010  -0.007  -0.000   0.001
 -0.013   0.015  -0.099   0.110  -0.000   0.017  -0.019   0.000   0.000  -0.007   0.028   0.000  -0.002
  0.000   0.000   0.000   0.000   0.045  -0.000   0.000  -0.008   0.003  -0.000   0.000   0.009   0.000
  0.009  -0.005   0.002  -0.003   0.000   0.000   0.001   0.000   0.000   0.001  -0.002  -0.000   0.008
 total augmentation occupancy for first ion, spin component:            2
  0.000  -0.000   0.000  -0.000   0.000  -0.000   0.000   0.000   0.000   0.000   0.000  -0.000   0.000
 -0.000  -0.000   0.000   0.000   0.000   0.000  -0.000   0.000  -0.000   0.000   0.000   0.000   0.000
  0.000   0.000   0.000   0.000   0.000  -0.000  -0.000   0.000   0.000  -0.000  -0.000   0.000  -0.000
 -0.000   0.000   0.000   0.000  -0.000  -0.000  -0.000  -0.000   0.000   0.000  -0.000  -0.000  -0.000
  0.000   0.000   0.000  -0.000   0.000   0.000  -0.000  -0.000   0.000   0.000   0.000  -0.000   0.000
 -0.000   0.000  -0.000  -0.000   0.000   0.000   0.000   0.000  -0.000   0.000   0.000   0.000   0.000
  0.000  -0.000  -0.000  -0.000  -0.000   0.000   0.000   0.000   0.000  -0.000   0.000   0.000   0.000
  0.000   0.000   0.000  -0.000  -0.000   0.000   0.000   0.000  -0.000   0.000  -0.000   0.000   0.000
  0.000  -0.000   0.000   0.000   0.000  -0.000   0.000  -0.000   0.000  -0.000   0.000  -0.000  -0.000
  0.000   0.000  -0.000   0.000   0.000   0.000  -0.000   0.000  -0.000  -0.000   0.000   0.000  -0.000
  0.000   0.000  -0.000  -0.000   0.000   0.000   0.000  -0.000   0.000   0.000  -0.000   0.000   0.000
 -0.000   0.000   0.000  -0.000  -0.000   0.000   0.000   0.000  -0.000   0.000   0.000  -0.000   0.000
  0.000   0.000  -0.000  -0.000   0.000   0.000   0.000   0.000  -0.000  -0.000   0.000   0.000  -0.000


------------------------ aborting loop because EDIFF is reached ----------------------------------------





 total charge

# of ion       s       p       d       tot
------------------------------------------
    1        1.316   0.788   0.051   2.155
    2        1.316   0.788   0.051   2.155
    3        1.316   0.788   0.051   2.155
    4        1.316   0.788   0.051   2.155
    5        1.472   2.311   0.029   3.812
    6        1.472   2.311   0.029   3.812
    7        1.472   2.311   0.029   3.812
    8        1.472   2.311   0.029   3.812
--------------------------------------------------
tot         11.154  12.393   0.321  23.868



 magnetization (x)

# of ion       s       p       d       tot
------------------------------------------
    1        0.000  -0.000   0.000  -0.000
    2        0.000  -0.000   0.000  -0.000
    3        0.000  -0.000   0.000  -0.000
    4        0.000  -0.000   0.000  -0.000
    5       -0.000   0.000   0.000   0.000
    6       -0.000   0.000   0.000   0.000
    7       -0.000   0.000   0.000   0.000
    8       -0.000   0.000   0.000   0.000
--------------------------------------------------
tot          0.000   0.000   0.000   0.000
 
    CHARGE:  cpu time      0.1606: real time      0.1614
    FORLOC:  cpu time      0.0041: real time      0.0041
    FORNL :  cpu time      1.9372: real time      1.9450
    STRESS:  cpu time      4.3104: real time      4.3361
    FORCOR:  cpu time      0.0956: real time      0.0960
    FORHAR:  cpu time      0.0120: real time      0.0120
    MIXING:  cpu time      0.0053: real time      0.0053
    OFIELD:  cpu time      0.0000: real time      0.0000

  FORCE on cell =-STRESS in cart. coord.  units (eV):
  Direction    XX          YY          ZZ          XY          YZ          ZX
  --------------------------------------------------------------------------------------
  Alpha Z    74.14887    74.14887    74.14887
  Ewald    -271.53249  -325.24393  -653.62348    -0.00000     0.00000    -0.00000
  Hartree   170.88016   148.45881   -73.37992    -0.00000    -0.00000     0.00000
  E(xc)    -140.55574  -140.59299  -141.55118    -0.00000    -0.00000     0.00000
  Local    -449.85239  -380.23122   165.34467     0.00000    -0.00000     0.00000
  n-local   240.17289   239.57228   241.47193     0.85010     0.00000     0.00000
  augment   -11.33054   -11.76851   -12.16746    -0.00000     0.00000     0.00000
  Kinetic   388.79145   396.29910   397.68867     6.67473    -0.00000    -0.00000
  Fock        0.00000     0.00000     0.00000     0.00000     0.00000     0.00000
  -------------------------------------------------------------------------------------
  Total       0.72222     0.64241    -2.06791    -0.00000     0.00000     0.00000
  in kB       5.06356     4.50401   -14.49839    -0.00000     0.00000     0.00000
  external pressure =       -1.64 kB  Pullay stress =        0.00 kB


 VOLUME and BASIS-vectors are now :
 -----------------------------------------------------------------------------
  energy-cutoff  :      520.00
  volume of cell :      228.52
      direct lattice vectors                 reciprocal lattice vectors
     3.858100176  0.000000000  0.000000000     0.259194929  0.000000000  0.000000000
     0.000000000  4.526575088  0.000000000     0.000000000  0.220917577  0.000000000
     0.000000000  0.000000000 13.085176468     0.000000000  0.000000000  0.076422355

  length of vectors
     3.858100176  4.526575088 13.085176468     0.259194929  0.220917577  0.076422355


 FORCES acting on ions
    electron-ion (+dipol)            ewald-force                    non-local-force                 convergence-correction
 -----------------------------------------------------------------------------------------------
   0.390E-09 0.158E+02 0.554E+02   0.209E-08 -.184E+02 -.587E+02   0.139E-16 0.254E+01 0.345E+01   -.181E-12 -.162E-04 0.118E-04
   -.408E-08 -.158E+02 -.554E+02   -.209E-08 0.184E+02 0.587E+02   -.139E-16 -.254E+01 -.345E+01   0.137E-12 0.162E-04 -.146E-04
   -.408E-08 0.158E+02 -.554E+02   -.209E-08 -.184E+02 0.587E+02   0.139E-16 0.254E+01 -.345E+01   0.137E-12 -.162E-04 -.121E-04
   0.390E-09 -.158E+02 0.554E+02   0.209E-08 0.184E+02 -.587E+02   0.139E-16 -.254E+01 0.345E+01   -.180E-12 0.162E-04 0.151E-04
   0.423E-09 0.163E+02 -.631E+02   0.241E-08 -.179E+02 0.649E+02   -.139E-16 0.150E+01 -.179E+01   -.555E-12 0.484E-04 -.388E-04
   -.197E-07 -.163E+02 0.631E+02   -.241E-08 0.179E+02 -.649E+02   0.139E-16 -.150E+01 0.179E+01   -.115E-12 -.484E-04 0.351E-04
   -.197E-07 0.163E+02 0.631E+02   -.241E-08 -.179E+02 -.649E+02   0.139E-16 0.150E+01 0.179E+01   -.116E-12 0.484E-04 0.395E-04
   0.423E-09 -.163E+02 -.631E+02   0.241E-08 0.179E+02 0.649E+02   -.139E-16 -.150E+01 -.179E+01   -.554E-12 -.483E-04 -.357E-04
 -----------------------------------------------------------------------------------------------
   -.460E-07 0.823E-04 -.141E-03   -.247E-14 0.000E+00 -.284E-13   0.278E-16 0.000E+00 0.000E+00   -.143E-11 0.498E-08 0.223E-06
 
 
 POSITION                                       TOTAL-FORCE (eV/Angst)
 -----------------------------------------------------------------------------------
      0.96453      0.52346      1.36947        -0.000000     -0.070759      0.175579
      2.89358      4.00311     10.71571         0.000000      0.070759     -0.175579
      2.89358      2.78675      4.17312         0.000000     -0.070759     -0.175579
      0.96453      1.73983      7.91205        -0.000000      0.070759      0.175579
      0.96453      2.28569     10.45155         0.000000     -0.072289      0.017510
      2.89358      2.24089      1.63362         0.000000      0.072289     -0.017510
      2.89358      0.02240      8.17621         0.000000     -0.072289     -0.017510
      0.96453      4.50417      3.90897         0.000000      0.072289      0.017510
 -----------------------------------------------------------------------------------
    total drift:                               -0.000000      0.000082     -0.000141


--------------------------------------------------------------------------------------------------------



  FREE ENERGIE OF THE ION-ELECTRON SYSTEM (eV)
  ---------------------------------------------------
  free  energy   TOTEN  =       -33.64649204 eV

  energy  without entropy=      -33.64649204  energy(sigma->0) =      -33.64649204
 


--------------------------------------------------------------------------------------------------------


    POTLOK:  cpu time      1.2391: real time      1.2420


--------------------------------------------------------------------------------------------------------


 writing wavefunctions
     LOOP+:  cpu time    307.6479: real time    315.8059
    4ORBIT:  cpu time      0.0000: real time      0.0000



 total charge

# of ion       s       p       d       tot
------------------------------------------
    1        1.316   0.788   0.051   2.155
    2        1.316   0.788   0.051   2.155
    3        1.316   0.788   0.051   2.155
    4        1.316   0.788   0.051   2.155
    5        1.472   2.311   0.029   3.812
    6        1.472   2.311   0.029   3.812
    7        1.472   2.311   0.029   3.812
    8        1.472   2.311   0.029   3.812
--------------------------------------------------
tot         11.154  12.393   0.321  23.868



 magnetization (x)

# of ion       s       p       d       tot
------------------------------------------
    1        0.000  -0.000   0.000  -0.000
    2        0.000  -0.000   0.000  -0.000
    3        0.000  -0.000   0.000  -0.000
    4        0.000  -0.000   0.000  -0.000
    5       -0.000   0.000   0.000   0.000
    6       -0.000   0.000   0.000   0.000
    7       -0.000   0.000   0.000   0.000
    8       -0.000   0.000   0.000   0.000
--------------------------------------------------
tot          0.000   0.000   0.000   0.000
 

 total amount of memory used by VASP MPI-rank0   178554. kBytes
=======================================================================

   base      :      30000. kBytes
   nonl-proj :      42223. kBytes
   fftplans  :       2316. kBytes
   grid      :      13054. kBytes
   one-center:        129. kBytes
   wavefun   :      90832. kBytes
 
  
  
 General timing and accounting informations for this job:
 ========================================================
  
                  Total CPU time used (sec):      316.463
                            User time (sec):      314.990
                          System time (sec):        1.473
                         Elapsed time (sec):      325.247
  
                   Maximum memory used (kb):      339652.
                   Average memory used (kb):          N/A
  
                          Minor page faults:       210583
                          Major page faults:           21
                 Voluntary context switches:        81114
