 vasp.6.4.2 20Jul23 (build Oct 12 2023 10:31:02) complex                         
 executed on              LinuxNV date 2025.05.27  15:51:53
 running   32 mpi-ranks, with    1 threads/rank, on    2 nodes
 distrk:  each k-point on   16 cores,    2 groups
 distr:  one band on NCORE=   1 cores,   16 groups


--------------------------------------------------------------------------------------------------------


 INCAR:
   ENCUT = 520.000000
   SIGMA = 0.050000
   EDIFF = 1.00e-06
   ALGO = N
   GGA = PE
   PREC = Accurate
   SYSTEM = 02_SCF
   ICHARG = 0
   ISMEAR = 0
   ISPIN = 2
   ISTART = 1
   KPAR = 2
   LORBIT = 11
   NBANDS = 220
   NELM = 100
   NELMIN = 5
   LASPH = .TRUE.
   LCHARG = .TRUE.
   LWAVE = .TRUE.
   LREAL = .FALSE.

 POTCAR:    PAW_PBE Ge 05Jan2001                  
 POTCAR:    PAW_PBE Se 06Sep2000                  
 -----------------------------------------------------------------------------
|                                                                             |
|           W    W    AA    RRRRR   N    N  II  N    N   GGGG   !!!           |
|           W    W   A  A   R    R  NN   N  II  NN   N  G    G  !!!           |
|           W    W  A    A  R    R  N N  N  II  N N  N  G       !!!           |
|           W WW W  AAAAAA  RRRRR   N  N N  II  N  N N  G  GGG   !            |
|           WW  WW  A    A  R   R   N   NN  II  N   NN  G    G                |
|           W    W  A    A  R    R  N    N  II  N    N   GGGG   !!!           |
|                                                                             |
|     You use a magnetic or noncollinear calculation, but did not specify     |
|     the initial magnetic moment with the MAGMOM tag. Note that a            |
|     default of 1 will be used for all atoms. This ferromagnetic setup       |
|     may break the symmetry of the crystal, in particular it may rule        |
|     out finding an antiferromagnetic solution. Thence, we recommend         |
|     setting the initial magnetic moment manually or verifying carefully     |
|     that this magnetic setup is desired.                                    |
|                                                                             |
 -----------------------------------------------------------------------------

 POTCAR:    PAW_PBE Ge 05Jan2001                  
   VRHFIN =Ge: s2p2                                                                                 
   LEXCH  = PE                                                                                      
   EATOM  =   104.9960 eV,    7.7170 Ry                                                             
                                                                                                    
   TITEL  = PAW_PBE Ge 05Jan2001                                                                    
   LULTRA =        F    use ultrasoft PP ?                                                          
   IUNSCR =        1    unscreen: 0-lin 1-nonlin 2-no                                               
   RPACOR =    2.170    partial core radius                                                         
   POMASS =   72.610; ZVAL   =    4.000    mass and valenz                                          
   RCORE  =    2.300    outmost cutoff radius                                                       
   RWIGS  =    2.300; RWIGS  =    1.217    wigner-seitz radius (au A)                               
   ENMAX  =  173.807; ENMIN  =  130.355 eV                                                          
   ICORE  =        3    local potential                                                             
   LCOR   =        T    correct aug charges                                                         
   LPAW   =        T    paw PP                                                                      
   EAUG   =  385.843                                                                                
   DEXC   =    0.000                                                                                
   RMAX   =    2.342    core radius for proj-oper                                                   
   RAUG   =    1.300    factor for augmentation sphere                                              
   RDEP   =    2.318    radius for radial grids                                                     
   RDEPT  =    2.103    core radius for aug-charge                                                  
                                                                                                    
   Atomic configuration                                                                             
   10 entries                                                                                       
     n  l   j            E        occ.                                                              
     1  0  0.50    -10959.8463   2.0000                                                             
     2  0  0.50     -1371.6056   2.0000                                                             
     2  1  1.50     -1198.4791   6.0000                                                             
     3  0  0.50      -168.4733   2.0000                                                             
     3  1  1.50      -115.6019   6.0000                                                             
     3  2  2.50       -29.3106  10.0000                                                             
     4  0  0.50       -11.7309   2.0000                                                             
     4  1  0.50        -3.8952   2.0000                                                             
     4  2  1.50        -4.0817   0.0000                                                             
     4  3  2.50        -4.0817   0.0000                                                             
   Description                                                                                      
     l       E           TYP  RCUT    TYP  RCUT                                                     
     0    -11.7309493     23  2.300                                                                 
     0     -7.4578696     23  2.300                                                                 
     1     -3.8952261     23  2.300                                                                 
     1      6.1178114     23  2.300                                                                 
     2     -4.0817478     23  2.300                                                                 
     3     -1.3605826      7  2.300                                                                 
  local pseudopotential read in
  partial core-charges read in
  partial kinetic energy density read in
  atomic valenz-charges read in
  non local Contribution for L=            0  read in
    real space projection operators read in
  non local Contribution for L=            0  read in
    real space projection operators read in
  non local Contribution for L=            1  read in
    real space projection operators read in
  non local Contribution for L=            1  read in
    real space projection operators read in
  non local Contribution for L=            2  read in
    real space projection operators read in
    PAW grid and wavefunctions read in
 
   number of l-projection  operators is LMAX  =            5
   number of lm-projection operators is LMMAX =           13
 
 POTCAR:    PAW_PBE Se 06Sep2000                  
   VRHFIN =Se: s2p4                                                                                 
   LEXCH  = PE                                                                                      
   EATOM  =   257.1286 eV,   18.8984 Ry                                                             
                                                                                                    
   TITEL  = PAW_PBE Se 06Sep2000                                                                    
   LULTRA =        F    use ultrasoft PP ?                                                          
   IUNSCR =        1    unscreen: 0-lin 1-nonlin 2-no                                               
   RPACOR =    1.900    partial core radius                                                         
   POMASS =   78.960; ZVAL   =    6.000    mass and valenz                                          
   RCORE  =    2.100    outmost cutoff radius                                                       
   RWIGS  =    2.200; RWIGS  =    1.164    wigner-seitz radius (au A)                               
   ENMAX  =  211.555; ENMIN  =  158.666 eV                                                          
   ICORE  =        3    local potential                                                             
   LCOR   =        T    correct aug charges                                                         
   LPAW   =        T    paw PP                                                                      
   EAUG   =  446.842                                                                                
   DEXC   =    0.000                                                                                
   RMAX   =    2.147    core radius for proj-oper                                                   
   RAUG   =    1.300    factor for augmentation sphere                                              
   RDEP   =    2.177    radius for radial grids                                                     
   RDEPT  =    1.928    core radius for aug-charge                                                  
                                                                                                    
   Atomic configuration                                                                             
   10 entries                                                                                       
     n  l   j            E        occ.                                                              
     1  0  0.50    -12503.4787   2.0000                                                             
     2  0  0.50     -1606.9547   2.0000                                                             
     2  1  1.50     -1413.3140   6.0000                                                             
     3  0  0.50      -213.4885   2.0000                                                             
     3  1  1.50      -152.9538   6.0000                                                             
     3  2  2.50       -53.1221  10.0000                                                             
     4  0  0.50       -17.2865   2.0000                                                             
     4  1  0.50        -6.5110   4.0000                                                             
     4  2  2.50        -6.8029   0.0000                                                             
     4  3  2.50        -6.8029   0.0000                                                             
   Description                                                                                      
     l       E           TYP  RCUT    TYP  RCUT                                                     
     0    -17.2865377     23  2.100                                                                 
     0    -15.3094411     23  2.100                                                                 
     1     -6.5110275     23  2.100                                                                 
     1     -0.0695192     23  2.100                                                                 
     2     -6.8029130     23  2.100                                                                 
     3     -1.3605826      7  2.100                                                                 
  local pseudopotential read in
  partial core-charges read in
  partial kinetic energy density read in
  atomic valenz-charges read in
  non local Contribution for L=            0  read in
    real space projection operators read in
  non local Contribution for L=            0  read in
    real space projection operators read in
  non local Contribution for L=            1  read in
    real space projection operators read in
  non local Contribution for L=            1  read in
    real space projection operators read in
  non local Contribution for L=            2  read in
    real space projection operators read in
    PAW grid and wavefunctions read in
 
   number of l-projection  operators is LMAX  =            5
   number of lm-projection operators is LMMAX =           13
 
  PAW_PBE Ge 05Jan2001                  :
 energy of atom  1       EATOM= -104.9960
 kinetic energy error for atom=    0.0002 (will be added to EATOM!!)
  PAW_PBE Se 06Sep2000                  :
 energy of atom  2       EATOM= -257.1286
 kinetic energy error for atom=    0.0007 (will be added to EATOM!!)
 
 
 POSCAR: Ge Se
  positions in cartesian coordinates
  No initial velocities read in
 exchange correlation table for  LEXCH =        8
   RHO(1)=    0.500       N(1)  =     2000
   RHO(2)=  100.500       N(2)  =     4000
 


--------------------------------------------------------------------------------------------------------


 ion  position               nearest neighbor table
   1  0.250  0.116  0.044-   3 2.60   3 2.60   4 2.60
   2  0.750  0.616  0.134-   4 2.60   4 2.60   3 2.60
   3  0.750  0.495  0.053-   1 2.60   1 2.60   2 2.60
   4  0.250  0.995  0.126-   2 2.60   2 2.60   1 2.60
 
  LATTYP: Found a simple orthorhombic cell.
 ALAT       =     3.8581001759
 B/A-ratio  =     1.1732653073
 C/A-ratio  =     8.0571200981
  
  Lattice vectors:
  
 A1 = (   3.8581001759,   0.0000000000,   0.0000000000)
 A2 = (   0.0000000000,   4.5265750885,   0.0000000000)
 A3 = (   0.0000000000,   0.0000000000,  31.0851764679)


Analysis of symmetry for initial positions (statically):
=====================================================================
 Subroutine PRICEL returns:
 Original cell was already a primitive cell.
 

 Routine SETGRP: Setting up the symmetry group for a 
 simple orthorhombic supercell.


 Subroutine GETGRP returns: Found  4 space group operations
 (whereof  1 operations were pure point group operations)
 out of a pool of  8 trial point group operations.


The static configuration has the point symmetry C_1 .
 The point group associated with its full space group is C_2v.


Analysis of symmetry for dynamics (positions and initial velocities):
=====================================================================
 Subroutine PRICEL returns:
 Original cell was already a primitive cell.
 

 Routine SETGRP: Setting up the symmetry group for a 
 simple orthorhombic supercell.


 Subroutine GETGRP returns: Found  4 space group operations
 (whereof  1 operations were pure point group operations)
 out of a pool of  8 trial point group operations.


The dynamic configuration has the point symmetry C_1 .
 The point group associated with its full space group is C_2v.


Analysis of structural, dynamic, and magnetic symmetry:
=====================================================================
 Subroutine PRICEL returns:
 Original cell was already a primitive cell.
 

 Routine SETGRP: Setting up the symmetry group for a 
 simple orthorhombic supercell.


 Subroutine GETGRP returns: Found  4 space group operations
 (whereof  1 operations were pure point group operations)
 out of a pool of  8 trial point group operations.


The overall configuration has the point symmetry C_1 .
 The point group associated with its full space group is C_2v.


 Subroutine INISYM returns: Found  4 space group operations
 (whereof  1 operations are pure point group operations),
 and found     1 'primitive' translations


----------------------------------------------------------------------------------------

                                     Primitive cell                                     

  volume of cell :     542.8709

  direct lattice vectors                    reciprocal lattice vectors
     3.858100176  0.000000000  0.000000000     0.259194929  0.000000000  0.000000000
     0.000000000  4.526575088  0.000000000     0.000000000  0.220917577  0.000000000
     0.000000000  0.000000000 31.085176468     0.000000000  0.000000000  0.032169674

  length of vectors
     3.858100176  4.526575088 31.085176468     0.259194929  0.220917577  0.032169674

  position of ions in fractional coordinates (direct lattice)
     0.250000000  0.115641899  0.044055267
     0.750000000  0.615641892  0.134247988
     0.750000000  0.495050967  0.052553063
     0.250000000  0.995051026  0.125750194

  ion indices of the primitive-cell ions
   primitive index   ion index
                 1           1
                 2           2
                 3           3
                 4           4

----------------------------------------------------------------------------------------

 
 
 KPOINTS: KPOINTS created by Atomic Simulation Env

Automatic generation of k-mesh.
 Grid dimensions read from file:
 generate k-points for:    6    6    2

 Generating k-lattice:

  Cartesian coordinates                     Fractional coordinates (reciprocal lattice)
     0.043199155  0.000000000  0.000000000     0.166666667  0.000000000  0.000000000
     0.000000000  0.036819596  0.000000000     0.000000000  0.166666667  0.000000000
     0.000000000  0.000000000  0.016084837     0.000000000  0.000000000  0.500000000

  Length of vectors
     0.043199155  0.036819596  0.016084837

  Shift w.r.t. Gamma in fractional coordinates (k-lattice)
     0.000000000  0.000000000  0.000000000

 
 Subroutine IBZKPT returns following result:
 ===========================================
 
 Found     32 irreducible k-points:
 
 Following reciprocal coordinates:
            Coordinates               Weight
  0.000000  0.000000  0.000000      1.000000
  0.166667  0.000000  0.000000      2.000000
  0.333333  0.000000  0.000000      2.000000
  0.500000  0.000000  0.000000      1.000000
  0.000000  0.166667  0.000000      2.000000
  0.166667  0.166667  0.000000      4.000000
  0.333333  0.166667  0.000000      4.000000
  0.500000  0.166667  0.000000      2.000000
  0.000000  0.333333  0.000000      2.000000
  0.166667  0.333333  0.000000      4.000000
  0.333333  0.333333  0.000000      4.000000
  0.500000  0.333333  0.000000      2.000000
  0.000000  0.500000  0.000000      1.000000
  0.166667  0.500000  0.000000      2.000000
  0.333333  0.500000  0.000000      2.000000
  0.500000  0.500000  0.000000      1.000000
  0.000000  0.000000  0.500000      1.000000
  0.166667  0.000000  0.500000      2.000000
  0.333333  0.000000  0.500000      2.000000
  0.500000  0.000000  0.500000      1.000000
  0.000000  0.166667  0.500000      2.000000
  0.166667  0.166667  0.500000      4.000000
  0.333333  0.166667  0.500000      4.000000
  0.500000  0.166667  0.500000      2.000000
  0.000000  0.333333  0.500000      2.000000
  0.166667  0.333333  0.500000      4.000000
  0.333333  0.333333  0.500000      4.000000
  0.500000  0.333333  0.500000      2.000000
  0.000000  0.500000  0.500000      1.000000
  0.166667  0.500000  0.500000      2.000000
  0.333333  0.500000  0.500000      2.000000
  0.500000  0.500000  0.500000      1.000000
 
 Following cartesian coordinates:
            Coordinates               Weight
  0.000000  0.000000  0.000000      1.000000
  0.043199  0.000000  0.000000      2.000000
  0.086398  0.000000  0.000000      2.000000
  0.129597  0.000000  0.000000      1.000000
  0.000000  0.036820  0.000000      2.000000
  0.043199  0.036820  0.000000      4.000000
  0.086398  0.036820  0.000000      4.000000
  0.129597  0.036820  0.000000      2.000000
  0.000000  0.073639  0.000000      2.000000
  0.043199  0.073639  0.000000      4.000000
  0.086398  0.073639  0.000000      4.000000
  0.129597  0.073639  0.000000      2.000000
  0.000000  0.110459  0.000000      1.000000
  0.043199  0.110459  0.000000      2.000000
  0.086398  0.110459  0.000000      2.000000
  0.129597  0.110459  0.000000      1.000000
  0.000000  0.000000  0.016085      1.000000
  0.043199  0.000000  0.016085      2.000000
  0.086398  0.000000  0.016085      2.000000
  0.129597  0.000000  0.016085      1.000000
  0.000000  0.036820  0.016085      2.000000
  0.043199  0.036820  0.016085      4.000000
  0.086398  0.036820  0.016085      4.000000
  0.129597  0.036820  0.016085      2.000000
  0.000000  0.073639  0.016085      2.000000
  0.043199  0.073639  0.016085      4.000000
  0.086398  0.073639  0.016085      4.000000
  0.129597  0.073639  0.016085      2.000000
  0.000000  0.110459  0.016085      1.000000
  0.043199  0.110459  0.016085      2.000000
  0.086398  0.110459  0.016085      2.000000
  0.129597  0.110459  0.016085      1.000000
 
 -----------------------------------------------------------------------------
|                                                                             |
|           W    W    AA    RRRRR   N    N  II  N    N   GGGG   !!!           |
|           W    W   A  A   R    R  NN   N  II  NN   N  G    G  !!!           |
|           W    W  A    A  R    R  N N  N  II  N N  N  G       !!!           |
|           W WW W  AAAAAA  RRRRR   N  N N  II  N  N N  G  GGG   !            |
|           WW  WW  A    A  R   R   N   NN  II  N   NN  G    G                |
|           W    W  A    A  R    R  N    N  II  N    N   GGGG   !!!           |
|                                                                             |
|     The number of bands has been changed from the values supplied in        |
|     the INCAR file. This is a result of running the parallel version.       |
|     The orbitals not found in the WAVECAR file will be initialized with     |
|     random numbers, which is usually adequate. For correlated               |
|     calculations, however, you should redo the groundstate calculation.     |
|     I found NBANDS = 220. Now, NBANDS = 224.                                |
|                                                                             |
 -----------------------------------------------------------------------------



--------------------------------------------------------------------------------------------------------




 Dimension of arrays:
   k-points           NKPTS =     32   k-points in BZ     NKDIM =     32   number of bands    NBANDS=    224
   number of dos      NEDOS =    301   number of ions     NIONS =      4
   non local maximal  LDIM  =      5   non local SUM 2l+1 LMDIM =     13
   total plane-waves  NPLWV = 259200
   max r-space proj   IRMAX =      1   max aug-charges    IRDMAX=  26147
   dimension x,y,z NGX =    30 NGY =   36 NGZ =  240
   dimension x,y,z NGXF=    60 NGYF=   72 NGZF=  480
   support grid    NGXF=    60 NGYF=   72 NGZF=  480
   ions per type =               2   2
   NGX,Y,Z   is equivalent  to a cutoff of  12.93, 13.22, 12.84 a.u.
   NGXF,Y,Z  is equivalent  to a cutoff of  25.85, 26.44, 25.67 a.u.

 SYSTEM =  02_SCF                                  
 POSCAR =  Ge Se                                   

 Startparameter for this run:
   NWRITE =      2    write-flag & timer
   PREC   = accura    normal or accurate (medium, high low for compatibility)
   ISTART =      0    job   : 0-new  1-cont  2-samecut
   ICHARG =      2    charge: 1-file 2-atom 10-const
   ISPIN  =      2    spin polarized calculation?
   LNONCOLLINEAR =      F non collinear calculations
   LSORBIT =      F    spin-orbit coupling
   INIWAV =      1    electr: 0-lowe 1-rand  2-diag
   LASPH  =      T    aspherical Exc in radial PAW
 Electronic Relaxation 1
   ENCUT  =  520.0 eV  38.22 Ry    6.18 a.u.   7.17  8.42 57.80*2*pi/ulx,y,z
   ENINI  =  520.0     initial cutoff
   ENAUG  =  446.8 eV  augmentation charge cutoff
   NELM   =    100;   NELMIN=  5; NELMDL=  0     # of ELM steps 
   EDIFF  = 0.1E-05   stopping-criterion for ELM
   LREAL  =      F    real-space projection
   NLSPLINE    = F    spline interpolate recip. space projectors
   LCOMPAT=      F    compatible to vasp.4.4
   GGA_COMPAT  = T    GGA compatible to vasp.4.4-vasp.4.6
   LMAXPAW     = -100 max onsite density
   LMAXMIX     =    2 max onsite mixed and CHGCAR
   VOSKOWN=      0    Vosko Wilk Nusair interpolation
   ROPT   =    0.00000   0.00000
 Ionic relaxation
   EDIFFG = 0.1E-04   stopping-criterion for IOM
   NSW    =      0    number of steps for IOM
   NBLOCK =      1;   KBLOCK =      1    inner block; outer block 
   IBRION =     -1    ionic relax: 0-MD 1-quasi-New 2-CG
   NFREE  =      0    steps in history (QN), initial steepest desc. (CG)
   ISIF   =      2    stress and relaxation
   IWAVPR =     10    prediction:  0-non 1-charg 2-wave 3-comb
   ISYM   =      2    0-nonsym 1-usesym 2-fastsym
   LCORR  =      T    Harris-Foulkes like correction to forces

   POTIM  = 0.5000    time-step for ionic-motion
   TEIN   =    0.0    initial temperature
   TEBEG  =    0.0;   TEEND  =   0.0 temperature during run
   SMASS  =  -3.00    Nose mass-parameter (am)
   estimated Nose-frequenzy (Omega)   =  0.10E-29 period in steps = 0.13E+47 mass=  -0.340E-27a.u.
   SCALEE = 1.0000    scale energy and forces
   NPACO  =    256;   APACO  = 10.0  distance and # of slots for P.C.
   PSTRESS=    0.0 pullay stress

  Mass of Ions in am
   POMASS =  72.61 78.96
  Ionic Valenz
   ZVAL   =   4.00  6.00
  Atomic Wigner-Seitz radii
   RWIGS  =  -1.00 -1.00
  virtual crystal weights 
   VCA    =   1.00  1.00
   NELECT =      20.0000    total number of electrons
   NUPDOWN=      -1.0000    fix difference up-down

 DOS related values:
   EMIN   =  10.00;   EMAX   =-10.00  energy-range for DOS
   EFERMI =   0.00;   METHOD = LEGACY      
   ISMEAR =     0;   SIGMA  =   0.05  broadening in eV -4-tet -1-fermi 0-gaus

 Electronic relaxation 2 (details)
   IALGO  =     38    algorithm
   LDIAG  =      T    sub-space diagonalisation (order eigenvalues)
   LSUBROT=      F    optimize rotation matrix (better conditioning)
   TURBO    =      0    0=normal 1=particle mesh
   IRESTART =      0    0=no restart 2=restart with 2 vectors
   NREBOOT  =      0    no. of reboots
   NMIN     =      0    reboot dimension
   EREF     =   0.00    reference energy to select bands
   IMIX   =      4    mixing-type and parameters
     AMIX     =   0.40;   BMIX     =  1.00
     AMIX_MAG =   1.60;   BMIX_MAG =  1.00
     AMIN     =   0.10
     WC   =   100.;   INIMIX=   1;  MIXPRE=   1;  MAXMIX= -45

 Intra band minimization:
   WEIMIN = 0.0000     energy-eigenvalue tresh-hold
   EBREAK =  0.11E-08  absolut break condition
   DEPER  =   0.30     relativ break condition  

   TIME   =   0.40     timestep for ELM

  volume/ion in A,a.u.               =     135.72       915.87
  Fermi-wavevector in a.u.,A,eV,Ry     =   0.544736  1.029402  4.037354  0.296737
  Thomas-Fermi vector in A             =   1.573790
 
 Write flags
   LWAVE        =      T    write WAVECAR
   LDOWNSAMPLE  =      F    k-point downsampling of WAVECAR
   LCHARG       =      T    write CHGCAR
   LVTOT        =      F    write LOCPOT, total local potential
   LVHAR        =      F    write LOCPOT, Hartree potential only
   LELF         =      F    write electronic localiz. function (ELF)
   LORBIT       =     11    0 simple, 1 ext, 2 COOP (PROOUT), +10 PAW based schemes


 Dipole corrections
   LMONO  =      F    monopole corrections only (constant potential shift)
   LDIPOL =      F    correct potential (dipole corrections)
   IDIPOL =      0    1-x, 2-y, 3-z, 4-all directions 
   EPSILON=  1.0000000 bulk dielectric constant

 Exchange correlation treatment:
   GGA     =    PE    GGA type
   LEXCH   =     8    internal setting for exchange type
   LIBXC   =     F    Libxc                    
   VOSKOWN =     0    Vosko Wilk Nusair interpolation
   LHFCALC =     F    Hartree Fock is set to
   LHFONE  =     F    Hartree Fock one center treatment
   AEXX    =    0.0000 exact exchange contribution

 Linear response parameters
   LEPSILON=     F    determine dielectric tensor
   LRPA    =     F    only Hartree local field effects (RPA)
   LNABLA  =     F    use nabla operator in PAW spheres
   LVEL    =     F    velocity operator in full k-point grid
   CSHIFT  =0.1000    complex shift for real part using Kramers Kronig
   OMEGAMAX=  -1.0    maximum frequency
   DEG_THRESHOLD= 0.2000000E-02 threshold for treating states as degnerate
   RTIME   =   -0.100 relaxation time in fs
  (WPLASMAI=    0.000 imaginary part of plasma frequency in eV, 0.658/RTIME)
   DFIELD  = 0.0000000 0.0000000 0.0000000 field for delta impulse in time
 
  Optional k-point grid parameters
   LKPOINTS_OPT  =     F    use optional k-point grid
   KPOINTS_OPT_MODE=     1    mode for optional k-point grid
 
 Orbital magnetization related:
   ORBITALMAG=     F  switch on orbital magnetization
   LCHIMAG   =     F  perturbation theory with respect to B field
   DQ        =  0.001000  dq finite difference perturbation B field
   LLRAUG    =     F  two centre corrections for induced B field
   LBONE     =     F  B-component reconstruction in AE one-centre
   LVGVCALC  =     T  calculate vGv susceptibility
   LVGVAPPL  =     F  apply vGv susceptibility instead of pGv for G=0

 Random number generation:
   RANDOM_GENERATOR = DEFAULT
   PCG_SEED         = not used


--------------------------------------------------------------------------------------------------------


 Static calculation
 charge density and potential will be updated during run
 spin polarized calculation
 Variant of blocked Davidson
 Davidson routine will perform the subspace rotation
 perform sub-space diagonalisation
    after iterative eigenvector-optimisation
 modified Broyden-mixing scheme, WC =      100.0
 initial mixing is a Kerker type mixing with AMIX =  0.4000 and BMIX =      1.0000
 Hartree-type preconditioning will be used
 using additional bands           214
 reciprocal scheme for non local part
 use partial core corrections
 calculate Harris-corrections to forces 
   (improved forces if not selfconsistent)
 use gradient corrections 
 use of overlap-Matrix (Vanderbilt PP)
 Gauss-broadening in eV      SIGMA  =   0.05


--------------------------------------------------------------------------------------------------------


  energy-cutoff  :      520.00
  volume of cell :      542.87
      direct lattice vectors                 reciprocal lattice vectors
     3.858100176  0.000000000  0.000000000     0.259194929  0.000000000  0.000000000
     0.000000000  4.526575088  0.000000000     0.000000000  0.220917577  0.000000000
     0.000000000  0.000000000 31.085176468     0.000000000  0.000000000  0.032169674

  length of vectors
     3.858100176  4.526575088 31.085176468     0.259194929  0.220917577  0.032169674


 
 k-points in units of 2pi/SCALE and weight: KPOINTS created by Atomic Simulation Env
   0.00000000  0.00000000  0.00000000       0.014
   0.04319915  0.00000000  0.00000000       0.028
   0.08639831  0.00000000  0.00000000       0.028
   0.12959746  0.00000000  0.00000000       0.014
   0.00000000  0.03681960  0.00000000       0.028
   0.04319915  0.03681960  0.00000000       0.056
   0.08639831  0.03681960  0.00000000       0.056
   0.12959746  0.03681960  0.00000000       0.028
   0.00000000  0.07363919  0.00000000       0.028
   0.04319915  0.07363919  0.00000000       0.056
   0.08639831  0.07363919  0.00000000       0.056
   0.12959746  0.07363919  0.00000000       0.028
   0.00000000  0.11045879  0.00000000       0.014
   0.04319915  0.11045879  0.00000000       0.028
   0.08639831  0.11045879  0.00000000       0.028
   0.12959746  0.11045879  0.00000000       0.014
   0.00000000  0.00000000  0.01608484       0.014
   0.04319915  0.00000000  0.01608484       0.028
   0.08639831  0.00000000  0.01608484       0.028
   0.12959746  0.00000000  0.01608484       0.014
   0.00000000  0.03681960  0.01608484       0.028
   0.04319915  0.03681960  0.01608484       0.056
   0.08639831  0.03681960  0.01608484       0.056
   0.12959746  0.03681960  0.01608484       0.028
   0.00000000  0.07363919  0.01608484       0.028
   0.04319915  0.07363919  0.01608484       0.056
   0.08639831  0.07363919  0.01608484       0.056
   0.12959746  0.07363919  0.01608484       0.028
   0.00000000  0.11045879  0.01608484       0.014
   0.04319915  0.11045879  0.01608484       0.028
   0.08639831  0.11045879  0.01608484       0.028
   0.12959746  0.11045879  0.01608484       0.014
 
 k-points in reciprocal lattice and weights: KPOINTS created by Atomic Simulation Env
   0.00000000  0.00000000  0.00000000       0.014
   0.16666667  0.00000000  0.00000000       0.028
   0.33333333  0.00000000  0.00000000       0.028
   0.50000000  0.00000000  0.00000000       0.014
   0.00000000  0.16666667  0.00000000       0.028
   0.16666667  0.16666667  0.00000000       0.056
   0.33333333  0.16666667  0.00000000       0.056
   0.50000000  0.16666667  0.00000000       0.028
   0.00000000  0.33333333  0.00000000       0.028
   0.16666667  0.33333333  0.00000000       0.056
   0.33333333  0.33333333  0.00000000       0.056
   0.50000000  0.33333333  0.00000000       0.028
   0.00000000  0.50000000  0.00000000       0.014
   0.16666667  0.50000000  0.00000000       0.028
   0.33333333  0.50000000  0.00000000       0.028
   0.50000000  0.50000000  0.00000000       0.014
   0.00000000  0.00000000  0.50000000       0.014
   0.16666667  0.00000000  0.50000000       0.028
   0.33333333  0.00000000  0.50000000       0.028
   0.50000000  0.00000000  0.50000000       0.014
   0.00000000  0.16666667  0.50000000       0.028
   0.16666667  0.16666667  0.50000000       0.056
   0.33333333  0.16666667  0.50000000       0.056
   0.50000000  0.16666667  0.50000000       0.028
   0.00000000  0.33333333  0.50000000       0.028
   0.16666667  0.33333333  0.50000000       0.056
   0.33333333  0.33333333  0.50000000       0.056
   0.50000000  0.33333333  0.50000000       0.028
   0.00000000  0.50000000  0.50000000       0.014
   0.16666667  0.50000000  0.50000000       0.028
   0.33333333  0.50000000  0.50000000       0.028
   0.50000000  0.50000000  0.50000000       0.014
 
 position of ions in fractional coordinates (direct lattice) 
   0.25000000  0.11564190  0.04405527
   0.75000000  0.61564189  0.13424799
   0.75000000  0.49505097  0.05255306
   0.25000000  0.99505103  0.12575019
 
 position of ions in cartesian coordinates  (Angst):
   0.96452504  0.52346174  1.36946575
   2.89357513  2.78674925  4.17312240
   2.89357513  2.24088537  1.63362125
   0.96452504  4.50417319  3.90896698
 


--------------------------------------------------------------------------------------------------------


 k-point   1 :   0.0000 0.0000 0.0000  plane waves:   14589
 k-point   2 :   0.1667 0.0000 0.0000  plane waves:   14613
 k-point   3 :   0.3333 0.0000 0.0000  plane waves:   14660
 k-point   4 :   0.5000 0.0000 0.0000  plane waves:   14698
 k-point   5 :   0.0000 0.1667 0.0000  plane waves:   14589
 k-point   6 :   0.1667 0.1667 0.0000  plane waves:   14601
 k-point   7 :   0.3333 0.1667 0.0000  plane waves:   14642
 k-point   8 :   0.5000 0.1667 0.0000  plane waves:   14700
 k-point   9 :   0.0000 0.3333 0.0000  plane waves:   14603
 k-point  10 :   0.1667 0.3333 0.0000  plane waves:   14593
 k-point  11 :   0.3333 0.3333 0.0000  plane waves:   14617
 k-point  12 :   0.5000 0.3333 0.0000  plane waves:   14610
 k-point  13 :   0.0000 0.5000 0.0000  plane waves:   14612
 k-point  14 :   0.1667 0.5000 0.0000  plane waves:   14576
 k-point  15 :   0.3333 0.5000 0.0000  plane waves:   14598
 k-point  16 :   0.5000 0.5000 0.0000  plane waves:   14564
 k-point  17 :   0.0000 0.0000 0.5000  plane waves:   14608
 k-point  18 :   0.1667 0.0000 0.5000  plane waves:   14612
 k-point  19 :   0.3333 0.0000 0.5000  plane waves:   14662
 k-point  20 :   0.5000 0.0000 0.5000  plane waves:   14676
 k-point  21 :   0.0000 0.1667 0.5000  plane waves:   14626
 k-point  22 :   0.1667 0.1667 0.5000  plane waves:   14604
 k-point  23 :   0.3333 0.1667 0.5000  plane waves:   14640
 k-point  24 :   0.5000 0.1667 0.5000  plane waves:   14700
 k-point  25 :   0.0000 0.3333 0.5000  plane waves:   14570
 k-point  26 :   0.1667 0.3333 0.5000  plane waves:   14596
 k-point  27 :   0.3333 0.3333 0.5000  plane waves:   14624
 k-point  28 :   0.5000 0.3333 0.5000  plane waves:   14628
 k-point  29 :   0.0000 0.5000 0.5000  plane waves:   14652
 k-point  30 :   0.1667 0.5000 0.5000  plane waves:   14584
 k-point  31 :   0.3333 0.5000 0.5000  plane waves:   14608
 k-point  32 :   0.5000 0.5000 0.5000  plane waves:   14560

 maximum and minimum number of plane-waves per node :     14700    14560

 maximum number of plane-waves:     14700
 maximum index in each direction: 
   IXMAX=    7   IYMAX=    8   IZMAX=   57
   IXMIN=   -7   IYMIN=   -8   IZMIN=  -58


 serial   3D FFT for wavefunctions
 parallel 3D FFT for charge:
    minimum data exchange during FFTs selected (reduces bandwidth)


 total amount of memory used by VASP MPI-rank0   378084. kBytes
=======================================================================

   base      :      30000. kBytes
   nonl-proj :      98810. kBytes
   fftplans  :       5630. kBytes
   grid      :      31866. kBytes
   one-center:         64. kBytes
   wavefun   :     211714. kBytes
 
     INWAV:  cpu time      0.0000: real time      0.0001
 Broyden mixing: mesh for mixing (old mesh)
   NGX = 15   NGY = 17   NGZ =115
  (NGX  = 60   NGY  = 72   NGZ  =480)
  gives a total of  29325 points

 initial charge density was supplied:
 charge density of overlapping atoms calculated
 number of electron      20.0000000 magnetization       4.0000000
 keeping initial charge density in first step


--------------------------------------------------------------------------------------------------------


 Maximum index for augmentation-charges          1848 (set IRDMAX)


--------------------------------------------------------------------------------------------------------


 First call to EWALD:  gamma=   0.217
 Maximum number of real-space cells 5x 5x 1
 Maximum number of reciprocal cells 2x 2x 9

    FEWALD:  cpu time      0.0155: real time      0.0155


--------------------------------------- Ionic step        1  -------------------------------------------




--------------------------------------- Iteration      1(   1)  ---------------------------------------


    POTLOK:  cpu time      0.2886: real time      0.2905
    SETDIJ:  cpu time      1.1277: real time      1.1298
     EDDAV:  cpu time     33.1076: real time     33.4235
       DOS:  cpu time      0.0025: real time      0.0025
    --------------------------------------------
      LOOP:  cpu time     34.5265: real time     34.8463

 eigenvalue-minimisations  : 28672
 total energy-change (2. order) : 0.9665693E+02  (-0.3650460E+03)
 number of electron      20.0000000 magnetization       4.0000000
 augmentation part       20.0000000 magnetization       4.0000000

 Free energy of the ion-electron system (eV)
  ---------------------------------------------------
  alpha Z        PSCENC =         7.80316522
  Ewald energy   TEWEN  =      3222.70414479
  -Hartree energ DENC   =     -3817.20554098
  -exchange      EXHF   =         0.00000000
  -V(xc)+E(xc)   XCENC  =       -17.01245696
  PAW double counting   =       596.57894437     -539.99618860
  entropy T*S    EENTRO =        -0.00125250
  eigenvalues    EBANDS =       -80.46119305
  atomic energy  EATOM  =       724.24730435
  Solvation  Ediel_sol  =         0.00000000
  ---------------------------------------------------
  free energy    TOTEN  =        96.65692665 eV

  energy without entropy =       96.65817914  energy(sigma->0) =       96.65755289


--------------------------------------------------------------------------------------------------------




--------------------------------------- Iteration      1(   2)  ---------------------------------------


     EDDAV:  cpu time     38.1014: real time     38.4477
       DOS:  cpu time      0.0020: real time      0.0020
    --------------------------------------------
      LOOP:  cpu time     38.1034: real time     38.4497

 eigenvalue-minimisations  : 34416
 total energy-change (2. order) :-0.1065095E+03  (-0.9651802E+02)
 number of electron      20.0000000 magnetization       4.0000000
 augmentation part       20.0000000 magnetization       4.0000000

 Free energy of the ion-electron system (eV)
  ---------------------------------------------------
  alpha Z        PSCENC =         7.80316522
  Ewald energy   TEWEN  =      3222.70414479
  -Hartree energ DENC   =     -3817.20554098
  -exchange      EXHF   =         0.00000000
  -V(xc)+E(xc)   XCENC  =       -17.01245696
  PAW double counting   =       596.57894437     -539.99618860
  entropy T*S    EENTRO =        -0.00000000
  eigenvalues    EBANDS =      -186.97193640
  atomic energy  EATOM  =       724.24730435
  Solvation  Ediel_sol  =         0.00000000
  ---------------------------------------------------
  free energy    TOTEN  =        -9.85256421 eV

  energy without entropy =       -9.85256421  energy(sigma->0) =       -9.85256421


--------------------------------------------------------------------------------------------------------




--------------------------------------- Iteration      1(   3)  ---------------------------------------


     EDDAV:  cpu time     37.9300: real time     38.3304
       DOS:  cpu time      0.0019: real time      0.0019
    --------------------------------------------
      LOOP:  cpu time     37.9320: real time     38.3324

 eigenvalue-minimisations  : 34496
 total energy-change (2. order) :-0.6337576E+01  (-0.6259278E+01)
 number of electron      20.0000000 magnetization       4.0000000
 augmentation part       20.0000000 magnetization       4.0000000

 Free energy of the ion-electron system (eV)
  ---------------------------------------------------
  alpha Z        PSCENC =         7.80316522
  Ewald energy   TEWEN  =      3222.70414479
  -Hartree energ DENC   =     -3817.20554098
  -exchange      EXHF   =         0.00000000
  -V(xc)+E(xc)   XCENC  =       -17.01245696
  PAW double counting   =       596.57894437     -539.99618860
  entropy T*S    EENTRO =        -0.00000000
  eigenvalues    EBANDS =      -193.30951274
  atomic energy  EATOM  =       724.24730435
  Solvation  Ediel_sol  =         0.00000000
  ---------------------------------------------------
  free energy    TOTEN  =       -16.19014055 eV

  energy without entropy =      -16.19014055  energy(sigma->0) =      -16.19014055


--------------------------------------------------------------------------------------------------------




--------------------------------------- Iteration      1(   4)  ---------------------------------------


     EDDAV:  cpu time     37.2605: real time     37.6139
       DOS:  cpu time      0.0020: real time      0.0020
    --------------------------------------------
      LOOP:  cpu time     37.2625: real time     37.6159

 eigenvalue-minimisations  : 33536
 total energy-change (2. order) :-0.4792205E-01  (-0.4791120E-01)
 number of electron      20.0000000 magnetization       4.0000000
 augmentation part       20.0000000 magnetization       4.0000000

 Free energy of the ion-electron system (eV)
  ---------------------------------------------------
  alpha Z        PSCENC =         7.80316522
  Ewald energy   TEWEN  =      3222.70414479
  -Hartree energ DENC   =     -3817.20554098
  -exchange      EXHF   =         0.00000000
  -V(xc)+E(xc)   XCENC  =       -17.01245696
  PAW double counting   =       596.57894437     -539.99618860
  entropy T*S    EENTRO =        -0.00000000
  eigenvalues    EBANDS =      -193.35743479
  atomic energy  EATOM  =       724.24730435
  Solvation  Ediel_sol  =         0.00000000
  ---------------------------------------------------
  free energy    TOTEN  =       -16.23806260 eV

  energy without entropy =      -16.23806260  energy(sigma->0) =      -16.23806260


--------------------------------------------------------------------------------------------------------




--------------------------------------- Iteration      1(   5)  ---------------------------------------


     EDDAV:  cpu time     37.0328: real time     37.3464
       DOS:  cpu time      0.0020: real time      0.0020
    CHARGE:  cpu time      0.3046: real time      0.3062
    MIXING:  cpu time      0.0120: real time      0.0122
    --------------------------------------------
      LOOP:  cpu time     37.3515: real time     37.6667

 eigenvalue-minimisations  : 33296
 total energy-change (2. order) :-0.3087650E-03  (-0.3087556E-03)
 number of electron      20.0000001 magnetization       3.7487868
 augmentation part       -3.7328565 magnetization       3.7575318

 Broyden mixing:
  rms(total) = 0.68411E+00    rms(broyden)= 0.68411E+00
  rms(prec ) = 0.69157E+00
  weight for this iteration     100.00

 Free energy of the ion-electron system (eV)
  ---------------------------------------------------
  alpha Z        PSCENC =         7.80316522
  Ewald energy   TEWEN  =      3222.70414479
  -Hartree energ DENC   =     -3817.20554098
  -exchange      EXHF   =         0.00000000
  -V(xc)+E(xc)   XCENC  =       -17.01245696
  PAW double counting   =       596.57894437     -539.99618860
  entropy T*S    EENTRO =        -0.00000000
  eigenvalues    EBANDS =      -193.35774355
  atomic energy  EATOM  =       724.24730435
  Solvation  Ediel_sol  =         0.00000000
  ---------------------------------------------------
  free energy    TOTEN  =       -16.23837136 eV

  energy without entropy =      -16.23837136  energy(sigma->0) =      -16.23837136


--------------------------------------------------------------------------------------------------------




--------------------------------------- Iteration      1(   6)  ---------------------------------------


    POTLOK:  cpu time      0.2831: real time      0.2846
    SETDIJ:  cpu time      1.1084: real time      1.1105
     EDDAV:  cpu time     35.9459: real time     36.2894
       DOS:  cpu time      0.0019: real time      0.0020
    CHARGE:  cpu time      0.2988: real time      0.3007
    MIXING:  cpu time      0.0113: real time      0.0114
    --------------------------------------------
      LOOP:  cpu time     37.6495: real time     37.9986

 eigenvalue-minimisations  : 31968
 total energy-change (2. order) : 0.4248214E+01  (-0.4257148E+00)
 number of electron      20.0000001 magnetization       3.4364066
 augmentation part       -3.7336703 magnetization       3.5455822

 Broyden mixing:
  rms(total) = 0.44923E+00    rms(broyden)= 0.44923E+00
  rms(prec ) = 0.45362E+00
  weight for this iteration     100.00

 eigenvalues of (default mixing * dielectric matrix)
  average eigenvalue GAMMA=   1.0473
  1.0473

 Free energy of the ion-electron system (eV)
  ---------------------------------------------------
  alpha Z        PSCENC =         7.80316522
  Ewald energy   TEWEN  =      3222.70414479
  -Hartree energ DENC   =     -3823.73156400
  -exchange      EXHF   =         0.00000000
  -V(xc)+E(xc)   XCENC  =       -13.64571883
  PAW double counting   =       725.23768400     -668.86393503
  entropy T*S    EENTRO =        -0.00000000
  eigenvalues    EBANDS =      -185.74123779
  atomic energy  EATOM  =       724.24730435
  Solvation  Ediel_sol  =         0.00000000
  ---------------------------------------------------
  free energy    TOTEN  =       -11.99015729 eV

  energy without entropy =      -11.99015729  energy(sigma->0) =      -11.99015729


--------------------------------------------------------------------------------------------------------




--------------------------------------- Iteration      1(   7)  ---------------------------------------


    POTLOK:  cpu time      0.2748: real time      0.2761
    SETDIJ:  cpu time      1.1180: real time      1.1204
     EDDAV:  cpu time     36.0253: real time     36.3701
       DOS:  cpu time      0.0020: real time      0.0020
    CHARGE:  cpu time      0.2946: real time      0.2963
    MIXING:  cpu time      0.0110: real time      0.0110
    --------------------------------------------
      LOOP:  cpu time     37.7257: real time     38.0760

 eigenvalue-minimisations  : 32096
 total energy-change (2. order) : 0.6450204E+00  (-0.5398214E-01)
 number of electron      20.0000001 magnetization       2.9776999
 augmentation part       -3.7226362 magnetization       3.0934182

 Broyden mixing:
  rms(total) = 0.30954E+00    rms(broyden)= 0.30954E+00
  rms(prec ) = 0.31223E+00
  weight for this iteration     100.00

 eigenvalues of (default mixing * dielectric matrix)
  average eigenvalue GAMMA=   1.3913
  0.8516  1.9309

 Free energy of the ion-electron system (eV)
  ---------------------------------------------------
  alpha Z        PSCENC =         7.80316522
  Ewald energy   TEWEN  =      3222.70414479
  -Hartree energ DENC   =     -3831.07987532
  -exchange      EXHF   =         0.00000000
  -V(xc)+E(xc)   XCENC  =       -12.98405563
  PAW double counting   =       854.18420846     -797.93610983
  entropy T*S    EENTRO =        -0.00000000
  eigenvalues    EBANDS =      -178.28391896
  atomic energy  EATOM  =       724.24730435
  Solvation  Ediel_sol  =         0.00000000
  ---------------------------------------------------
  free energy    TOTEN  =       -11.34513693 eV

  energy without entropy =      -11.34513693  energy(sigma->0) =      -11.34513693


--------------------------------------------------------------------------------------------------------




--------------------------------------- Iteration      1(   8)  ---------------------------------------


    POTLOK:  cpu time      0.2802: real time      0.2818
    SETDIJ:  cpu time      1.1124: real time      1.1147
     EDDAV:  cpu time     36.7484: real time     37.0837
       DOS:  cpu time      0.0020: real time      0.0020
    CHARGE:  cpu time      0.2976: real time      0.2990
    MIXING:  cpu time      0.0110: real time      0.0110
    --------------------------------------------
      LOOP:  cpu time     38.4516: real time     38.7922

 eigenvalue-minimisations  : 33072
 total energy-change (2. order) :-0.4130940E+00  (-0.1528119E-01)
 number of electron      20.0000001 magnetization       2.6832297
 augmentation part       -3.7081307 magnetization       2.8001370

 Broyden mixing:
  rms(total) = 0.20926E+00    rms(broyden)= 0.20926E+00
  rms(prec ) = 0.21015E+00
  weight for this iteration     100.00

 eigenvalues of (default mixing * dielectric matrix)
  average eigenvalue GAMMA=   1.4361
  2.5737  1.0453  0.6893

 Free energy of the ion-electron system (eV)
  ---------------------------------------------------
  alpha Z        PSCENC =         7.80316522
  Ewald energy   TEWEN  =      3222.70414479
  -Hartree energ DENC   =     -3839.46657843
  -exchange      EXHF   =         0.00000000
  -V(xc)+E(xc)   XCENC  =       -13.12932247
  PAW double counting   =       979.43172637     -923.24986537
  entropy T*S    EENTRO =        -0.00000000
  eigenvalues    EBANDS =      -170.09880538
  atomic energy  EATOM  =       724.24730435
  Solvation  Ediel_sol  =         0.00000000
  ---------------------------------------------------
  free energy    TOTEN  =       -11.75823092 eV

  energy without entropy =      -11.75823092  energy(sigma->0) =      -11.75823092


--------------------------------------------------------------------------------------------------------




--------------------------------------- Iteration      1(   9)  ---------------------------------------


    POTLOK:  cpu time      0.2729: real time      0.2753
    SETDIJ:  cpu time      1.1088: real time      1.1109
     EDDAV:  cpu time     35.7959: real time     36.1449
       DOS:  cpu time      0.0020: real time      0.0020
    CHARGE:  cpu time      0.2940: real time      0.2958
    MIXING:  cpu time      0.0110: real time      0.0110
    --------------------------------------------
      LOOP:  cpu time     37.4845: real time     37.8399

 eigenvalue-minimisations  : 31888
 total energy-change (2. order) :-0.9169807E+00  (-0.9659593E-02)
 number of electron      20.0000001 magnetization       2.1441150
 augmentation part       -3.6964763 magnetization       2.2449806

 Broyden mixing:
  rms(total) = 0.17568E+00    rms(broyden)= 0.17568E+00
  rms(prec ) = 0.17617E+00
  weight for this iteration     100.00

 eigenvalues of (default mixing * dielectric matrix)
  average eigenvalue GAMMA=   1.4663
  2.6344  1.6771  0.9004  0.6532

 Free energy of the ion-electron system (eV)
  ---------------------------------------------------
  alpha Z        PSCENC =         7.80316522
  Ewald energy   TEWEN  =      3222.70414479
  -Hartree energ DENC   =     -3842.80442697
  -exchange      EXHF   =         0.00000000
  -V(xc)+E(xc)   XCENC  =       -13.66644163
  PAW double counting   =      1000.55374710     -944.39998145
  entropy T*S    EENTRO =        -0.00000000
  eigenvalues    EBANDS =      -167.11272303
  atomic energy  EATOM  =       724.24730435
  Solvation  Ediel_sol  =         0.00000000
  ---------------------------------------------------
  free energy    TOTEN  =       -12.67521162 eV

  energy without entropy =      -12.67521162  energy(sigma->0) =      -12.67521162


--------------------------------------------------------------------------------------------------------




--------------------------------------- Iteration      1(  10)  ---------------------------------------


    POTLOK:  cpu time      0.2798: real time      0.2817
    SETDIJ:  cpu time      1.1043: real time      1.1065
     EDDAV:  cpu time     35.7673: real time     36.0979
       DOS:  cpu time      0.0020: real time      0.0020
    CHARGE:  cpu time      0.2932: real time      0.2948
    MIXING:  cpu time      0.0110: real time      0.0111
    --------------------------------------------
      LOOP:  cpu time     37.4576: real time     37.7940

 eigenvalue-minimisations  : 31904
 total energy-change (2. order) :-0.1752065E+01  (-0.4244561E-01)
 number of electron      20.0000001 magnetization       1.4745379
 augmentation part       -3.6823642 magnetization       1.5395935

 Broyden mixing:
  rms(total) = 0.12750E+00    rms(broyden)= 0.12750E+00
  rms(prec ) = 0.12797E+00
  weight for this iteration     100.00

 eigenvalues of (default mixing * dielectric matrix)
  average eigenvalue GAMMA=   1.8534
  4.2293  2.5815  1.0174  0.8119  0.6269

 Free energy of the ion-electron system (eV)
  ---------------------------------------------------
  alpha Z        PSCENC =         7.80316522
  Ewald energy   TEWEN  =      3222.70414479
  -Hartree energ DENC   =     -3846.06136227
  -exchange      EXHF   =         0.00000000
  -V(xc)+E(xc)   XCENC  =       -14.74925264
  PAW double counting   =       983.63357712     -927.44629172
  entropy T*S    EENTRO =        -0.00000000
  eigenvalues    EBANDS =      -164.55856190
  atomic energy  EATOM  =       724.24730435
  Solvation  Ediel_sol  =         0.00000000
  ---------------------------------------------------
  free energy    TOTEN  =       -14.42727705 eV

  energy without entropy =      -14.42727705  energy(sigma->0) =      -14.42727705


--------------------------------------------------------------------------------------------------------




--------------------------------------- Iteration      1(  11)  ---------------------------------------


    POTLOK:  cpu time      0.2721: real time      0.2736
    SETDIJ:  cpu time      1.1040: real time      1.1064
     EDDAV:  cpu time     36.3410: real time     36.6573
       DOS:  cpu time      0.0020: real time      0.0020
    CHARGE:  cpu time      0.2950: real time      0.2968
    MIXING:  cpu time      0.0114: real time      0.0114
    --------------------------------------------
      LOOP:  cpu time     38.0255: real time     38.3474

 eigenvalue-minimisations  : 32592
 total energy-change (2. order) :-0.1497551E+01  (-0.3634905E-01)
 number of electron      20.0000001 magnetization       1.1347668
 augmentation part       -3.6693234 magnetization       1.1645546

 Broyden mixing:
  rms(total) = 0.83164E-01    rms(broyden)= 0.83164E-01
  rms(prec ) = 0.84728E-01
  weight for this iteration     100.00

 eigenvalues of (default mixing * dielectric matrix)
  average eigenvalue GAMMA=   2.0149
  5.8928  2.6169  1.1939  1.0044  0.7579  0.6233

 Free energy of the ion-electron system (eV)
  ---------------------------------------------------
  alpha Z        PSCENC =         7.80316522
  Ewald energy   TEWEN  =      3222.70414479
  -Hartree energ DENC   =     -3848.41499589
  -exchange      EXHF   =         0.00000000
  -V(xc)+E(xc)   XCENC  =       -15.68165026
  PAW double counting   =       962.02886259     -905.81775741
  entropy T*S    EENTRO =        -0.00000000
  eigenvalues    EBANDS =      -162.79390149
  atomic energy  EATOM  =       724.24730435
  Solvation  Ediel_sol  =         0.00000000
  ---------------------------------------------------
  free energy    TOTEN  =       -15.92482811 eV

  energy without entropy =      -15.92482811  energy(sigma->0) =      -15.92482811


--------------------------------------------------------------------------------------------------------




--------------------------------------- Iteration      1(  12)  ---------------------------------------


    POTLOK:  cpu time      0.2781: real time      0.2802
    SETDIJ:  cpu time      1.1057: real time      1.1079
     EDDAV:  cpu time     36.2925: real time     36.6299
       DOS:  cpu time      0.0020: real time      0.0020
    CHARGE:  cpu time      0.2914: real time      0.2932
    MIXING:  cpu time      0.0114: real time      0.0114
    --------------------------------------------
      LOOP:  cpu time     37.9811: real time     38.3247

 eigenvalue-minimisations  : 32448
 total energy-change (2. order) :-0.3833054E+00  (-0.5618239E-02)
 number of electron      20.0000001 magnetization       0.7899602
 augmentation part       -3.6669893 magnetization       0.8036043

 Broyden mixing:
  rms(total) = 0.61679E-01    rms(broyden)= 0.61679E-01
  rms(prec ) = 0.63316E-01
  weight for this iteration     100.00

 eigenvalues of (default mixing * dielectric matrix)
  average eigenvalue GAMMA=   2.1536
  7.3097  2.6650  1.8382  1.0540  0.8506  0.7325  0.6253

 Free energy of the ion-electron system (eV)
  ---------------------------------------------------
  alpha Z        PSCENC =         7.80316522
  Ewald energy   TEWEN  =      3222.70414479
  -Hartree energ DENC   =     -3847.31828916
  -exchange      EXHF   =         0.00000000
  -V(xc)+E(xc)   XCENC  =       -15.95441293
  PAW double counting   =       953.63154289     -897.41397676
  entropy T*S    EENTRO =        -0.00000000
  eigenvalues    EBANDS =      -164.00761192
  atomic energy  EATOM  =       724.24730435
  Solvation  Ediel_sol  =         0.00000000
  ---------------------------------------------------
  free energy    TOTEN  =       -16.30813352 eV

  energy without entropy =      -16.30813352  energy(sigma->0) =      -16.30813352


--------------------------------------------------------------------------------------------------------




--------------------------------------- Iteration      1(  13)  ---------------------------------------


    POTLOK:  cpu time      0.2699: real time      0.2717
    SETDIJ:  cpu time      1.1052: real time      1.1076
     EDDAV:  cpu time     35.7026: real time     36.0272
       DOS:  cpu time      0.0020: real time      0.0020
    CHARGE:  cpu time      0.2920: real time      0.2937
    MIXING:  cpu time      0.0118: real time      0.0119
    --------------------------------------------
      LOOP:  cpu time     37.3835: real time     37.7139

 eigenvalue-minimisations  : 31808
 total energy-change (2. order) :-0.3519629E-01  (-0.2849089E-02)
 number of electron      20.0000001 magnetization       0.5948822
 augmentation part       -3.6710412 magnetization       0.5999540

 Broyden mixing:
  rms(total) = 0.42028E-01    rms(broyden)= 0.42028E-01
  rms(prec ) = 0.43033E-01
  weight for this iteration     100.00

 eigenvalues of (default mixing * dielectric matrix)
  average eigenvalue GAMMA=   2.2627
  8.7395  2.7384  2.4912  1.1041  0.9971  0.7557  0.6377  0.6377

 Free energy of the ion-electron system (eV)
  ---------------------------------------------------
  alpha Z        PSCENC =         7.80316522
  Ewald energy   TEWEN  =      3222.70414479
  -Hartree energ DENC   =     -3844.67843830
  -exchange      EXHF   =         0.00000000
  -V(xc)+E(xc)   XCENC  =       -16.01246417
  PAW double counting   =       950.21211628     -893.99175339
  entropy T*S    EENTRO =        -0.00000000
  eigenvalues    EBANDS =      -166.62740458
  atomic energy  EATOM  =       724.24730435
  Solvation  Ediel_sol  =         0.00000000
  ---------------------------------------------------
  free energy    TOTEN  =       -16.34332981 eV

  energy without entropy =      -16.34332981  energy(sigma->0) =      -16.34332981


--------------------------------------------------------------------------------------------------------




--------------------------------------- Iteration      1(  14)  ---------------------------------------


    POTLOK:  cpu time      0.2738: real time      0.2754
    SETDIJ:  cpu time      1.1048: real time      1.1070
     EDDAV:  cpu time     35.3653: real time     35.6773
       DOS:  cpu time      0.0020: real time      0.0020
    CHARGE:  cpu time      0.2942: real time      0.2955
    MIXING:  cpu time      0.0116: real time      0.0117
    --------------------------------------------
      LOOP:  cpu time     37.0517: real time     37.3689

 eigenvalue-minimisations  : 31504
 total energy-change (2. order) :-0.2116755E-01  (-0.5608239E-03)
 number of electron      20.0000001 magnetization       0.4433548
 augmentation part       -3.6731072 magnetization       0.4461603

 Broyden mixing:
  rms(total) = 0.30623E-01    rms(broyden)= 0.30623E-01
  rms(prec ) = 0.31495E-01
  weight for this iteration     100.00

 eigenvalues of (default mixing * dielectric matrix)
  average eigenvalue GAMMA=   2.3847
 10.0539  3.3737  2.7012  1.4157  1.0521  0.8631  0.7504  0.6261  0.6261

 Free energy of the ion-electron system (eV)
  ---------------------------------------------------
  alpha Z        PSCENC =         7.80316522
  Ewald energy   TEWEN  =      3222.70414479
  -Hartree energ DENC   =     -3843.04015163
  -exchange      EXHF   =         0.00000000
  -V(xc)+E(xc)   XCENC  =       -16.05855301
  PAW double counting   =       952.33480131     -896.11637533
  entropy T*S    EENTRO =        -0.00000000
  eigenvalues    EBANDS =      -168.23883305
  atomic energy  EATOM  =       724.24730435
  Solvation  Ediel_sol  =         0.00000000
  ---------------------------------------------------
  free energy    TOTEN  =       -16.36449735 eV

  energy without entropy =      -16.36449735  energy(sigma->0) =      -16.36449735


--------------------------------------------------------------------------------------------------------




--------------------------------------- Iteration      1(  15)  ---------------------------------------


    POTLOK:  cpu time      0.2707: real time      0.2721
    SETDIJ:  cpu time      1.1024: real time      1.1047
     EDDAV:  cpu time     35.4928: real time     35.8085
       DOS:  cpu time      0.0021: real time      0.0021
    CHARGE:  cpu time      0.2927: real time      0.2949
    MIXING:  cpu time      0.0118: real time      0.0119
    --------------------------------------------
      LOOP:  cpu time     37.1725: real time     37.4943

 eigenvalue-minimisations  : 31472
 total energy-change (2. order) :-0.1601410E+00  (-0.1883192E-03)
 number of electron      20.0000001 magnetization       0.2932903
 augmentation part       -3.6729622 magnetization       0.2951019

 Broyden mixing:
  rms(total) = 0.22801E-01    rms(broyden)= 0.22801E-01
  rms(prec ) = 0.23441E-01
  weight for this iteration     100.00

 eigenvalues of (default mixing * dielectric matrix)
  average eigenvalue GAMMA=   2.4573
 11.0572  3.9499  2.6524  1.9334  1.0881  1.0881  0.8002  0.7580  0.6230  0.6230

 Free energy of the ion-electron system (eV)
  ---------------------------------------------------
  alpha Z        PSCENC =         7.80316522
  Ewald energy   TEWEN  =      3222.70414479
  -Hartree energ DENC   =     -3841.56852603
  -exchange      EXHF   =         0.00000000
  -V(xc)+E(xc)   XCENC  =       -16.23747681
  PAW double counting   =       954.87934317     -898.66423459
  entropy T*S    EENTRO =        -0.00000000
  eigenvalues    EBANDS =      -169.68835849
  atomic energy  EATOM  =       724.24730435
  Solvation  Ediel_sol  =         0.00000000
  ---------------------------------------------------
  free energy    TOTEN  =       -16.52463839 eV

  energy without entropy =      -16.52463839  energy(sigma->0) =      -16.52463839


--------------------------------------------------------------------------------------------------------




--------------------------------------- Iteration      1(  16)  ---------------------------------------


    POTLOK:  cpu time      0.2719: real time      0.2741
    SETDIJ:  cpu time      1.1069: real time      1.1095
     EDDAV:  cpu time     35.6675: real time     36.0080
       DOS:  cpu time      0.0021: real time      0.0021
    CHARGE:  cpu time      0.2912: real time      0.2934
    MIXING:  cpu time      0.0120: real time      0.0120
    --------------------------------------------
      LOOP:  cpu time     37.3516: real time     37.6991

 eigenvalue-minimisations  : 31696
 total energy-change (2. order) :-0.1545813E+00  (-0.1314850E-03)
 number of electron      20.0000001 magnetization       0.2056313
 augmentation part       -3.6728362 magnetization       0.2061053

 Broyden mixing:
  rms(total) = 0.16515E-01    rms(broyden)= 0.16515E-01
  rms(prec ) = 0.16853E-01
  weight for this iteration     100.00

 eigenvalues of (default mixing * dielectric matrix)
  average eigenvalue GAMMA=   2.5043
 11.8306  4.4436  2.6288  2.6288  1.3009  1.0502  0.9343  0.7755  0.7109  0.6217
  0.6217

 Free energy of the ion-electron system (eV)
  ---------------------------------------------------
  alpha Z        PSCENC =         7.80316522
  Ewald energy   TEWEN  =      3222.70414479
  -Hartree energ DENC   =     -3839.90524739
  -exchange      EXHF   =         0.00000000
  -V(xc)+E(xc)   XCENC  =       -16.41159462
  PAW double counting   =       954.92320780     -898.70914006
  entropy T*S    EENTRO =        -0.00000000
  eigenvalues    EBANDS =      -171.33105978
  atomic energy  EATOM  =       724.24730435
  Solvation  Ediel_sol  =         0.00000000
  ---------------------------------------------------
  free energy    TOTEN  =       -16.67921969 eV

  energy without entropy =      -16.67921969  energy(sigma->0) =      -16.67921969


--------------------------------------------------------------------------------------------------------




--------------------------------------- Iteration      1(  17)  ---------------------------------------


    POTLOK:  cpu time      0.2681: real time      0.2698
    SETDIJ:  cpu time      1.1030: real time      1.1054
     EDDAV:  cpu time     36.1808: real time     36.5403
       DOS:  cpu time      0.0020: real time      0.0020
    CHARGE:  cpu time      0.2940: real time      0.2956
    MIXING:  cpu time      0.0121: real time      0.0122
    --------------------------------------------
      LOOP:  cpu time     37.8600: real time     38.2253

 eigenvalue-minimisations  : 32352
 total energy-change (2. order) :-0.4211418E-01  (-0.4111685E-04)
 number of electron      20.0000001 magnetization       0.0993879
 augmentation part       -3.6727923 magnetization       0.0997578

 Broyden mixing:
  rms(total) = 0.12540E-01    rms(broyden)= 0.12540E-01
  rms(prec ) = 0.12710E-01
  weight for this iteration     100.00

 eigenvalues of (default mixing * dielectric matrix)
  average eigenvalue GAMMA=   2.5710
 12.3180  5.2296  3.1617  2.6215  1.7465  1.0861  1.0861  0.9016  0.7747  0.6824
  0.6247  0.6189

 Free energy of the ion-electron system (eV)
  ---------------------------------------------------
  alpha Z        PSCENC =         7.80316522
  Ewald energy   TEWEN  =      3222.70414479
  -Hartree energ DENC   =     -3838.98285975
  -exchange      EXHF   =         0.00000000
  -V(xc)+E(xc)   XCENC  =       -16.45781491
  PAW double counting   =       955.59015187     -899.37638160
  entropy T*S    EENTRO =        -0.00000000
  eigenvalues    EBANDS =      -172.24904384
  atomic energy  EATOM  =       724.24730435
  Solvation  Ediel_sol  =         0.00000000
  ---------------------------------------------------
  free energy    TOTEN  =       -16.72133387 eV

  energy without entropy =      -16.72133387  energy(sigma->0) =      -16.72133387


--------------------------------------------------------------------------------------------------------




--------------------------------------- Iteration      1(  18)  ---------------------------------------


    POTLOK:  cpu time      0.2674: real time      0.2696
    SETDIJ:  cpu time      1.1026: real time      1.1049
     EDDAV:  cpu time     35.9383: real time     36.2751
       DOS:  cpu time      0.0020: real time      0.0020
    CHARGE:  cpu time      0.2900: real time      0.2915
    MIXING:  cpu time      0.0121: real time      0.0122
    --------------------------------------------
      LOOP:  cpu time     37.6125: real time     37.9554

 eigenvalue-minimisations  : 32064
 total energy-change (2. order) :-0.2252561E-01  (-0.3024437E-04)
 number of electron      20.0000001 magnetization       0.0489176
 augmentation part       -3.6730032 magnetization       0.0491647

 Broyden mixing:
  rms(total) = 0.72907E-02    rms(broyden)= 0.72907E-02
  rms(prec ) = 0.74308E-02
  weight for this iteration     100.00

 eigenvalues of (default mixing * dielectric matrix)
  average eigenvalue GAMMA=   2.7076
 13.1346  6.8433  3.5819  2.6819  2.1985  1.2805  1.0051  0.9686  0.8225  0.7671
  0.6728  0.6292  0.6123

 Free energy of the ion-electron system (eV)
  ---------------------------------------------------
  alpha Z        PSCENC =         7.80316522
  Ewald energy   TEWEN  =      3222.70414479
  -Hartree energ DENC   =     -3837.87081379
  -exchange      EXHF   =         0.00000000
  -V(xc)+E(xc)   XCENC  =       -16.48167141
  PAW double counting   =       956.39170913     -900.17807730
  entropy T*S    EENTRO =        -0.00000000
  eigenvalues    EBANDS =      -173.35962048
  atomic energy  EATOM  =       724.24730435
  Solvation  Ediel_sol  =         0.00000000
  ---------------------------------------------------
  free energy    TOTEN  =       -16.74385949 eV

  energy without entropy =      -16.74385949  energy(sigma->0) =      -16.74385949


--------------------------------------------------------------------------------------------------------




--------------------------------------- Iteration      1(  19)  ---------------------------------------


    POTLOK:  cpu time      0.2661: real time      0.2678
    SETDIJ:  cpu time      1.1045: real time      1.1065
     EDDAV:  cpu time     36.3036: real time     36.6196
       DOS:  cpu time      0.0020: real time      0.0020
    CHARGE:  cpu time      0.2949: real time      0.2964
    MIXING:  cpu time      0.0138: real time      0.0138
    --------------------------------------------
      LOOP:  cpu time     37.9849: real time     38.3062

 eigenvalue-minimisations  : 32656
 total energy-change (2. order) :-0.4116893E-02  (-0.1392424E-04)
 number of electron      20.0000001 magnetization       0.0181405
 augmentation part       -3.6735563 magnetization       0.0181965

 Broyden mixing:
  rms(total) = 0.43765E-02    rms(broyden)= 0.43765E-02
  rms(prec ) = 0.45821E-02
  weight for this iteration     100.00

 eigenvalues of (default mixing * dielectric matrix)
  average eigenvalue GAMMA=   2.8069
 14.0137  8.2184  3.8009  2.6968  2.4916  1.5600  1.0819  1.0819  0.9204  0.8009
  0.7243  0.6665  0.6286  0.6115

 Free energy of the ion-electron system (eV)
  ---------------------------------------------------
  alpha Z        PSCENC =         7.80316522
  Ewald energy   TEWEN  =      3222.70414479
  -Hartree energ DENC   =     -3837.36830294
  -exchange      EXHF   =         0.00000000
  -V(xc)+E(xc)   XCENC  =       -16.48948731
  PAW double counting   =       955.92275768     -899.70864422
  entropy T*S    EENTRO =        -0.00000000
  eigenvalues    EBANDS =      -173.85891395
  atomic energy  EATOM  =       724.24730435
  Solvation  Ediel_sol  =         0.00000000
  ---------------------------------------------------
  free energy    TOTEN  =       -16.74797638 eV

  energy without entropy =      -16.74797638  energy(sigma->0) =      -16.74797638


--------------------------------------------------------------------------------------------------------




--------------------------------------- Iteration      1(  20)  ---------------------------------------


    POTLOK:  cpu time      0.2686: real time      0.2709
    SETDIJ:  cpu time      1.1031: real time      1.1054
     EDDAV:  cpu time     36.0947: real time     36.4286
       DOS:  cpu time      0.0020: real time      0.0020
    CHARGE:  cpu time      0.2935: real time      0.2948
    MIXING:  cpu time      0.0128: real time      0.0128
    --------------------------------------------
      LOOP:  cpu time     37.7746: real time     38.1145

 eigenvalue-minimisations  : 32224
 total energy-change (2. order) :-0.5574921E-02  (-0.1011817E-04)
 number of electron      20.0000001 magnetization       0.0076573
 augmentation part       -3.6737450 magnetization       0.0076627

 Broyden mixing:
  rms(total) = 0.20724E-02    rms(broyden)= 0.20724E-02
  rms(prec ) = 0.23409E-02
  weight for this iteration     100.00

 eigenvalues of (default mixing * dielectric matrix)
  average eigenvalue GAMMA=   2.8927
 15.0936  9.3174  4.0821  2.7575  2.7575  1.8733  1.2173  1.0314  1.0314  0.8206
  0.8206  0.7006  0.6472  0.6117  0.6284

 Free energy of the ion-electron system (eV)
  ---------------------------------------------------
  alpha Z        PSCENC =         7.80316522
  Ewald energy   TEWEN  =      3222.70414479
  -Hartree energ DENC   =     -3837.20478951
  -exchange      EXHF   =         0.00000000
  -V(xc)+E(xc)   XCENC  =       -16.49719288
  PAW double counting   =       955.71097589     -899.49716288
  entropy T*S    EENTRO =        -0.00000000
  eigenvalues    EBANDS =      -174.01999627
  atomic energy  EATOM  =       724.24730435
  Solvation  Ediel_sol  =         0.00000000
  ---------------------------------------------------
  free energy    TOTEN  =       -16.75355130 eV

  energy without entropy =      -16.75355130  energy(sigma->0) =      -16.75355130


--------------------------------------------------------------------------------------------------------




--------------------------------------- Iteration      1(  21)  ---------------------------------------


    POTLOK:  cpu time      0.2650: real time      0.2667
    SETDIJ:  cpu time      1.1029: real time      1.1049
     EDDAV:  cpu time     35.5765: real time     35.8705
       DOS:  cpu time      0.0020: real time      0.0020
    CHARGE:  cpu time      0.2934: real time      0.2950
    MIXING:  cpu time      0.0127: real time      0.0129
    --------------------------------------------
      LOOP:  cpu time     37.2526: real time     37.5519

 eigenvalue-minimisations  : 31600
 total energy-change (2. order) :-0.3381519E-02  (-0.4877239E-05)
 number of electron      20.0000001 magnetization       0.0040637
 augmentation part       -3.6736430 magnetization       0.0040303

 Broyden mixing:
  rms(total) = 0.10522E-02    rms(broyden)= 0.10522E-02
  rms(prec ) = 0.13594E-02
  weight for this iteration     100.00

 eigenvalues of (default mixing * dielectric matrix)
  average eigenvalue GAMMA=   2.8684
 15.5928  9.6821  4.2601  2.8476  2.8476  2.0143  1.4077  1.0473  1.0473  0.9743
  0.8155  0.7878  0.6995  0.6115  0.6293  0.6293

 Free energy of the ion-electron system (eV)
  ---------------------------------------------------
  alpha Z        PSCENC =         7.80316522
  Ewald energy   TEWEN  =      3222.70414479
  -Hartree energ DENC   =     -3837.26426782
  -exchange      EXHF   =         0.00000000
  -V(xc)+E(xc)   XCENC  =       -16.49996305
  PAW double counting   =       955.60587945     -899.39233260
  entropy T*S    EENTRO =        -0.00000000
  eigenvalues    EBANDS =      -173.96086316
  atomic energy  EATOM  =       724.24730435
  Solvation  Ediel_sol  =         0.00000000
  ---------------------------------------------------
  free energy    TOTEN  =       -16.75693282 eV

  energy without entropy =      -16.75693282  energy(sigma->0) =      -16.75693282


--------------------------------------------------------------------------------------------------------




--------------------------------------- Iteration      1(  22)  ---------------------------------------


    POTLOK:  cpu time      0.2728: real time      0.2750
    SETDIJ:  cpu time      1.1030: real time      1.1052
     EDDAV:  cpu time     34.3765: real time     34.7134
       DOS:  cpu time      0.0020: real time      0.0020
    CHARGE:  cpu time      0.2933: real time      0.2949
    MIXING:  cpu time      0.0131: real time      0.0131
    --------------------------------------------
      LOOP:  cpu time     36.0606: real time     36.4037

 eigenvalue-minimisations  : 30464
 total energy-change (2. order) :-0.1755703E-02  (-0.1696884E-05)
 number of electron      20.0000001 magnetization       0.0023211
 augmentation part       -3.6735603 magnetization       0.0023125

 Broyden mixing:
  rms(total) = 0.61815E-03    rms(broyden)= 0.61815E-03
  rms(prec ) = 0.89026E-03
  weight for this iteration     100.00

 eigenvalues of (default mixing * dielectric matrix)
  average eigenvalue GAMMA=   2.8179
 15.7779  9.7941  4.3963  3.0876  2.6750  2.1944  1.7059  1.2011  1.0345  1.0345
  0.8764  0.8065  0.7574  0.6998  0.6295  0.6170  0.6170

 Free energy of the ion-electron system (eV)
  ---------------------------------------------------
  alpha Z        PSCENC =         7.80316522
  Ewald energy   TEWEN  =      3222.70414479
  -Hartree energ DENC   =     -3837.36963588
  -exchange      EXHF   =         0.00000000
  -V(xc)+E(xc)   XCENC  =       -16.50101023
  PAW double counting   =       955.35899535     -899.14532697
  entropy T*S    EENTRO =        -0.00000000
  eigenvalues    EBANDS =      -173.85632515
  atomic energy  EATOM  =       724.24730435
  Solvation  Ediel_sol  =         0.00000000
  ---------------------------------------------------
  free energy    TOTEN  =       -16.75868852 eV

  energy without entropy =      -16.75868852  energy(sigma->0) =      -16.75868852


--------------------------------------------------------------------------------------------------------




--------------------------------------- Iteration      1(  23)  ---------------------------------------


    POTLOK:  cpu time      0.2710: real time      0.2724
    SETDIJ:  cpu time      1.1038: real time      1.1061
     EDDAV:  cpu time     35.0713: real time     35.3980
       DOS:  cpu time      0.0020: real time      0.0020
    CHARGE:  cpu time      0.2911: real time      0.2931
    MIXING:  cpu time      0.0134: real time      0.0135
    --------------------------------------------
      LOOP:  cpu time     36.7526: real time     37.0850

 eigenvalue-minimisations  : 31152
 total energy-change (2. order) :-0.5499892E-03  (-0.1080075E-05)
 number of electron      20.0000001 magnetization       0.0013060
 augmentation part       -3.6734868 magnetization       0.0012894

 Broyden mixing:
  rms(total) = 0.41889E-03    rms(broyden)= 0.41889E-03
  rms(prec ) = 0.61240E-03
[...]
      5      -7.5323      1.00000
      6      -7.5323      1.00000
      7      -6.7136      1.00000
      8      -6.7136      1.00000
      9      -4.6402      1.00000
     10      -4.6402      1.00000
     11      -0.3053      0.00000
     12      -0.3053      0.00000
     13       1.4563      0.00000
     14       1.4563      0.00000
     15       2.1709      0.00000
     16       2.1709      0.00000
     17       3.7911      0.00000
     18       3.7911      0.00000
     19       4.3607      0.00000
     20       4.3607      0.00000
     21       5.0655      0.00000
     22       5.0656      0.00000
     23       5.4335      0.00000
     24       5.4335      0.00000
     25       5.6530      0.00000
     26       5.6531      0.00000
     27       5.7719      0.00000
     28       5.7720      0.00000
     29       5.9113      0.00000
     30       5.9113      0.00000
     31       6.0379      0.00000
     32       6.0380      0.00000
     33       6.1486      0.00000
     34       6.1487      0.00000
     35       6.2090      0.00000
     36       6.2090      0.00000
     37       6.6486      0.00000
     38       6.6487      0.00000
     39       6.8944      0.00000
     40       6.8944      0.00000
     41       6.9591      0.00000
     42       6.9594      0.00000
     43       7.0992      0.00000
     44       7.0993      0.00000
     45       7.5330      0.00000
     46       7.5330      0.00000
     47       7.8598      0.00000
     48       7.8601      0.00000
     49       8.1626      0.00000
     50       8.1626      0.00000
     51       8.2792      0.00000
     52       8.2792      0.00000
     53       8.6299      0.00000
     54       8.6299      0.00000
     55       9.1559      0.00000
     56       9.1559      0.00000
     57       9.5130      0.00000
     58       9.5130      0.00000
     59       9.9085      0.00000
     60       9.9087      0.00000
     61      10.2497      0.00000
     62      10.2498      0.00000
     63      10.5296      0.00000
     64      10.5297      0.00000
     65      10.8978      0.00000
     66      10.8978      0.00000
     67      11.2543      0.00000
     68      11.2543      0.00000
     69      11.4331      0.00000
     70      11.4334      0.00000
     71      11.9497      0.00000
     72      11.9498      0.00000
     73      12.1975      0.00000
     74      12.1975      0.00000
     75      12.4919      0.00000
     76      12.4919      0.00000
     77      13.2231      0.00000
     78      13.2231      0.00000
     79      13.6740      0.00000
     80      13.6740      0.00000
     81      14.1020      0.00000
     82      14.1022      0.00000
     83      14.2579      0.00000
     84      14.2579      0.00000
     85      14.7834      0.00000
     86      14.7834      0.00000
     87      14.9815      0.00000
     88      14.9815      0.00000
     89      15.2167      0.00000
     90      15.2167      0.00000
     91      15.3963      0.00000
     92      15.3963      0.00000
     93      16.5664      0.00000
     94      16.5666      0.00000
     95      16.9673      0.00000
     96      16.9673      0.00000
     97      17.2249      0.00000
     98      17.2250      0.00000
     99      17.4274      0.00000
    100      17.4275      0.00000
    101      17.5618      0.00000
    102      17.5618      0.00000
    103      18.3514      0.00000
    104      18.3514      0.00000
    105      19.3462      0.00000
    106      19.3463      0.00000
    107      19.5679      0.00000
    108      19.5680      0.00000
    109      19.7420      0.00000
    110      19.7421      0.00000
    111      20.0309      0.00000
    112      20.0310      0.00000
    113      20.2857      0.00000
    114      20.2857      0.00000
    115      20.3831      0.00000
    116      20.3832      0.00000
    117      20.4663      0.00000
    118      20.4663      0.00000
    119      20.4985      0.00000
    120      20.4985      0.00000
    121      20.5379      0.00000
    122      20.5379      0.00000
    123      20.6168      0.00000
    124      20.6169      0.00000
    125      20.7187      0.00000
    126      20.7188      0.00000
    127      20.8441      0.00000
    128      20.8442      0.00000
    129      20.9197      0.00000
    130      20.9198      0.00000
    131      20.9817      0.00000
    132      20.9817      0.00000
    133      21.4329      0.00000
    134      21.4329      0.00000
    135      21.6142      0.00000
    136      21.6143      0.00000
    137      21.7946      0.00000
    138      21.7946      0.00000
    139      21.8171      0.00000
    140      21.8172      0.00000
    141      22.5116      0.00000
    142      22.5117      0.00000
    143      22.6657      0.00000
    144      22.6657      0.00000
    145      22.8424      0.00000
    146      22.8425      0.00000
    147      22.9772      0.00000
    148      22.9773      0.00000
    149      23.0989      0.00000
    150      23.0989      0.00000
    151      23.1238      0.00000
    152      23.1240      0.00000
    153      23.4201      0.00000
    154      23.4202      0.00000
    155      23.5065      0.00000
    156      23.5065      0.00000
    157      23.9020      0.00000
    158      23.9021      0.00000
    159      23.9793      0.00000
    160      23.9793      0.00000
    161      24.1534      0.00000
    162      24.1534      0.00000
    163      24.4830      0.00000
    164      24.4831      0.00000
    165      24.6315      0.00000
    166      24.6315      0.00000
    167      24.7693      0.00000
    168      24.7693      0.00000
    169      24.8065      0.00000
    170      24.8065      0.00000
    171      25.0683      0.00000
    172      25.0684      0.00000
    173      25.5687      0.00000
    174      25.5688      0.00000
    175      25.6813      0.00000
    176      25.6815      0.00000
    177      25.8999      0.00000
    178      25.9000      0.00000
    179      25.9469      0.00000
    180      25.9470      0.00000
    181      25.9801      0.00000
    182      25.9802      0.00000
    183      26.1484      0.00000
    184      26.1485      0.00000
    185      26.3161      0.00000
    186      26.3162      0.00000
    187      26.3361      0.00000
    188      26.3362      0.00000
    189      26.3848      0.00000
    190      26.3848      0.00000
    191      26.4862      0.00000
    192      26.4862      0.00000
    193      26.5886      0.00000
    194      26.5886      0.00000
    195      26.6524      0.00000
    196      26.6524      0.00000
    197      26.8298      0.00000
    198      26.8299      0.00000
    199      26.8773      0.00000
    200      26.8773      0.00000
    201      27.2303      0.00000
    202      27.2304      0.00000
    203      27.2344      0.00000
    204      27.2345      0.00000
    205      27.3388      0.00000
    206      27.3389      0.00000
    207      27.3830      0.00000
    208      27.3832      0.00000
    209      27.5587      0.00000
    210      27.5587      0.00000
    211      27.6585      0.00000
    212      27.6585      0.00000
    213      28.0262      0.00000
    214      28.0262      0.00000
    215      28.2780      0.00000
    216      28.2781      0.00000
    217      28.3458      0.00000
    218      28.3459      0.00000
    219      28.5164      0.00000
    220      28.5165      0.00000
    221      28.6476      0.00000
    222      28.6476      0.00000
    223      28.7365      0.00000
    224      28.7365      0.00000


--------------------------------------------------------------------------------------------------------


 soft charge-density along one line, spin component            1
         0         1         2         3         4         5         6         7         8         9
 total charge-density along one line
 
 soft charge-density along one line, spin component            2
         0         1         2         3         4         5         6         7         8         9
 total charge-density along one line
 
 pseudopotential strength for first ion, spin component:            1
 16.462  20.597   0.042   0.053  -0.000   0.076   0.095  -0.000
 20.597  25.789   0.053   0.066  -0.000   0.096   0.119  -0.000
  0.042   0.053   3.548  -0.003  -0.000   6.069  -0.005  -0.000
  0.053   0.066  -0.003   3.546  -0.000  -0.005   6.065  -0.000
 -0.000  -0.000  -0.000  -0.000   3.550  -0.000  -0.000   6.071
  0.076   0.096   6.069  -0.005  -0.000  10.443  -0.009  -0.000
  0.095   0.119  -0.005   6.065  -0.000  -0.009  10.436  -0.000
 -0.000  -0.000  -0.000  -0.000   6.071  -0.000  -0.000  10.447
 -0.000  -0.000  -0.000  -0.000   0.007  -0.000  -0.000   0.013
 -0.007  -0.008   0.013   0.013  -0.000   0.024   0.024  -0.000
 -0.003  -0.004  -0.004   0.013   0.000  -0.007   0.025   0.000
 -0.000  -0.000  -0.000  -0.000   0.013  -0.000  -0.000   0.024
  0.001   0.002  -0.013   0.000  -0.000  -0.023   0.000  -0.000
 pseudopotential strength for first ion, spin component:            2
 16.462  20.597   0.042   0.053  -0.000   0.076   0.095  -0.000
 20.597  25.789   0.053   0.066  -0.000   0.096   0.119  -0.000
  0.042   0.053   3.548  -0.003  -0.000   6.069  -0.005  -0.000
  0.053   0.066  -0.003   3.546  -0.000  -0.005   6.065  -0.000
 -0.000  -0.000  -0.000  -0.000   3.550  -0.000  -0.000   6.071
  0.076   0.096   6.069  -0.005  -0.000  10.443  -0.009  -0.000
  0.095   0.119  -0.005   6.065  -0.000  -0.009  10.436  -0.000
 -0.000  -0.000  -0.000  -0.000   6.071  -0.000  -0.000  10.447
 -0.000  -0.000  -0.000  -0.000   0.007  -0.000  -0.000   0.013
 -0.007  -0.008   0.013   0.013  -0.000   0.024   0.024  -0.000
 -0.003  -0.004  -0.004   0.013   0.000  -0.007   0.025   0.000
 -0.000  -0.000  -0.000  -0.000   0.013  -0.000  -0.000   0.024
  0.001   0.002  -0.013   0.000  -0.000  -0.023   0.000  -0.000
 total augmentation occupancy for first ion, spin component:            1
  2.687  -0.651   0.352   0.400   0.000  -0.066  -0.073   0.000  -0.000  -0.009  -0.014   0.000   0.009
 -0.651   0.614  -0.445  -0.550   0.000   0.071   0.087   0.000   0.000   0.002   0.017   0.000  -0.005
  0.352  -0.445   1.226   0.076   0.000  -0.198   0.000   0.000   0.000   0.051  -0.099   0.000   0.001
  0.400  -0.550   0.076   1.275  -0.000   0.000  -0.199   0.000   0.000  -0.016   0.111   0.000  -0.003
  0.000   0.000  -0.000   0.000   1.240   0.000  -0.000  -0.211   0.148   0.000   0.000   0.045   0.000
 -0.066   0.071  -0.198   0.000  -0.000   0.036  -0.002   0.000   0.000  -0.009   0.017  -0.000   0.000
 -0.073   0.087   0.000  -0.199   0.000  -0.002   0.035   0.000   0.000   0.003  -0.020   0.000   0.001
  0.000   0.000   0.000   0.000  -0.211   0.000   0.000   0.040  -0.026  -0.000   0.000  -0.008   0.000
  0.000  -0.000   0.000  -0.000   0.148   0.000  -0.000  -0.026   0.030  -0.000   0.000   0.003   0.000
 -0.009   0.002   0.051  -0.016   0.000  -0.009   0.003   0.000   0.000   0.010  -0.007   0.000   0.001
 -0.014   0.017  -0.099   0.111  -0.000   0.017  -0.020  -0.000   0.000  -0.007   0.028   0.000  -0.002
  0.000   0.000   0.000   0.000   0.045   0.000  -0.000  -0.008   0.003   0.000   0.000   0.009   0.000
  0.009  -0.005   0.001  -0.003  -0.000   0.000   0.001   0.000  -0.000   0.001  -0.002   0.000   0.008
 total augmentation occupancy for first ion, spin component:            2
  0.000  -0.000  -0.000  -0.000   0.000   0.000   0.000   0.000   0.000   0.000   0.000   0.000   0.000
 -0.000  -0.000   0.000   0.000   0.000  -0.000  -0.000   0.000   0.000   0.000   0.000   0.000  -0.000
 -0.000   0.000   0.000   0.000   0.000  -0.000  -0.000   0.000   0.000  -0.000   0.000   0.000   0.000
 -0.000   0.000   0.000  -0.000   0.000  -0.000   0.000   0.000   0.000  -0.000  -0.000   0.000  -0.000
  0.000   0.000   0.000   0.000   0.000   0.000   0.000  -0.000   0.000   0.000   0.000  -0.000   0.000
  0.000  -0.000  -0.000  -0.000   0.000   0.000   0.000   0.000   0.000   0.000  -0.000   0.000  -0.000
  0.000  -0.000  -0.000   0.000   0.000   0.000  -0.000   0.000   0.000   0.000   0.000   0.000   0.000
  0.000   0.000   0.000   0.000  -0.000   0.000   0.000   0.000  -0.000   0.000   0.000   0.000   0.000
  0.000   0.000   0.000   0.000   0.000   0.000   0.000  -0.000  -0.000   0.000   0.000  -0.000   0.000
  0.000   0.000  -0.000  -0.000   0.000   0.000   0.000   0.000   0.000  -0.000   0.000   0.000   0.000
  0.000   0.000   0.000  -0.000   0.000  -0.000   0.000   0.000   0.000   0.000  -0.000   0.000  -0.000
  0.000   0.000   0.000   0.000  -0.000   0.000   0.000   0.000  -0.000   0.000   0.000  -0.000   0.000
  0.000  -0.000   0.000  -0.000   0.000  -0.000   0.000   0.000   0.000   0.000  -0.000   0.000  -0.000


------------------------ aborting loop because EDIFF is reached ----------------------------------------





 total charge

# of ion       s       p       d       tot
------------------------------------------
    1        1.318   0.790   0.051   2.158
    2        1.318   0.790   0.051   2.158
    3        1.472   2.313   0.029   3.813
    4        1.472   2.313   0.029   3.813
--------------------------------------------------
tot          5.579   6.205   0.159  11.943



 magnetization (x)

# of ion       s       p       d       tot
------------------------------------------
    1       -0.000  -0.000  -0.000  -0.000
    2       -0.000  -0.000  -0.000  -0.000
    3       -0.000   0.000  -0.000   0.000
    4       -0.000   0.000  -0.000   0.000
--------------------------------------------------
tot         -0.000   0.000  -0.000   0.000
 
    CHARGE:  cpu time      0.3036: real time      0.3051
    FORLOC:  cpu time      0.0078: real time      0.0078
    FORNL :  cpu time      2.2914: real time      2.3055
    STRESS:  cpu time      8.6986: real time      8.7998
    FORCOR:  cpu time      0.2472: real time      0.2489
    FORHAR:  cpu time      0.0274: real time      0.0275
    MIXING:  cpu time      0.0159: real time      0.0159
    OFIELD:  cpu time      0.0000: real time      0.0000

  FORCE on cell =-STRESS in cart. coord.  units (eV):
  Direction    XX          YY          ZZ          XY          YZ          ZX
  --------------------------------------------------------------------------------------
  Alpha Z     7.80317     7.80317     7.80317
  Ewald    3711.51067  3683.32796 -4172.13483     0.00000     0.00000    -0.00000
  Hartree  3799.81700  3788.17318 -3750.22151    -0.00000     0.00000    -0.00000
  E(xc)     -70.25652   -70.27422   -70.89136    -0.00000    -0.00000     0.00000
  Local   -7757.36695 -7720.86413  7670.80433    -0.00000     0.00000    -0.00000
  n-local   120.12183   119.81514   120.87737     0.43085    -0.00000     0.00000
  augment    -5.65226    -5.87479    -6.08121     0.00000     0.00004    -0.00000
  Kinetic   194.43015   198.24377   199.02591     3.34409    -0.00000     0.00000
  Fock        0.00000     0.00000     0.00000     0.00000     0.00000     0.00000
  -------------------------------------------------------------------------------------
  Total       0.40709     0.35008    -0.81813     0.00000     0.00000     0.00000
  in kB       1.20146     1.03318    -2.41456     0.00000     0.00000     0.00000
  external pressure =       -0.06 kB  Pullay stress =        0.00 kB


 VOLUME and BASIS-vectors are now :
 -----------------------------------------------------------------------------
  energy-cutoff  :      520.00
  volume of cell :      542.87
      direct lattice vectors                 reciprocal lattice vectors
     3.858100176  0.000000000  0.000000000     0.259194929  0.000000000  0.000000000
     0.000000000  4.526575088  0.000000000     0.000000000  0.220917577  0.000000000
     0.000000000  0.000000000 31.085176468     0.000000000  0.000000000  0.032169674

  length of vectors
     3.858100176  4.526575088 31.085176468     0.259194929  0.220917577  0.032169674


 FORCES acting on ions
    electron-ion (+dipol)            ewald-force                    non-local-force                 convergence-correction
 -----------------------------------------------------------------------------------------------
   0.384E-09 0.159E+02 0.195E+03   0.206E-08 -.186E+02 -.198E+03   0.000E+00 0.254E+01 0.364E+01   0.104E-13 0.238E-05 -.218E-05
   -.408E-08 0.159E+02 -.195E+03   -.206E-08 -.186E+02 0.198E+03   0.000E+00 0.254E+01 -.364E+01   -.967E-14 0.238E-05 0.218E-05
   -.197E-07 -.170E+02 0.234E+03   -.238E-08 0.186E+02 -.236E+03   0.000E+00 -.149E+01 0.185E+01   -.264E-13 -.117E-04 0.114E-04
   0.417E-09 -.170E+02 -.234E+03   0.238E-08 0.186E+02 0.236E+03   0.000E+00 -.149E+01 -.185E+01   0.193E-13 -.117E-04 -.114E-04
 -----------------------------------------------------------------------------------------------
   -.230E-07 -.210E+01 -.538E-04   0.239E-14 -.355E-14 0.000E+00   0.000E+00 0.210E+01 0.444E-15   -.641E-14 -.186E-04 -.554E-11
 
 
 POSITION                                       TOTAL-FORCE (eV/Angst)
 -----------------------------------------------------------------------------------
      0.96453      0.52346      1.36947         0.000000     -0.082579      0.271908
      2.89358      2.78675      4.17312         0.000000     -0.082579     -0.271908
      2.89358      2.24089      1.63362         0.000000      0.082579      0.023396
      0.96453      4.50417      3.90897        -0.000000      0.082579     -0.023396
 -----------------------------------------------------------------------------------
    total drift:                               -0.000000     -0.000227     -0.000054


--------------------------------------------------------------------------------------------------------



  FREE ENERGIE OF THE ION-ELECTRON SYSTEM (eV)
  ---------------------------------------------------
  free  energy   TOTEN  =       -16.75988748 eV

  energy  without entropy=      -16.75988748  energy(sigma->0) =      -16.75988748
 


--------------------------------------------------------------------------------------------------------


    POTLOK:  cpu time      1.3915: real time      1.3959


--------------------------------------------------------------------------------------------------------


 writing wavefunctions
     LOOP+:  cpu time   1210.4446: real time   1235.0726
    4ORBIT:  cpu time      0.0000: real time      0.0000



 total charge

# of ion       s       p       d       tot
------------------------------------------
    1        1.318   0.790   0.051   2.158
    2        1.318   0.790   0.051   2.158
    3        1.472   2.313   0.029   3.813
    4        1.472   2.313   0.029   3.813
--------------------------------------------------
tot          5.579   6.205   0.159  11.943



 magnetization (x)

# of ion       s       p       d       tot
------------------------------------------
    1       -0.000  -0.000  -0.000  -0.000
    2       -0.000  -0.000  -0.000  -0.000
    3       -0.000   0.000  -0.000   0.000
    4       -0.000   0.000  -0.000   0.000
--------------------------------------------------
tot         -0.000   0.000  -0.000   0.000
 

 total amount of memory used by VASP MPI-rank0   378084. kBytes
=======================================================================

   base      :      30000. kBytes
   nonl-proj :      98810. kBytes
   fftplans  :       5630. kBytes
   grid      :      31866. kBytes
   one-center:         64. kBytes
   wavefun   :     211714. kBytes
 
  
  
 General timing and accounting informations for this job:
 ========================================================
  
                  Total CPU time used (sec):     1228.160
                            User time (sec):     1203.058
                          System time (sec):       25.102
                         Elapsed time (sec):     1253.779
  
                   Maximum memory used (kb):      543872.
                   Average memory used (kb):          N/A
  
                          Minor page faults:       589609
                          Major page faults:           77
                 Voluntary context switches:       206496
