 running   32 mpi-ranks, with    1 threads/rank, on    2 nodes
 distrk:  each k-point on   16 cores,    2 groups
 distr:  one band on    1 cores,   16 groups
 vasp.6.4.2 20Jul23 (build Oct 12 2023 10:31:02) complex                         
 POSCAR found type information on POSCAR GeSe
 POSCAR found :  2 types and       4 ions
 Reading from existing POTCAR
 -----------------------------------------------------------------------------
|                                                                             |
|           W    W    AA    RRRRR   N    N  II  N    N   GGGG   !!!           |
|           W    W   A  A   R    R  NN   N  II  NN   N  G    G  !!!           |
|           W    W  A    A  R    R  N N  N  II  N N  N  G       !!!           |
|           W WW W  AAAAAA  RRRRR   N  N N  II  N  N N  G  GGG   !            |
|           WW  WW  A    A  R   R   N   NN  II  N   NN  G    G                |
|           W    W  A    A  R    R  N    N  II  N    N   GGGG   !!!           |
|                                                                             |
|     You use a magnetic or noncollinear calculation, but did not specify     |
|     the initial magnetic moment with the MAGMOM tag. Note that a            |
|     default of 1 will be used for all atoms. This ferromagnetic setup       |
|     may break the symmetry of the crystal, in particular it may rule        |
|     out finding an antiferromagnetic solution. Thence, we recommend         |
|     setting the initial magnetic moment manually or verifying carefully     |
|     that this magnetic setup is desired.                                    |
|                                                                             |
 -----------------------------------------------------------------------------

 scaLAPACK will be used
 Reading from existing POTCAR
 LDA part: xc-table for Pade appr. of Perdew
 -----------------------------------------------------------------------------
|                                                                             |
|           W    W    AA    RRRRR   N    N  II  N    N   GGGG   !!!           |
|           W    W   A  A   R    R  NN   N  II  NN   N  G    G  !!!           |
|           W    W  A    A  R    R  N N  N  II  N N  N  G       !!!           |
|           W WW W  AAAAAA  RRRRR   N  N N  II  N  N N  G  GGG   !            |
|           WW  WW  A    A  R   R   N   NN  II  N   NN  G    G                |
|           W    W  A    A  R    R  N    N  II  N    N   GGGG   !!!           |
|                                                                             |
|     The number of bands has been changed from the values supplied in        |
|     the INCAR file. This is a result of running the parallel version.       |
|     The orbitals not found in the WAVECAR file will be initialized with     |
|     random numbers, which is usually adequate. For correlated               |
|     calculations, however, you should redo the groundstate calculation.     |
|     I found NBANDS = 220. Now, NBANDS = 224.                                |
|                                                                             |
 -----------------------------------------------------------------------------

 POSCAR, INCAR and KPOINTS ok, starting setup
 FFT: planning ... GRIDC
 FFT: planning ... GRID_SOFT
 FFT: planning ... GRID
 WAVECAR not read
 WARNING: random wavefunctions but no delay for mixing, default for NELMDL
 entering main loop
       N       E                     dE             d eps       ncg     rms          rms(c)
DAV:   1     0.966569266455E+02    0.96657E+02   -0.36505E+03 28672   0.576E+01
DAV:   2    -0.985256420924E+01   -0.10651E+03   -0.96518E+02 34416   0.205E+01
DAV:   3    -0.161901405488E+02   -0.63376E+01   -0.62593E+01 34496   0.498E+00
DAV:   4    -0.162380625962E+02   -0.47922E-01   -0.47911E-01 33536   0.408E-01
DAV:   5    -0.162383713611E+02   -0.30876E-03   -0.30876E-03 33296   0.339E-02    0.684E+00
DAV:   6    -0.119901572910E+02    0.42482E+01   -0.42571E+00 31968   0.103E+00    0.449E+00
DAV:   7    -0.113451369269E+02    0.64502E+00   -0.53982E-01 32096   0.409E-01    0.310E+00
DAV:   8    -0.117582309180E+02   -0.41309E+00   -0.15281E-01 33072   0.225E-01    0.209E+00
DAV:   9    -0.126752116203E+02   -0.91698E+00   -0.96596E-02 31888   0.181E-01    0.176E+00
DAV:  10    -0.144272770515E+02   -0.17521E+01   -0.42446E-01 31904   0.355E-01    0.127E+00
DAV:  11    -0.159248281110E+02   -0.14976E+01   -0.36349E-01 32592   0.316E-01    0.832E-01
DAV:  12    -0.163081335219E+02   -0.38331E+00   -0.56182E-02 32448   0.141E-01    0.617E-01
DAV:  13    -0.163433298088E+02   -0.35196E-01   -0.28491E-02 31808   0.107E-01    0.420E-01
DAV:  14    -0.163644973540E+02   -0.21168E-01   -0.56082E-03 31504   0.550E-02    0.306E-01
DAV:  15    -0.165246383916E+02   -0.16014E+00   -0.18832E-03 31472   0.367E-02    0.228E-01
DAV:  16    -0.166792196933E+02   -0.15458E+00   -0.13148E-03 31696   0.265E-02    0.165E-01
DAV:  17    -0.167213338737E+02   -0.42114E-01   -0.41117E-04 32352   0.129E-02    0.125E-01
DAV:  18    -0.167438594869E+02   -0.22526E-01   -0.30244E-04 32064   0.111E-02    0.729E-02
DAV:  19    -0.167479763796E+02   -0.41169E-02   -0.13924E-04 32656   0.784E-03    0.438E-02
DAV:  20    -0.167535513003E+02   -0.55749E-02   -0.10118E-04 32224   0.745E-03    0.207E-02
DAV:  21    -0.167569328196E+02   -0.33815E-02   -0.48772E-05 31600   0.548E-03    0.105E-02
DAV:  22    -0.167586885227E+02   -0.17557E-02   -0.16969E-05 30464   0.363E-03    0.618E-03
DAV:  23    -0.167592385119E+02   -0.54999E-03   -0.10801E-05 31152   0.299E-03    0.419E-03
DAV:  24    -0.167595726368E+02   -0.33412E-03   -0.17987E-05 30448   0.328E-03    0.278E-03
DAV:  25    -0.167597895024E+02   -0.21687E-03   -0.18756E-05 30432   0.300E-03    0.163E-03
DAV:  26    -0.167598265059E+02   -0.37003E-04   -0.53038E-06 29376   0.175E-03    0.994E-04
DAV:  27    -0.167598546412E+02   -0.28135E-04   -0.10463E-06 29888   0.852E-04    0.537E-04
DAV:  28    -0.167598694624E+02   -0.14821E-04   -0.29130E-07 30272   0.479E-04    0.342E-04
DAV:  29    -0.167598788812E+02   -0.94188E-05   -0.10725E-07 30656   0.296E-04    0.227E-04
DAV:  30    -0.167598842632E+02   -0.53819E-05   -0.30239E-08 32464   0.159E-04    0.127E-04
DAV:  31    -0.167598867630E+02   -0.24998E-05   -0.51900E-09 32224   0.824E-05    0.645E-05
DAV:  32    -0.167598874775E+02   -0.71455E-06    0.17301E-09 32208   0.316E-05
   1 F= -.16759887E+02 E0= -.16759887E+02  d E =-.362407E-11  mag=     0.0000
 writing wavefunctions
