 running  256 mpi-ranks, with    1 threads/rank, on    7 nodes
 distrk:  each k-point on  128 cores,    2 groups
 distr:  one band on    4 cores,   32 groups
 vasp.6.4.1 05Apr23 (build May 18 2023 13:19:41) complex                         
 POSCAR found type information on POSCAR S 
 POSCAR found :  1 types and       1 ions
 Reading from existing POTCAR
 -----------------------------------------------------------------------------
|                                                                             |
|           W    W    AA    RRRRR   N    N  II  N    N   GGGG   !!!           |
|           W    W   A  A   R    R  NN   N  II  NN   N  G    G  !!!           |
|           W    W  A    A  R    R  N N  N  II  N N  N  G       !!!           |
|           W WW W  AAAAAA  RRRRR   N  N N  II  N  N N  G  GGG   !            |
|           WW  WW  A    A  R   R   N   NN  II  N   NN  G    G                |
|           W    W  A    A  R    R  N    N  II  N    N   GGGG   !!!           |
|                                                                             |
|     You use a magnetic or noncollinear calculation, but did not specify     |
|     the initial magnetic moment with the MAGMOM tag. Note that a            |
|     default of 1 will be used for all atoms. This ferromagnetic setup       |
|     may break the symmetry of the crystal, in particular it may rule        |
|     out finding an antiferromagnetic solution. Thence, we recommend         |
|     setting the initial magnetic moment manually or verifying carefully     |
|     that this magnetic setup is desired.                                    |
|                                                                             |
 -----------------------------------------------------------------------------

 scaLAPACK will be used
 Reading from existing POTCAR
 LDA part: xc-table for Pade appr. of Perdew
 POSCAR, INCAR and KPOINTS ok, starting setup
 FFT: planning ... GRIDC
 FFT: planning ... GRID_SOFT
 FFT: planning ... GRID
 WAVECAR not read
 WARNING: chargedensity file is incomplete
 WARNING: random wavefunctions but no delay for mixing, default for NELMDL
 entering main loop
       N       E                     dE             d eps       ncg     rms          rms(c)
DAV:   1     0.396631024039E+02    0.39663E+02   -0.26212E+02  7168   0.130E+00
DAV:   2     0.994590164074E+01   -0.29717E+02   -0.26321E+02  8064   0.843E-01
DAV:   3    -0.329085247532E+00   -0.10275E+02   -0.10098E+02  8768   0.483E-01
DAV:   4    -0.654840055172E+00   -0.32575E+00   -0.32349E+00  8288   0.120E-01
DAV:   5    -0.657277209553E+00   -0.24372E-02   -0.24370E-02  8480   0.115E-02    0.278E+00
DAV:   6    -0.866909291904E+00   -0.20963E+00   -0.30495E-02 10944   0.135E-02    0.656E-01
DAV:   7    -0.879070989364E+00   -0.12162E-01   -0.52493E-03  8032   0.596E-03    0.877E-01
DAV:   8    -0.878592322784E+00    0.47867E-03   -0.53489E-05  8320   0.512E-04    0.452E-01
DAV:   9    -0.881238930676E+00   -0.26466E-02   -0.71965E-03  8480   0.885E-04    0.204E+00
DAV:  10    -0.878377614050E+00    0.28613E-02   -0.24952E-03  8000   0.928E-04    0.638E-02
DAV:  11    -0.878539557655E+00   -0.16194E-03   -0.87972E-05  7744   0.469E-04    0.315E-02
DAV:  12    -0.878598222425E+00   -0.58665E-04   -0.56025E-05  7904   0.412E-04    0.177E-02
DAV:  13    -0.878626842372E+00   -0.28620E-04   -0.35939E-06  7968   0.121E-04    0.123E-02
DAV:  14    -0.878647206360E+00   -0.20364E-04   -0.20643E-06  7968   0.124E-04    0.674E-03
DAV:  15    -0.878647188933E+00    0.17428E-07   -0.16890E-08  8224   0.130E-05
   1 F= -.87864868E+00 E0= -.87479212E+00  d E =-.878649E+00  mag=     2.0000
 BRION: g(F)=  0.102E-45 g(S)=  0.000E+00
 reached required accuracy - stopping structural energy minimisation
 PROFILE, used timers:     319
