 vasp.6.4.2 20Jul23 (build Oct 12 2023 10:31:02) complex                         
 executed on              LinuxNV date 2025.05.19  10:42:08
 running  160 mpi-ranks, with    1 threads/rank, on   10 nodes
 distrk:  each k-point on   80 cores,    2 groups
 distr:  one band on NCORE=   5 cores,   16 groups


--------------------------------------------------------------------------------------------------------


 INCAR:
   ENCUT = 360.000000
   SIGMA = 0.050000
   EDIFF = 1.00e-06
   ALGO = Normal
   GGA = PE
   PREC = Normal
   SYSTEM = ./
   ICHARG = 2
   ISMEAR = 0
   ISPIN = 1
   ISTART = 0
   ISYM = 0
   KPAR = 2
   LMAXMIX = 4
   NELM = 100
   NPAR = 16
   LASPH = .TRUE.
   LCHARG = .FALSE.
   LWAVE = .FALSE.

 POTCAR:    PAW_PBE Ge 05Jan2001                  
 POTCAR:    PAW_PBE Se 06Sep2000                  
 POTCAR:    PAW_PBE Ge 05Jan2001                  
   VRHFIN =Ge: s2p2                                                                                 
   LEXCH  = PE                                                                                      
   EATOM  =   104.9960 eV,    7.7170 Ry                                                             
                                                                                                    
   TITEL  = PAW_PBE Ge 05Jan2001                                                                    
   LULTRA =        F    use ultrasoft PP ?                                                          
   IUNSCR =        1    unscreen: 0-lin 1-nonlin 2-no                                               
   RPACOR =    2.170    partial core radius                                                         
   POMASS =   72.610; ZVAL   =    4.000    mass and valenz                                          
   RCORE  =    2.300    outmost cutoff radius                                                       
   RWIGS  =    2.300; RWIGS  =    1.217    wigner-seitz radius (au A)                               
   ENMAX  =  173.807; ENMIN  =  130.355 eV                                                          
   ICORE  =        3    local potential                                                             
   LCOR   =        T    correct aug charges                                                         
   LPAW   =        T    paw PP                                                                      
   EAUG   =  385.843                                                                                
   DEXC   =    0.000                                                                                
   RMAX   =    2.342    core radius for proj-oper                                                   
   RAUG   =    1.300    factor for augmentation sphere                                              
   RDEP   =    2.318    radius for radial grids                                                     
   RDEPT  =    2.103    core radius for aug-charge                                                  
                                                                                                    
   Atomic configuration                                                                             
   10 entries                                                                                       
     n  l   j            E        occ.                                                              
     1  0  0.50    -10959.8463   2.0000                                                             
     2  0  0.50     -1371.6056   2.0000                                                             
     2  1  1.50     -1198.4791   6.0000                                                             
     3  0  0.50      -168.4733   2.0000                                                             
     3  1  1.50      -115.6019   6.0000                                                             
     3  2  2.50       -29.3106  10.0000                                                             
     4  0  0.50       -11.7309   2.0000                                                             
     4  1  0.50        -3.8952   2.0000                                                             
     4  2  1.50        -4.0817   0.0000                                                             
     4  3  2.50        -4.0817   0.0000                                                             
   Description                                                                                      
     l       E           TYP  RCUT    TYP  RCUT                                                     
     0    -11.7309493     23  2.300                                                                 
     0     -7.4578696     23  2.300                                                                 
     1     -3.8952261     23  2.300                                                                 
     1      6.1178114     23  2.300                                                                 
     2     -4.0817478     23  2.300                                                                 
     3     -1.3605826      7  2.300                                                                 
  local pseudopotential read in
  partial core-charges read in
  partial kinetic energy density read in
  atomic valenz-charges read in
  non local Contribution for L=            0  read in
    real space projection operators read in
  non local Contribution for L=            0  read in
    real space projection operators read in
  non local Contribution for L=            1  read in
    real space projection operators read in
  non local Contribution for L=            1  read in
    real space projection operators read in
  non local Contribution for L=            2  read in
    real space projection operators read in
    PAW grid and wavefunctions read in
 
   number of l-projection  operators is LMAX  =            5
   number of lm-projection operators is LMMAX =           13
 
 POTCAR:    PAW_PBE Se 06Sep2000                  
   VRHFIN =Se: s2p4                                                                                 
   LEXCH  = PE                                                                                      
   EATOM  =   257.1286 eV,   18.8984 Ry                                                             
                                                                                                    
   TITEL  = PAW_PBE Se 06Sep2000                                                                    
   LULTRA =        F    use ultrasoft PP ?                                                          
   IUNSCR =        1    unscreen: 0-lin 1-nonlin 2-no                                               
   RPACOR =    1.900    partial core radius                                                         
   POMASS =   78.960; ZVAL   =    6.000    mass and valenz                                          
   RCORE  =    2.100    outmost cutoff radius                                                       
   RWIGS  =    2.200; RWIGS  =    1.164    wigner-seitz radius (au A)                               
   ENMAX  =  211.555; ENMIN  =  158.666 eV                                                          
   ICORE  =        3    local potential                                                             
   LCOR   =        T    correct aug charges                                                         
   LPAW   =        T    paw PP                                                                      
   EAUG   =  446.842                                                                                
   DEXC   =    0.000                                                                                
   RMAX   =    2.147    core radius for proj-oper                                                   
   RAUG   =    1.300    factor for augmentation sphere                                              
   RDEP   =    2.177    radius for radial grids                                                     
   RDEPT  =    1.928    core radius for aug-charge                                                  
                                                                                                    
   Atomic configuration                                                                             
   10 entries                                                                                       
     n  l   j            E        occ.                                                              
     1  0  0.50    -12503.4787   2.0000                                                             
     2  0  0.50     -1606.9547   2.0000                                                             
     2  1  1.50     -1413.3140   6.0000                                                             
     3  0  0.50      -213.4885   2.0000                                                             
     3  1  1.50      -152.9538   6.0000                                                             
     3  2  2.50       -53.1221  10.0000                                                             
     4  0  0.50       -17.2865   2.0000                                                             
     4  1  0.50        -6.5110   4.0000                                                             
     4  2  2.50        -6.8029   0.0000                                                             
     4  3  2.50        -6.8029   0.0000                                                             
   Description                                                                                      
     l       E           TYP  RCUT    TYP  RCUT                                                     
     0    -17.2865377     23  2.100                                                                 
     0    -15.3094411     23  2.100                                                                 
     1     -6.5110275     23  2.100                                                                 
     1     -0.0695192     23  2.100                                                                 
     2     -6.8029130     23  2.100                                                                 
     3     -1.3605826      7  2.100                                                                 
  local pseudopotential read in
  partial core-charges read in
  partial kinetic energy density read in
  atomic valenz-charges read in
  non local Contribution for L=            0  read in
    real space projection operators read in
  non local Contribution for L=            0  read in
    real space projection operators read in
  non local Contribution for L=            1  read in
    real space projection operators read in
  non local Contribution for L=            1  read in
    real space projection operators read in
  non local Contribution for L=            2  read in
    real space projection operators read in
    PAW grid and wavefunctions read in
 
   number of l-projection  operators is LMAX  =            5
   number of lm-projection operators is LMMAX =           13
 
  PAW_PBE Ge 05Jan2001                  :
 energy of atom  1       EATOM= -104.9960
 kinetic energy error for atom=    0.0005 (will be added to EATOM!!)
  PAW_PBE Se 06Sep2000                  :
 energy of atom  2       EATOM= -257.1286
 kinetic energy error for atom=    0.0030 (will be added to EATOM!!)
 
 
 POSCAR: Ge Se
  positions in cartesian coordinates
  No initial velocities read in
 exchange correlation table for  LEXCH =        8
   RHO(1)=    0.500       N(1)  =     2000
   RHO(2)=  100.500       N(2)  =     4000
 


--------------------------------------------------------------------------------------------------------


 ion  position               nearest neighbor table
   1  0.757  0.169  0.132-   5 2.59   6 2.60   6 2.60
   2  0.257  0.669  0.368-   6 2.59   5 2.60   5 2.60
   3  0.750  0.904  0.868-   7 2.59   8 2.60   8 2.60
   4  0.250  0.404  0.632-   8 2.59   7 2.60   7 2.60
   5  0.757  0.052  0.351-   1 2.59   2 2.60   2 2.60
   6  0.257  0.552  0.149-   2 2.59   1 2.60   1 2.60
   7  0.750  0.021  0.649-   3 2.59   4 2.60   4 2.60
   8  0.250  0.521  0.851-   4 2.59   3 2.60   3 2.60
 

IMPORTANT INFORMATION: All symmetrisations will be switched off!
NOSYMM: (Re-)initialisation of all symmetry stuff for point group C_1.


----------------------------------------------------------------------------------------

                                     Primitive cell                                     

  volume of cell :     202.3233

  direct lattice vectors                    reciprocal lattice vectors
     3.858100176  0.000000000  0.000000000     0.259194929  0.000000000  0.000000000
     0.000000000  4.526575088  0.000000000     0.000000000  0.220917577  0.000000000
     0.000000000  0.000000000 11.585176468     0.000000000  0.000000000  0.086317200

  length of vectors
     3.858100176  4.526575088 11.585176468     0.259194929  0.220917577  0.086317200

  position of ions in fractional coordinates (direct lattice)
     0.757246380  0.168707125  0.131971745
     0.257246344  0.668707113  0.368028228
     0.749999855  0.903756548  0.868028249
     0.249999781  0.403756501  0.631971759
     0.757246364  0.051929473  0.351109927
     0.257246380  0.551929494  0.148890049
     0.749999761  0.020534152  0.648890076
     0.249999838  0.520534176  0.851109946

  ion indices of the primitive-cell ions
   primitive index   ion index
                 1           1
                 2           2
                 3           3
                 4           4
                 5           5
                 6           6
                 7           7
                 8           8

----------------------------------------------------------------------------------------

 
 
 KPOINTS: KPOINTS created by Atomic Simulation Env

Automatic generation of k-mesh.
 Grid dimensions read from file:
 generate k-points for:    6    6    2

 Generating k-lattice:

  Cartesian coordinates                     Fractional coordinates (reciprocal lattice)
     0.043199155  0.000000000  0.000000000     0.166666667  0.000000000  0.000000000
     0.000000000  0.036819596  0.000000000     0.000000000  0.166666667  0.000000000
     0.000000000  0.000000000  0.043158600     0.000000000  0.000000000  0.500000000

  Length of vectors
     0.043199155  0.036819596  0.043158600

  Shift w.r.t. Gamma in fractional coordinates (k-lattice)
     0.000000000  0.000000000  0.000000000

 
 Subroutine IBZKPT returns following result:
 ===========================================
 
 Found     40 irreducible k-points:
 
 Following reciprocal coordinates:
            Coordinates               Weight
  0.000000  0.000000  0.000000      1.000000
  0.166667  0.000000  0.000000      2.000000
  0.333333  0.000000  0.000000      2.000000
  0.500000  0.000000  0.000000      1.000000
  0.000000  0.166667  0.000000      2.000000
  0.166667  0.166667  0.000000      2.000000
  0.166667 -0.166667  0.000000      2.000000
  0.333333  0.166667  0.000000      2.000000
  0.333333 -0.166667  0.000000      2.000000
  0.500000  0.166667  0.000000      2.000000
  0.000000  0.333333  0.000000      2.000000
  0.166667  0.333333  0.000000      2.000000
  0.166667 -0.333333  0.000000      2.000000
  0.333333  0.333333  0.000000      2.000000
  0.333333 -0.333333  0.000000      2.000000
  0.500000  0.333333  0.000000      2.000000
  0.000000  0.500000  0.000000      1.000000
  0.166667  0.500000  0.000000      2.000000
  0.333333  0.500000  0.000000      2.000000
  0.500000  0.500000  0.000000      1.000000
  0.000000  0.000000  0.500000      1.000000
  0.166667  0.000000  0.500000      2.000000
  0.333333  0.000000  0.500000      2.000000
  0.500000  0.000000  0.500000      1.000000
  0.000000  0.166667  0.500000      2.000000
  0.166667  0.166667  0.500000      2.000000
  0.166667 -0.166667  0.500000      2.000000
  0.333333  0.166667  0.500000      2.000000
  0.333333 -0.166667  0.500000      2.000000
  0.500000  0.166667  0.500000      2.000000
  0.000000  0.333333  0.500000      2.000000
  0.166667  0.333333  0.500000      2.000000
  0.166667 -0.333333  0.500000      2.000000
  0.333333  0.333333  0.500000      2.000000
  0.333333 -0.333333  0.500000      2.000000
  0.500000  0.333333  0.500000      2.000000
  0.000000  0.500000  0.500000      1.000000
  0.166667  0.500000  0.500000      2.000000
  0.333333  0.500000  0.500000      2.000000
  0.500000  0.500000  0.500000      1.000000
 
 Following cartesian coordinates:
            Coordinates               Weight
  0.000000  0.000000  0.000000      1.000000
  0.043199  0.000000  0.000000      2.000000
  0.086398  0.000000  0.000000      2.000000
  0.129597  0.000000  0.000000      1.000000
  0.000000  0.036820  0.000000      2.000000
  0.043199  0.036820  0.000000      2.000000
  0.043199 -0.036820  0.000000      2.000000
  0.086398  0.036820  0.000000      2.000000
  0.086398 -0.036820  0.000000      2.000000
  0.129597  0.036820  0.000000      2.000000
  0.000000  0.073639  0.000000      2.000000
  0.043199  0.073639  0.000000      2.000000
  0.043199 -0.073639  0.000000      2.000000
  0.086398  0.073639  0.000000      2.000000
  0.086398 -0.073639  0.000000      2.000000
  0.129597  0.073639  0.000000      2.000000
  0.000000  0.110459  0.000000      1.000000
  0.043199  0.110459  0.000000      2.000000
  0.086398  0.110459  0.000000      2.000000
  0.129597  0.110459  0.000000      1.000000
  0.000000  0.000000  0.043159      1.000000
  0.043199  0.000000  0.043159      2.000000
  0.086398  0.000000  0.043159      2.000000
  0.129597  0.000000  0.043159      1.000000
  0.000000  0.036820  0.043159      2.000000
  0.043199  0.036820  0.043159      2.000000
  0.043199 -0.036820  0.043159      2.000000
  0.086398  0.036820  0.043159      2.000000
  0.086398 -0.036820  0.043159      2.000000
  0.129597  0.036820  0.043159      2.000000
  0.000000  0.073639  0.043159      2.000000
  0.043199  0.073639  0.043159      2.000000
  0.043199 -0.073639  0.043159      2.000000
  0.086398  0.073639  0.043159      2.000000
  0.086398 -0.073639  0.043159      2.000000
  0.129597  0.073639  0.043159      2.000000
  0.000000  0.110459  0.043159      1.000000
  0.043199  0.110459  0.043159      2.000000
  0.086398  0.110459  0.043159      2.000000
  0.129597  0.110459  0.043159      1.000000
 


--------------------------------------------------------------------------------------------------------




 Dimension of arrays:
   k-points           NKPTS =     40   k-points in BZ     NKDIM =     40   number of bands    NBANDS=     32
   number of dos      NEDOS =    301   number of ions     NIONS =      8
   non local maximal  LDIM  =      5   non local SUM 2l+1 LMDIM =     13
   total plane-waves  NPLWV =  23328
   max r-space proj   IRMAX =      1   max aug-charges    IRDMAX=   6465
   dimension x,y,z NGX =    18 NGY =   24 NGZ =   54
   dimension x,y,z NGXF=    36 NGYF=   48 NGZF=  108
   support grid    NGXF=    36 NGYF=   48 NGZF=  108
   ions per type =               4   4
   NGX,Y,Z   is equivalent  to a cutoff of   7.76,  8.81,  7.75 a.u.
   NGXF,Y,Z  is equivalent  to a cutoff of  15.51, 17.63, 15.50 a.u.

 SYSTEM =  ./                                      
 POSCAR =  Ge Se                                   

 Startparameter for this run:
   NWRITE =      2    write-flag & timer
   PREC   = normal    normal or accurate (medium, high low for compatibility)
   ISTART =      0    job   : 0-new  1-cont  2-samecut
   ICHARG =      2    charge: 1-file 2-atom 10-const
   ISPIN  =      1    spin polarized calculation?
   LNONCOLLINEAR =      F non collinear calculations
   LSORBIT =      F    spin-orbit coupling
   INIWAV =      1    electr: 0-lowe 1-rand  2-diag
   LASPH  =      T    aspherical Exc in radial PAW
 Electronic Relaxation 1
   ENCUT  =  360.0 eV  26.46 Ry    5.14 a.u.   5.97  7.00 17.92*2*pi/ulx,y,z
   ENINI  =  360.0     initial cutoff
   ENAUG  =  446.8 eV  augmentation charge cutoff
   NELM   =    100;   NELMIN=  2; NELMDL= -5     # of ELM steps 
   EDIFF  = 0.1E-05   stopping-criterion for ELM
   LREAL  =      F    real-space projection
   NLSPLINE    = F    spline interpolate recip. space projectors
   LCOMPAT=      F    compatible to vasp.4.4
   GGA_COMPAT  = T    GGA compatible to vasp.4.4-vasp.4.6
   LMAXPAW     = -100 max onsite density
   LMAXMIX     =    4 max onsite mixed and CHGCAR
   VOSKOWN=      0    Vosko Wilk Nusair interpolation
   ROPT   =    0.00000   0.00000
 Ionic relaxation
   EDIFFG = 0.1E-04   stopping-criterion for IOM
   NSW    =      0    number of steps for IOM
   NBLOCK =      1;   KBLOCK =      1    inner block; outer block 
   IBRION =     -1    ionic relax: 0-MD 1-quasi-New 2-CG
   NFREE  =      0    steps in history (QN), initial steepest desc. (CG)
   ISIF   =      2    stress and relaxation
   IWAVPR =     10    prediction:  0-non 1-charg 2-wave 3-comb
   ISYM   =      0    0-nonsym 1-usesym 2-fastsym
   LCORR  =      T    Harris-Foulkes like correction to forces

   POTIM  = 0.5000    time-step for ionic-motion
   TEIN   =    0.0    initial temperature
   TEBEG  =    0.0;   TEEND  =   0.0 temperature during run
   SMASS  =  -3.00    Nose mass-parameter (am)
   estimated Nose-frequenzy (Omega)   =  0.10E-29 period in steps = 0.13E+47 mass=  -0.340E-27a.u.
   SCALEE = 1.0000    scale energy and forces
   NPACO  =    256;   APACO  = 10.0  distance and # of slots for P.C.
   PSTRESS=    0.0 pullay stress

  Mass of Ions in am
   POMASS =  72.61 78.96
  Ionic Valenz
   ZVAL   =   4.00  6.00
  Atomic Wigner-Seitz radii
   RWIGS  =  -1.00 -1.00
  virtual crystal weights 
   VCA    =   1.00  1.00
   NELECT =      40.0000    total number of electrons
   NUPDOWN=      -1.0000    fix difference up-down

 DOS related values:
   EMIN   =  10.00;   EMAX   =-10.00  energy-range for DOS
   EFERMI =   0.00;   METHOD = LEGACY      
   ISMEAR =     0;   SIGMA  =   0.05  broadening in eV -4-tet -1-fermi 0-gaus

 Electronic relaxation 2 (details)
   IALGO  =     38    algorithm
   LDIAG  =      T    sub-space diagonalisation (order eigenvalues)
   LSUBROT=      F    optimize rotation matrix (better conditioning)
   TURBO    =      0    0=normal 1=particle mesh
   IRESTART =      0    0=no restart 2=restart with 2 vectors
   NREBOOT  =      0    no. of reboots
   NMIN     =      0    reboot dimension
   EREF     =   0.00    reference energy to select bands
   IMIX   =      4    mixing-type and parameters
     AMIX     =   0.40;   BMIX     =  1.00
     AMIX_MAG =   1.60;   BMIX_MAG =  1.00
     AMIN     =   0.10
     WC   =   100.;   INIMIX=   1;  MIXPRE=   1;  MAXMIX= -45

 Intra band minimization:
   WEIMIN = 0.0000     energy-eigenvalue tresh-hold
   EBREAK =  0.78E-08  absolut break condition
   DEPER  =   0.30     relativ break condition  

   TIME   =   0.40     timestep for ELM

  volume/ion in A,a.u.               =      25.29       170.67
  Fermi-wavevector in a.u.,A,eV,Ry     =   0.953702  1.802236 12.375155  0.909548
  Thomas-Fermi vector in A             =   2.082382
 
 Write flags
   LWAVE        =      F    write WAVECAR
   LDOWNSAMPLE  =      F    k-point downsampling of WAVECAR
   LCHARG       =      F    write CHGCAR
   LVTOT        =      F    write LOCPOT, total local potential
   LVHAR        =      F    write LOCPOT, Hartree potential only
   LELF         =      F    write electronic localiz. function (ELF)
   LORBIT       =      0    0 simple, 1 ext, 2 COOP (PROOUT), +10 PAW based schemes


 Dipole corrections
   LMONO  =      F    monopole corrections only (constant potential shift)
   LDIPOL =      F    correct potential (dipole corrections)
   IDIPOL =      0    1-x, 2-y, 3-z, 4-all directions 
   EPSILON=  1.0000000 bulk dielectric constant

 Exchange correlation treatment:
   GGA     =    PE    GGA type
   LEXCH   =     8    internal setting for exchange type
   LIBXC   =     F    Libxc                    
   VOSKOWN =     0    Vosko Wilk Nusair interpolation
   LHFCALC =     F    Hartree Fock is set to
   LHFONE  =     F    Hartree Fock one center treatment
   AEXX    =    0.0000 exact exchange contribution

 Linear response parameters
   LEPSILON=     F    determine dielectric tensor
   LRPA    =     F    only Hartree local field effects (RPA)
   LNABLA  =     F    use nabla operator in PAW spheres
   LVEL    =     F    velocity operator in full k-point grid
   CSHIFT  =0.1000    complex shift for real part using Kramers Kronig
   OMEGAMAX=  -1.0    maximum frequency
   DEG_THRESHOLD= 0.2000000E-02 threshold for treating states as degnerate
   RTIME   =   -0.100 relaxation time in fs
  (WPLASMAI=    0.000 imaginary part of plasma frequency in eV, 0.658/RTIME)
   DFIELD  = 0.0000000 0.0000000 0.0000000 field for delta impulse in time
 
  Optional k-point grid parameters
   LKPOINTS_OPT  =     F    use optional k-point grid
   KPOINTS_OPT_MODE=     1    mode for optional k-point grid
 
 Orbital magnetization related:
   ORBITALMAG=     F  switch on orbital magnetization
   LCHIMAG   =     F  perturbation theory with respect to B field
   DQ        =  0.001000  dq finite difference perturbation B field
   LLRAUG    =     F  two centre corrections for induced B field
   LBONE     =     F  B-component reconstruction in AE one-centre
   LVGVCALC  =     T  calculate vGv susceptibility
   LVGVAPPL  =     F  apply vGv susceptibility instead of pGv for G=0

 Random number generation:
   RANDOM_GENERATOR = DEFAULT
   PCG_SEED         = not used


--------------------------------------------------------------------------------------------------------


 Static calculation
 charge density and potential will be updated during run
 non-spin polarized calculation
 Variant of blocked Davidson
 Davidson routine will perform the subspace rotation
 perform sub-space diagonalisation
    after iterative eigenvector-optimisation
 modified Broyden-mixing scheme, WC =      100.0
 initial mixing is a Kerker type mixing with AMIX =  0.4000 and BMIX =      1.0000
 Hartree-type preconditioning will be used
 using additional bands            12
 reciprocal scheme for non local part
 use partial core corrections
 calculate Harris-corrections to forces 
   (improved forces if not selfconsistent)
 use gradient corrections 
 use of overlap-Matrix (Vanderbilt PP)
 Gauss-broadening in eV      SIGMA  =   0.05


--------------------------------------------------------------------------------------------------------


  energy-cutoff  :      360.00
  volume of cell :      202.32
      direct lattice vectors                 reciprocal lattice vectors
     3.858100176  0.000000000  0.000000000     0.259194929  0.000000000  0.000000000
     0.000000000  4.526575088  0.000000000     0.000000000  0.220917577  0.000000000
     0.000000000  0.000000000 11.585176468     0.000000000  0.000000000  0.086317200

  length of vectors
     3.858100176  4.526575088 11.585176468     0.259194929  0.220917577  0.086317200


 
 k-points in units of 2pi/SCALE and weight: KPOINTS created by Atomic Simulation Env
   0.00000000  0.00000000  0.00000000       0.014
   0.04319915  0.00000000  0.00000000       0.028
   0.08639831  0.00000000  0.00000000       0.028
   0.12959746  0.00000000  0.00000000       0.014
   0.00000000  0.03681960  0.00000000       0.028
   0.04319915  0.03681960  0.00000000       0.028
   0.04319915 -0.03681960  0.00000000       0.028
   0.08639831  0.03681960  0.00000000       0.028
   0.08639831 -0.03681960  0.00000000       0.028
   0.12959746  0.03681960  0.00000000       0.028
   0.00000000  0.07363919  0.00000000       0.028
   0.04319915  0.07363919  0.00000000       0.028
   0.04319915 -0.07363919  0.00000000       0.028
   0.08639831  0.07363919  0.00000000       0.028
   0.08639831 -0.07363919  0.00000000       0.028
   0.12959746  0.07363919  0.00000000       0.028
   0.00000000  0.11045879  0.00000000       0.014
   0.04319915  0.11045879  0.00000000       0.028
   0.08639831  0.11045879  0.00000000       0.028
   0.12959746  0.11045879  0.00000000       0.014
   0.00000000  0.00000000  0.04315860       0.014
   0.04319915  0.00000000  0.04315860       0.028
   0.08639831  0.00000000  0.04315860       0.028
   0.12959746  0.00000000  0.04315860       0.014
   0.00000000  0.03681960  0.04315860       0.028
   0.04319915  0.03681960  0.04315860       0.028
   0.04319915 -0.03681960  0.04315860       0.028
   0.08639831  0.03681960  0.04315860       0.028
   0.08639831 -0.03681960  0.04315860       0.028
   0.12959746  0.03681960  0.04315860       0.028
   0.00000000  0.07363919  0.04315860       0.028
   0.04319915  0.07363919  0.04315860       0.028
   0.04319915 -0.07363919  0.04315860       0.028
   0.08639831  0.07363919  0.04315860       0.028
   0.08639831 -0.07363919  0.04315860       0.028
   0.12959746  0.07363919  0.04315860       0.028
   0.00000000  0.11045879  0.04315860       0.014
   0.04319915  0.11045879  0.04315860       0.028
   0.08639831  0.11045879  0.04315860       0.028
   0.12959746  0.11045879  0.04315860       0.014
 
 k-points in reciprocal lattice and weights: KPOINTS created by Atomic Simulation Env
   0.00000000  0.00000000  0.00000000       0.014
   0.16666667  0.00000000  0.00000000       0.028
   0.33333333  0.00000000  0.00000000       0.028
   0.50000000  0.00000000  0.00000000       0.014
   0.00000000  0.16666667  0.00000000       0.028
   0.16666667  0.16666667  0.00000000       0.028
   0.16666667 -0.16666667  0.00000000       0.028
   0.33333333  0.16666667  0.00000000       0.028
   0.33333333 -0.16666667  0.00000000       0.028
   0.50000000  0.16666667  0.00000000       0.028
   0.00000000  0.33333333  0.00000000       0.028
   0.16666667  0.33333333  0.00000000       0.028
   0.16666667 -0.33333333  0.00000000       0.028
   0.33333333  0.33333333  0.00000000       0.028
   0.33333333 -0.33333333  0.00000000       0.028
   0.50000000  0.33333333  0.00000000       0.028
   0.00000000  0.50000000  0.00000000       0.014
   0.16666667  0.50000000  0.00000000       0.028
   0.33333333  0.50000000  0.00000000       0.028
   0.50000000  0.50000000  0.00000000       0.014
   0.00000000  0.00000000  0.50000000       0.014
   0.16666667  0.00000000  0.50000000       0.028
   0.33333333  0.00000000  0.50000000       0.028
   0.50000000  0.00000000  0.50000000       0.014
   0.00000000  0.16666667  0.50000000       0.028
   0.16666667  0.16666667  0.50000000       0.028
   0.16666667 -0.16666667  0.50000000       0.028
   0.33333333  0.16666667  0.50000000       0.028
   0.33333333 -0.16666667  0.50000000       0.028
   0.50000000  0.16666667  0.50000000       0.028
   0.00000000  0.33333333  0.50000000       0.028
   0.16666667  0.33333333  0.50000000       0.028
   0.16666667 -0.33333333  0.50000000       0.028
   0.33333333  0.33333333  0.50000000       0.028
   0.33333333 -0.33333333  0.50000000       0.028
   0.50000000  0.33333333  0.50000000       0.028
   0.00000000  0.50000000  0.50000000       0.014
   0.16666667  0.50000000  0.50000000       0.028
   0.33333333  0.50000000  0.50000000       0.028
   0.50000000  0.50000000  0.50000000       0.014
 
 position of ions in fractional coordinates (direct lattice) 
   0.75724638  0.16870713  0.13197174
   0.25724634  0.66870711  0.36802823
   0.74999985  0.90375655  0.86802825
   0.24999978  0.40375650  0.63197176
   0.75724636  0.05192947  0.35110993
   0.25724638  0.55192949  0.14889005
   0.74999976  0.02053415  0.64889008
   0.24999984  0.52053418  0.85110995
 
 position of ions in cartesian coordinates  (Angst):
   2.92153239  0.76366547  1.52891595
   0.99248217  3.02695296  4.26367197
   2.89357457  4.09092188 10.05626045
   0.96452420  1.82763412  7.32150435
   2.92153233  0.23506266  4.06767047
   0.99248231  2.49835030  1.72491749
   2.89357421  0.09294938  7.51750603
   0.96452442  2.35623703  9.86025892
 


--------------------------------------------------------------------------------------------------------


 k-point   1 :   0.0000 0.0000 0.0000  plane waves:    3119
 k-point   2 :   0.1667 0.0000 0.0000  plane waves:    3116
 k-point   3 :   0.3333 0.0000 0.0000  plane waves:    3142
 k-point   4 :   0.5000 0.0000 0.0000  plane waves:    3148
 k-point   5 :   0.0000 0.1667 0.0000  plane waves:    3108
 k-point   6 :   0.1667 0.1667 0.0000  plane waves:    3123
 k-point   7 :   0.1667-0.1667 0.0000  plane waves:    3123
 k-point   8 :   0.3333 0.1667 0.0000  plane waves:    3135
 k-point   9 :   0.3333-0.1667 0.0000  plane waves:    3135
 k-point  10 :   0.5000 0.1667 0.0000  plane waves:    3138
 k-point  11 :   0.0000 0.3333 0.0000  plane waves:    3116
 k-point  12 :   0.1667 0.3333 0.0000  plane waves:    3133
 k-point  13 :   0.1667-0.3333 0.0000  plane waves:    3133
 k-point  14 :   0.3333 0.3333 0.0000  plane waves:    3155
 k-point  15 :   0.3333-0.3333 0.0000  plane waves:    3155
 k-point  16 :   0.5000 0.3333 0.0000  plane waves:    3152
 k-point  17 :   0.0000 0.5000 0.0000  plane waves:    3134
 k-point  18 :   0.1667 0.5000 0.0000  plane waves:    3140
 k-point  19 :   0.3333 0.5000 0.0000  plane waves:    3144
 k-point  20 :   0.5000 0.5000 0.0000  plane waves:    3144
 k-point  21 :   0.0000 0.0000 0.5000  plane waves:    3092
 k-point  22 :   0.1667 0.0000 0.5000  plane waves:    3124
 k-point  23 :   0.3333 0.0000 0.5000  plane waves:    3140
 k-point  24 :   0.5000 0.0000 0.5000  plane waves:    3132
 k-point  25 :   0.0000 0.1667 0.5000  plane waves:    3112
 k-point  26 :   0.1667 0.1667 0.5000  plane waves:    3140
 k-point  27 :   0.1667-0.1667 0.5000  plane waves:    3140
 k-point  28 :   0.3333 0.1667 0.5000  plane waves:    3134
 k-point  29 :   0.3333-0.1667 0.5000  plane waves:    3134
 k-point  30 :   0.5000 0.1667 0.5000  plane waves:    3144
 k-point  31 :   0.0000 0.3333 0.5000  plane waves:    3130
 k-point  32 :   0.1667 0.3333 0.5000  plane waves:    3148
 k-point  33 :   0.1667-0.3333 0.5000  plane waves:    3148
 k-point  34 :   0.3333 0.3333 0.5000  plane waves:    3142
 k-point  35 :   0.3333-0.3333 0.5000  plane waves:    3142
 k-point  36 :   0.5000 0.3333 0.5000  plane waves:    3152
 k-point  37 :   0.0000 0.5000 0.5000  plane waves:    3132
 k-point  38 :   0.1667 0.5000 0.5000  plane waves:    3148
 k-point  39 :   0.3333 0.5000 0.5000  plane waves:    3140
 k-point  40 :   0.5000 0.5000 0.5000  plane waves:    3160

 maximum and minimum number of plane-waves per node :       659      606

 maximum number of plane-waves:      3160
 maximum index in each direction: 
   IXMAX=    5   IYMAX=    7   IZMAX=   17
   IXMIN=   -6   IYMIN=   -7   IZMIN=  -18


 parallel 3D FFT for wavefunctions:
    minimum data exchange during FFTs selected (reduces bandwidth)
 parallel 3D FFT for charge:
    minimum data exchange during FFTs selected (reduces bandwidth)


 total amount of memory used by VASP MPI-rank0    37119. kBytes
=======================================================================

   base      :      30000. kBytes
   nonl-proj :       5406. kBytes
   fftplans  :        334. kBytes
   grid      :        503. kBytes
   one-center:         16. kBytes
   wavefun   :        860. kBytes
 
     INWAV:  cpu time      0.0000: real time      0.0001
 Broyden mixing: mesh for mixing (old mesh)
   NGX = 11   NGY = 15   NGZ = 35
  (NGX  = 36   NGY  = 48   NGZ  =108)
  gives a total of   5775 points

 initial charge density was supplied:
 charge density of overlapping atoms calculated
 number of electron      40.0000000 magnetization 
 keeping initial charge density in first step


--------------------------------------------------------------------------------------------------------


 Maximum index for augmentation-charges           150 (set IRDMAX)


--------------------------------------------------------------------------------------------------------


 First call to EWALD:  gamma=   0.302
 Maximum number of real-space cells 4x 3x 2
 Maximum number of reciprocal cells 2x 2x 5

    FEWALD:  cpu time      0.0010: real time      0.0011


--------------------------------------- Ionic step        1  -------------------------------------------




--------------------------------------- Iteration      1(   1)  ---------------------------------------


    POTLOK:  cpu time      0.0083: real time      0.0083
    SETDIJ:  cpu time      0.2199: real time      0.2205
     EDDAV:  cpu time      0.3061: real time      0.3080
       DOS:  cpu time      0.0011: real time      0.0011
    --------------------------------------------
      LOOP:  cpu time      0.5354: real time      0.5379

 eigenvalue-minimisations  :  2560
 total energy-change (2. order) : 0.1326710E+03  (-0.1286614E+04)
 number of electron      40.0000000 magnetization 
 augmentation part       40.0000000 magnetization 

 Free energy of the ion-electron system (eV)
  ---------------------------------------------------
  alpha Z        PSCENC =        83.74935623
  Ewald energy   TEWEN  =     -1381.74419432
  -Hartree energ DENC   =      -147.72404963
  -exchange      EXHF   =         0.00000000
  -V(xc)+E(xc)   XCENC  =       -33.74722318
  PAW double counting   =      1193.78262552    -1080.73714043
  entropy T*S    EENTRO =        -0.00239549
  eigenvalues    EBANDS =        50.60944704
  atomic energy  EATOM  =      1448.48460880
  Solvation  Ediel_sol  =         0.00000000
  ---------------------------------------------------
  free energy    TOTEN  =       132.67103454 eV

  energy without entropy =      132.67343003  energy(sigma->0) =      132.67223229


--------------------------------------------------------------------------------------------------------




--------------------------------------- Iteration      1(   2)  ---------------------------------------


     EDDAV:  cpu time      0.4303: real time      0.4334
       DOS:  cpu time      0.0010: real time      0.0011
    --------------------------------------------
      LOOP:  cpu time      0.4314: real time      0.4345

 eigenvalue-minimisations  :  3728
 total energy-change (2. order) :-0.1575450E+03  (-0.1531373E+03)
 number of electron      40.0000000 magnetization 
 augmentation part       40.0000000 magnetization 

 Free energy of the ion-electron system (eV)
  ---------------------------------------------------
  alpha Z        PSCENC =        83.74935623
  Ewald energy   TEWEN  =     -1381.74419432
  -Hartree energ DENC   =      -147.72404963
  -exchange      EXHF   =         0.00000000
  -V(xc)+E(xc)   XCENC  =       -33.74722318
  PAW double counting   =      1193.78262552    -1080.73714043
  entropy T*S    EENTRO =        -0.00043925
  eigenvalues    EBANDS =      -106.93749304
  atomic energy  EATOM  =      1448.48460880
  Solvation  Ediel_sol  =         0.00000000
  ---------------------------------------------------
  free energy    TOTEN  =       -24.87394929 eV

  energy without entropy =      -24.87351005  energy(sigma->0) =      -24.87372967


--------------------------------------------------------------------------------------------------------




--------------------------------------- Iteration      1(   3)  ---------------------------------------


     EDDAV:  cpu time      0.3618: real time      0.3637
       DOS:  cpu time      0.0008: real time      0.0008
    --------------------------------------------
      LOOP:  cpu time      0.3625: real time      0.3645

 eigenvalue-minimisations  :  3168
 total energy-change (2. order) :-0.9053977E+01  (-0.9032585E+01)
 number of electron      40.0000000 magnetization 
 augmentation part       40.0000000 magnetization 

 Free energy of the ion-electron system (eV)
  ---------------------------------------------------
  alpha Z        PSCENC =        83.74935623
  Ewald energy   TEWEN  =     -1381.74419432
  -Hartree energ DENC   =      -147.72404963
  -exchange      EXHF   =         0.00000000
  -V(xc)+E(xc)   XCENC  =       -33.74722318
  PAW double counting   =      1193.78262552    -1080.73714043
  entropy T*S    EENTRO =        -0.00000001
  eigenvalues    EBANDS =      -115.99190891
  atomic energy  EATOM  =      1448.48460880
  Solvation  Ediel_sol  =         0.00000000
  ---------------------------------------------------
  free energy    TOTEN  =       -33.92792592 eV

  energy without entropy =      -33.92792592  energy(sigma->0) =      -33.92792592


--------------------------------------------------------------------------------------------------------




--------------------------------------- Iteration      1(   4)  ---------------------------------------


     EDDAV:  cpu time      0.3861: real time      0.3877
       DOS:  cpu time      0.0007: real time      0.0007
    --------------------------------------------
      LOOP:  cpu time      0.3868: real time      0.3885

 eigenvalue-minimisations  :  3264
 total energy-change (2. order) :-0.6510672E-01  (-0.6509538E-01)
 number of electron      40.0000000 magnetization 
 augmentation part       40.0000000 magnetization 

 Free energy of the ion-electron system (eV)
  ---------------------------------------------------
  alpha Z        PSCENC =        83.74935623
  Ewald energy   TEWEN  =     -1381.74419432
  -Hartree energ DENC   =      -147.72404963
  -exchange      EXHF   =         0.00000000
  -V(xc)+E(xc)   XCENC  =       -33.74722318
  PAW double counting   =      1193.78262552    -1080.73714043
  entropy T*S    EENTRO =        -0.00000001
  eigenvalues    EBANDS =      -116.05701563
  atomic energy  EATOM  =      1448.48460880
  Solvation  Ediel_sol  =         0.00000000
  ---------------------------------------------------
  free energy    TOTEN  =       -33.99303264 eV

  energy without entropy =      -33.99303264  energy(sigma->0) =      -33.99303264


--------------------------------------------------------------------------------------------------------




--------------------------------------- Iteration      1(   5)  ---------------------------------------


     EDDAV:  cpu time      0.3785: real time      0.3808
       DOS:  cpu time      0.0007: real time      0.0007
    CHARGE:  cpu time      0.0058: real time      0.0059
    MIXING:  cpu time      0.0004: real time      0.0004
    --------------------------------------------
      LOOP:  cpu time      0.3854: real time      0.3877

 eigenvalue-minimisations  :  3200
 total energy-change (2. order) :-0.4436299E-03  (-0.4436214E-03)
 number of electron      39.9999966 magnetization 
 augmentation part       -7.4324766 magnetization 

 Broyden mixing:
  rms(total) = 0.65771E+00    rms(broyden)= 0.65770E+00
  rms(prec ) = 0.73666E+00
  weight for this iteration     100.00

 Free energy of the ion-electron system (eV)
  ---------------------------------------------------
  alpha Z        PSCENC =        83.74935623
  Ewald energy   TEWEN  =     -1381.74419432
  -Hartree energ DENC   =      -147.72404963
  -exchange      EXHF   =         0.00000000
  -V(xc)+E(xc)   XCENC  =       -33.74722318
  PAW double counting   =      1193.78262552    -1080.73714043
  entropy T*S    EENTRO =        -0.00000001
  eigenvalues    EBANDS =      -116.05745926
  atomic energy  EATOM  =      1448.48460880
  Solvation  Ediel_sol  =         0.00000000
  ---------------------------------------------------
  free energy    TOTEN  =       -33.99347627 eV

  energy without entropy =      -33.99347627  energy(sigma->0) =      -33.99347627


--------------------------------------------------------------------------------------------------------




--------------------------------------- Iteration      1(   6)  ---------------------------------------


    POTLOK:  cpu time      0.0076: real time      0.0077
    SETDIJ:  cpu time      0.2185: real time      0.2191
     EDDAV:  cpu time      0.3585: real time      0.3603
       DOS:  cpu time      0.0010: real time      0.0010
    CHARGE:  cpu time      0.0053: real time      0.0053
    MIXING:  cpu time      0.0004: real time      0.0004
    --------------------------------------------
      LOOP:  cpu time      0.5914: real time      0.5939

 eigenvalue-minimisations  :  3120
 total energy-change (2. order) : 0.3840447E+00  (-0.8324749E-01)
 number of electron      39.9999967 magnetization 
 augmentation part       -7.3706137 magnetization 

 Broyden mixing:
  rms(total) = 0.41269E+00    rms(broyden)= 0.41269E+00
  rms(prec ) = 0.43321E+00
  weight for this iteration     100.00

 eigenvalues of (default mixing * dielectric matrix)
  average eigenvalue GAMMA=   2.1816
  2.1816

 Free energy of the ion-electron system (eV)
  ---------------------------------------------------
  alpha Z        PSCENC =        83.74935623
  Ewald energy   TEWEN  =     -1381.74419432
  -Hartree energ DENC   =      -154.27429932
  -exchange      EXHF   =         0.00000000
  -V(xc)+E(xc)   XCENC  =       -33.11773139
  PAW double counting   =      1458.18670315    -1345.45659545
  entropy T*S    EENTRO =        -0.00058895
  eigenvalues    EBANDS =      -109.43669030
  atomic energy  EATOM  =      1448.48460880
  Solvation  Ediel_sol  =         0.00000000
  ---------------------------------------------------
  free energy    TOTEN  =       -33.60943156 eV

  energy without entropy =      -33.60884260  energy(sigma->0) =      -33.60913708


--------------------------------------------------------------------------------------------------------




--------------------------------------- Iteration      1(   7)  ---------------------------------------


    POTLOK:  cpu time      0.0076: real time      0.0077
    SETDIJ:  cpu time      0.2177: real time      0.2185
     EDDAV:  cpu time      0.3457: real time      0.3473
       DOS:  cpu time      0.0010: real time      0.0010
    CHARGE:  cpu time      0.0054: real time      0.0054
    MIXING:  cpu time      0.0005: real time      0.0005
    --------------------------------------------
      LOOP:  cpu time      0.5778: real time      0.5804

 eigenvalue-minimisations  :  2960
 total energy-change (2. order) : 0.9866426E-02  (-0.2242419E-01)
 number of electron      39.9999968 magnetization 
 augmentation part       -7.3522268 magnetization 

 Broyden mixing:
  rms(total) = 0.13033E+00    rms(broyden)= 0.13033E+00
  rms(prec ) = 0.13875E+00
  weight for this iteration     100.00

 eigenvalues of (default mixing * dielectric matrix)
  average eigenvalue GAMMA=   1.7808
  1.1789  2.3827

 Free energy of the ion-electron system (eV)
  ---------------------------------------------------
  alpha Z        PSCENC =        83.74935623
  Ewald energy   TEWEN  =     -1381.74419432
  -Hartree energ DENC   =      -157.34959672
  -exchange      EXHF   =         0.00000000
  -V(xc)+E(xc)   XCENC  =       -32.62711653
  PAW double counting   =      1784.20547482    -1671.70475616
  entropy T*S    EENTRO =        -0.00077467
  eigenvalues    EBANDS =      -106.61256658
  atomic energy  EATOM  =      1448.48460880
  Solvation  Ediel_sol  =         0.00000000
  ---------------------------------------------------
  free energy    TOTEN  =       -33.59956513 eV

  energy without entropy =      -33.59879047  energy(sigma->0) =      -33.59917780


--------------------------------------------------------------------------------------------------------




--------------------------------------- Iteration      1(   8)  ---------------------------------------


    POTLOK:  cpu time      0.0076: real time      0.0077
    SETDIJ:  cpu time      0.2178: real time      0.2184
     EDDAV:  cpu time      0.3932: real time      0.3950
       DOS:  cpu time      0.0011: real time      0.0011
    CHARGE:  cpu time      0.0055: real time      0.0056
    MIXING:  cpu time      0.0005: real time      0.0005
    --------------------------------------------
      LOOP:  cpu time      0.6257: real time      0.6282

 eigenvalue-minimisations  :  3184
 total energy-change (2. order) : 0.1382911E-03  (-0.2330972E-02)
 number of electron      39.9999968 magnetization 
 augmentation part       -7.3603046 magnetization 

 Broyden mixing:
  rms(total) = 0.18543E-01    rms(broyden)= 0.18543E-01
  rms(prec ) = 0.23073E-01
  weight for this iteration     100.00

 eigenvalues of (default mixing * dielectric matrix)
  average eigenvalue GAMMA=   1.6864
  2.5220  1.2687  1.2687

 Free energy of the ion-electron system (eV)
  ---------------------------------------------------
  alpha Z        PSCENC =        83.74935623
  Ewald energy   TEWEN  =     -1381.74419432
  -Hartree energ DENC   =      -157.63105528
  -exchange      EXHF   =         0.00000000
  -V(xc)+E(xc)   XCENC  =       -32.47457257
  PAW double counting   =      1923.72435594    -1811.28109349
  entropy T*S    EENTRO =        -0.00072733
  eigenvalues    EBANDS =      -106.42610484
  atomic energy  EATOM  =      1448.48460880
  Solvation  Ediel_sol  =         0.00000000
  ---------------------------------------------------
  free energy    TOTEN  =       -33.59942684 eV

  energy without entropy =      -33.59869952  energy(sigma->0) =      -33.59906318


--------------------------------------------------------------------------------------------------------




--------------------------------------- Iteration      1(   9)  ---------------------------------------


    POTLOK:  cpu time      0.0076: real time      0.0078
    SETDIJ:  cpu time      0.2187: real time      0.2195
     EDDAV:  cpu time      0.3706: real time      0.3722
       DOS:  cpu time      0.0010: real time      0.0010
    CHARGE:  cpu time      0.0055: real time      0.0055
    MIXING:  cpu time      0.0005: real time      0.0005
    --------------------------------------------
      LOOP:  cpu time      0.6038: real time      0.6064

 eigenvalue-minimisations  :  3184
 total energy-change (2. order) :-0.4909581E-03  (-0.3997365E-03)
 number of electron      39.9999968 magnetization 
 augmentation part       -7.3579319 magnetization 

 Broyden mixing:
  rms(total) = 0.70866E-02    rms(broyden)= 0.70866E-02
  rms(prec ) = 0.81270E-02
  weight for this iteration     100.00

 eigenvalues of (default mixing * dielectric matrix)
  average eigenvalue GAMMA=   1.7284
  2.3079  2.3079  1.1490  1.1490

 Free energy of the ion-electron system (eV)
  ---------------------------------------------------
  alpha Z        PSCENC =        83.74935623
  Ewald energy   TEWEN  =     -1381.74419432
  -Hartree energ DENC   =      -158.08257971
  -exchange      EXHF   =         0.00000000
  -V(xc)+E(xc)   XCENC  =       -32.42658738
  PAW double counting   =      1939.31682148    -1826.88346115
  entropy T*S    EENTRO =        -0.00076412
  eigenvalues    EBANDS =      -106.01311761
  atomic energy  EATOM  =      1448.48460880
  Solvation  Ediel_sol  =         0.00000000
  ---------------------------------------------------
  free energy    TOTEN  =       -33.59991780 eV

  energy without entropy =      -33.59915368  energy(sigma->0) =      -33.59953574


--------------------------------------------------------------------------------------------------------




--------------------------------------- Iteration      1(  10)  ---------------------------------------


    POTLOK:  cpu time      0.0076: real time      0.0077
    SETDIJ:  cpu time      0.2181: real time      0.2188
     EDDAV:  cpu time      0.3596: real time      0.3615
       DOS:  cpu time      0.0010: real time      0.0010
    CHARGE:  cpu time      0.0053: real time      0.0054
    MIXING:  cpu time      0.0005: real time      0.0005
    --------------------------------------------
      LOOP:  cpu time      0.5921: real time      0.5948

 eigenvalue-minimisations  :  3104
 total energy-change (2. order) :-0.2000759E-03  (-0.4140366E-04)
 number of electron      39.9999968 magnetization 
 augmentation part       -7.3581205 magnetization 

 Broyden mixing:
  rms(total) = 0.25272E-02    rms(broyden)= 0.25271E-02
  rms(prec ) = 0.31480E-02
  weight for this iteration     100.00

 eigenvalues of (default mixing * dielectric matrix)
  average eigenvalue GAMMA=   1.7650
  2.7636  2.5692  1.0790  1.2067  1.2067

 Free energy of the ion-electron system (eV)
  ---------------------------------------------------
  alpha Z        PSCENC =        83.74935623
  Ewald energy   TEWEN  =     -1381.74419432
  -Hartree energ DENC   =      -158.10971253
  -exchange      EXHF   =         0.00000000
  -V(xc)+E(xc)   XCENC  =       -32.42332417
  PAW double counting   =      1932.02971215    -1819.58979942
  entropy T*S    EENTRO =        -0.00075534
  eigenvalues    EBANDS =      -105.99600927
  atomic energy  EATOM  =      1448.48460880
  Solvation  Ediel_sol  =         0.00000000
  ---------------------------------------------------
  free energy    TOTEN  =       -33.60011788 eV

  energy without entropy =      -33.59936253  energy(sigma->0) =      -33.59974020


--------------------------------------------------------------------------------------------------------




--------------------------------------- Iteration      1(  11)  ---------------------------------------


    POTLOK:  cpu time      0.0076: real time      0.0078
    SETDIJ:  cpu time      0.2144: real time      0.2149
     EDDAV:  cpu time      0.3512: real time      0.3529
       DOS:  cpu time      0.0009: real time      0.0010
    CHARGE:  cpu time      0.0054: real time      0.0054
    MIXING:  cpu time      0.0005: real time      0.0005
    --------------------------------------------
      LOOP:  cpu time      0.5801: real time      0.5824

 eigenvalue-minimisations  :  3040
 total energy-change (2. order) :-0.5950686E-04  (-0.6759041E-05)
 number of electron      39.9999968 magnetization 
 augmentation part       -7.3582249 magnetization 

 Broyden mixing:
  rms(total) = 0.12855E-02    rms(broyden)= 0.12855E-02
  rms(prec ) = 0.14941E-02
  weight for this iteration     100.00

 eigenvalues of (default mixing * dielectric matrix)
  average eigenvalue GAMMA=   1.7371
  2.6375  2.6375  1.9066  0.9745  1.1332  1.1332

 Free energy of the ion-electron system (eV)
  ---------------------------------------------------
  alpha Z        PSCENC =        83.74935623
  Ewald energy   TEWEN  =     -1381.74419432
  -Hartree energ DENC   =      -158.16045252
  -exchange      EXHF   =         0.00000000
  -V(xc)+E(xc)   XCENC  =       -32.41511551
  PAW double counting   =      1933.22090027    -1820.78106697
  entropy T*S    EENTRO =        -0.00075264
  eigenvalues    EBANDS =      -105.95346073
  atomic energy  EATOM  =      1448.48460880
  Solvation  Ediel_sol  =         0.00000000
  ---------------------------------------------------
  free energy    TOTEN  =       -33.60017738 eV

  energy without entropy =      -33.59942475  energy(sigma->0) =      -33.59980106


--------------------------------------------------------------------------------------------------------




--------------------------------------- Iteration      1(  12)  ---------------------------------------


    POTLOK:  cpu time      0.0075: real time      0.0076
    SETDIJ:  cpu time      0.2185: real time      0.2191
     EDDAV:  cpu time      0.4078: real time      0.4101
       DOS:  cpu time      0.0012: real time      0.0012
    CHARGE:  cpu time      0.0058: real time      0.0059
    MIXING:  cpu time      0.0005: real time      0.0005
    --------------------------------------------
      LOOP:  cpu time      0.6413: real time      0.6443

 eigenvalue-minimisations  :  3296
 total energy-change (2. order) :-0.2465583E-05  (-0.1011508E-05)
 number of electron      39.9999968 magnetization 
 augmentation part       -7.3580719 magnetization 

 Broyden mixing:
  rms(total) = 0.30772E-03    rms(broyden)= 0.30771E-03
  rms(prec ) = 0.37668E-03
  weight for this iteration     100.00

 eigenvalues of (default mixing * dielectric matrix)
  average eigenvalue GAMMA=   1.7143
  3.0249  2.4653  1.9290  1.3627  0.9680  1.1253  1.1253

 Free energy of the ion-electron system (eV)
  ---------------------------------------------------
  alpha Z        PSCENC =        83.74935623
  Ewald energy   TEWEN  =     -1381.74419432
  -Hartree energ DENC   =      -158.17974612
  -exchange      EXHF   =         0.00000000
  -V(xc)+E(xc)   XCENC  =       -32.41373647
  PAW double counting   =      1932.41439288    -1819.97452086
  entropy T*S    EENTRO =        -0.00075409
  eigenvalues    EBANDS =      -105.93558590
  atomic energy  EATOM  =      1448.48460880
  Solvation  Ediel_sol  =         0.00000000
  ---------------------------------------------------
  free energy    TOTEN  =       -33.60017985 eV

  energy without entropy =      -33.59942576  energy(sigma->0) =      -33.59980281


--------------------------------------------------------------------------------------------------------




--------------------------------------- Iteration      1(  13)  ---------------------------------------


    POTLOK:  cpu time      0.0076: real time      0.0079
    SETDIJ:  cpu time      0.2194: real time      0.2199
     EDDAV:  cpu time      0.3111: real time      0.3127
       DOS:  cpu time      0.0010: real time      0.0010
    CHARGE:  cpu time      0.0053: real time      0.0054
    MIXING:  cpu time      0.0006: real time      0.0006
    --------------------------------------------
      LOOP:  cpu time      0.5451: real time      0.5474

 eigenvalue-minimisations  :  2352
 total energy-change (2. order) :-0.1342721E-05  (-0.1766856E-06)
 number of electron      39.9999968 magnetization 
 augmentation part       -7.3580516 magnetization 

 Broyden mixing:
  rms(total) = 0.11741E-03    rms(broyden)= 0.11741E-03
  rms(prec ) = 0.14340E-03
  weight for this iteration     100.00

 eigenvalues of (default mixing * dielectric matrix)
  average eigenvalue GAMMA=   1.7622
  3.1291  2.4338  2.0993  2.0993  0.9730  1.1077  1.1077  1.1475

 Free energy of the ion-electron system (eV)
  ---------------------------------------------------
  alpha Z        PSCENC =        83.74935623
  Ewald energy   TEWEN  =     -1381.74419432
  -Hartree energ DENC   =      -158.18455620
  -exchange      EXHF   =         0.00000000
  -V(xc)+E(xc)   XCENC  =       -32.41300256
  PAW double counting   =      1932.61775520    -1820.17789162
  entropy T*S    EENTRO =        -0.00075344
  eigenvalues    EBANDS =      -105.93150327
  atomic energy  EATOM  =      1448.48460880
  Solvation  Ediel_sol  =         0.00000000
  ---------------------------------------------------
  free energy    TOTEN  =       -33.60018119 eV

  energy without entropy =      -33.59942775  energy(sigma->0) =      -33.59980447


--------------------------------------------------------------------------------------------------------




--------------------------------------- Iteration      1(  14)  ---------------------------------------


    POTLOK:  cpu time      0.0077: real time      0.0079
    SETDIJ:  cpu time      0.2174: real time      0.2182
     EDDAV:  cpu time      0.2466: real time      0.2477
       DOS:  cpu time      0.0010: real time      0.0010
    --------------------------------------------
      LOOP:  cpu time      0.4727: real time      0.4748

 eigenvalue-minimisations  :  1616
 total energy-change (2. order) :-0.3039575E-06  (-0.2901008E-07)
 number of electron      39.9999968 magnetization 
 augmentation part       -7.3580516 magnetization 

 Free energy of the ion-electron system (eV)
  ---------------------------------------------------
  alpha Z        PSCENC =        83.74935623
  Ewald energy   TEWEN  =     -1381.74419432
  -Hartree energ DENC   =      -158.18738739
  -exchange      EXHF   =         0.00000000
  -V(xc)+E(xc)   XCENC  =       -32.41285697
  PAW double counting   =      1932.63175338    -1820.19194187
  entropy T*S    EENTRO =        -0.00075360
  eigenvalues    EBANDS =      -105.92876574
  atomic energy  EATOM  =      1448.48460880
  Solvation  Ediel_sol  =         0.00000000
  ---------------------------------------------------
  free energy    TOTEN  =       -33.60018149 eV

  energy without entropy =      -33.59942789  energy(sigma->0) =      -33.59980469


--------------------------------------------------------------------------------------------------------




 average (electrostatic) potential at core
  the test charge radii are     1.1631  1.0808
  (the norm of the test charge is              1.0000)
       1 -33.7600       2 -33.7600       3 -33.7600       4 -33.7600       5 -55.2901
       6 -55.2901       7 -55.2901       8 -55.2901
 
 
 
 E-fermi :   3.5187     XC(G=0):  -9.0516     alpha+bet : -8.3433

 Fermi energy:         3.5186893748

 k-point     1 :       0.0000    0.0000    0.0000
  band No.  band energies     occupation 
      1     -11.2185      2.00000
      2     -10.9681      2.00000
      3      -9.9770      2.00000
      4      -9.5800      2.00000
      5      -4.9424      2.00000
      6      -4.4541      2.00000
      7      -3.0422      2.00000
      8      -2.4330      2.00000
      9      -2.0955      2.00000
     10      -0.6991      2.00000
     11      -0.5270      2.00000
     12      -0.3950      2.00000
     13      -0.0764      2.00000
     14       0.1877      2.00000
     15       1.0242      2.00000
     16       1.1346      2.00000
     17       1.5341      2.00000
     18       1.7258      2.00000
     19       1.7392      2.00000
     20       3.5088      1.22079
     21       3.5286      0.77913
     22       5.3179      0.00000
     23       5.6897      0.00000
     24       5.6943      0.00000
     25       6.0050      0.00000
     26       6.1813      0.00000
     27       6.6492      0.00000
     28       6.9763      0.00000
     29       7.3192      0.00000
     30       8.1016      0.00000
     31       8.5323      0.00000
     32       8.8846      0.00000

 k-point     2 :       0.1667    0.0000    0.0000
  band No.  band energies     occupation 
      1     -11.0356      2.00000
      2     -10.7881      2.00000
      3      -9.8787      2.00000
      4      -9.5053      2.00000
      5      -5.1844      2.00000
      6      -4.6591      2.00000
      7      -3.5220      2.00000
      8      -2.8867      2.00000
      9      -1.8845      2.00000
     10      -0.5218      2.00000
     11      -0.4488      2.00000
     12      -0.3451      2.00000
     13      -0.3286      2.00000
     14       0.1767      2.00000
     15       0.9234      2.00000
     16       1.1013      2.00000
     17       1.1785      2.00000
     18       1.5872      2.00000
     19       2.1537      2.00000
     20       3.3547      2.00000
     21       3.6626      0.00005
     22       5.3607      0.00000
     23       5.4508      0.00000
     24       5.9144      0.00000
     25       6.0336      0.00000
     26       6.2910      0.00000
     27       6.5636      0.00000
     28       6.5695      0.00000
     29       7.0510      0.00000
     30       7.3218      0.00000
     31       7.8177      0.00000
     32       9.1132      0.00000

 k-point     3 :       0.3333    0.0000    0.0000
  band No.  band energies     occupation 
      1     -10.5443      2.00000
      2     -10.3033      2.00000
      3      -9.7444      2.00000
      4      -9.4394      2.00000
      5      -5.6476      2.00000
      6      -5.0401      2.00000
      7      -4.6217      2.00000
      8      -3.9572      2.00000
      9      -1.2911      2.00000
     10      -0.4585      2.00000
     11      -0.3580      2.00000
     12       0.0824      2.00000
     13       0.1458      2.00000
     14       0.6185      2.00000
     15       0.9259      2.00000
     16       1.0014      2.00000
     17       1.0500      2.00000
     18       1.2979      2.00000
     19       2.4233      2.00000
     20       2.8540      2.00000
     21       3.9468      0.00000
     22       4.1027      0.00000
     23       4.4104      0.00000
     24       5.0468      0.00000
     25       5.1828      0.00000
     26       5.4161      0.00000
     27       5.4733      0.00000
     28       6.2419      0.00000
     29       6.3850      0.00000
     30       6.6051      0.00000
     31       7.1819      0.00000
     32       8.8487      0.00000

 k-point     4 :       0.5000    0.0000    0.0000
  band No.  band energies     occupation 
      1      -9.9739      2.00000
      2      -9.9739      2.00000
      3      -9.7268      2.00000
      4      -9.7268      2.00000
      5      -5.5378      2.00000
      6      -5.5378      2.00000
      7      -4.8718      2.00000
      8      -4.8718      2.00000
      9      -0.5411      2.00000
     10      -0.5411      2.00000
     11       0.1114      2.00000
     12       0.1114      2.00000
     13       0.6615      2.00000
     14       0.6615      2.00000
     15       0.9968      2.00000
     16       0.9968      2.00000
     17       1.0315      2.00000
     18       1.0315      2.00000
     19       2.3521      2.00000
     20       2.3521      2.00000
     21       3.7884      0.00000
     22       3.7884      0.00000
     23       4.7853      0.00000
     24       4.7853      0.00000
     25       4.8523      0.00000
     26       4.8523      0.00000
     27       4.9670      0.00000
     28       4.9670      0.00000
     29       5.6640      0.00000
     30       5.6640      0.00000
     31       7.9333      0.00000
     32       7.9333      0.00000

 k-point     5 :       0.0000    0.1667    0.0000
  band No.  band energies     occupation 
      1     -11.1067      2.00000
      2     -10.8582      2.00000
      3      -9.9941      2.00000
      4      -9.6266      2.00000
      5      -5.2165      2.00000
      6      -4.6400      2.00000
      7      -3.6640      2.00000
      8      -3.0121      2.00000
      9      -1.8422      2.00000
     10      -0.3067      2.00000
     11      -0.0510      2.00000
     12       0.0616      2.00000
     13       0.0991      2.00000
     14       0.3194      2.00000
     15       1.1699      2.00000
     16       1.3904      2.00000
     17       1.5177      2.00000
     18       1.5359      2.00000
     19       2.1659      2.00000
     20       3.1217      2.00000
     21       3.8168      0.00000
     22       5.0248      0.00000
     23       5.3774      0.00000
     24       5.7175      0.00000
     25       5.8484      0.00000
     26       6.1368      0.00000
     27       6.3911      0.00000
     28       6.6162      0.00000
     29       7.0240      0.00000
     30       7.4133      0.00000
     31       7.9943      0.00000
     32       9.1370      0.00000

 k-point     6 :       0.1667    0.1667    0.0000
  band No.  band energies     occupation 
      1     -10.9296      2.00000
      2     -10.6838      2.00000
      3      -9.8960      2.00000
      4      -9.5476      2.00000
      5      -5.3075      2.00000
      6      -4.7419      2.00000
      7      -3.8850      2.00000
      8      -3.2440      2.00000
      9      -1.6793      2.00000
     10      -0.9420      2.00000
     11      -0.8719      2.00000
     12      -0.2848      2.00000
     13       0.4979      2.00000
     14       0.6716      2.00000
     15       0.8274      2.00000
     16       0.9542      2.00000
     17       1.4358      2.00000
     18       1.6801      2.00000
     19       2.4526      2.00000
     20       3.0736      2.00000
     21       3.9593      0.00000
     22       4.7549      0.00000
     23       5.2375      0.00000
     24       5.4491      0.00000
     25       5.9804      0.00000
     26       6.3755      0.00000
     27       6.4809      0.00000
     28       6.6826      0.00000
     29       7.2059      0.00000
     30       7.3813      0.00000
     31       7.4804      0.00000
     32       8.8606      0.00000

 k-point     7 :       0.1667   -0.1667    0.0000
  band No.  band energies     occupation 
      1     -10.9296      2.00000
      2     -10.6838      2.00000
      3      -9.8959      2.00000
      4      -9.5477      2.00000
      5      -5.3057      2.00000
      6      -4.7437      2.00000
      7      -3.8811      2.00000
      8      -3.2489      2.00000
      9      -1.6804      2.00000
     10      -0.9441      2.00000
     11      -0.8715      2.00000
     12      -0.2813      2.00000
     13       0.4982      2.00000
     14       0.6714      2.00000
     15       0.8238      2.00000
     16       0.9588      2.00000
     17       1.4354      2.00000
     18       1.6808      2.00000
     19       2.4550      2.00000
     20       3.0655      2.00000
     21       3.9652      0.00000
     22       4.7592      0.00000
     23       5.2364      0.00000
     24       5.4596      0.00000
     25       5.9696      0.00000
     26       6.3668      0.00000
     27       6.4670      0.00000
     28       6.6933      0.00000
     29       7.2170      0.00000
     30       7.3889      0.00000
     31       7.4737      0.00000
     32       8.8261      0.00000

 k-point     8 :       0.3333    0.1667    0.0000
  band No.  band energies     occupation 
      1     -10.4597      2.00000
      2     -10.2200      2.00000
      3      -9.7510      2.00000
      4      -9.4575      2.00000
      5      -5.5617      2.00000
      6      -4.9811      2.00000
      7      -4.6506      2.00000
      8      -4.0237      2.00000
      9      -1.2680      2.00000
     10      -1.1745      2.00000
     11      -1.0572      2.00000
     12      -0.3410      2.00000
     13       0.3689      2.00000
     14       0.4873      2.00000
     15       0.6002      2.00000
     16       0.9515      2.00000
     17       1.0599      2.00000
     18       1.4904      2.00000
     19       2.1061      2.00000
     20       2.8280      2.00000
     21       4.0221      0.00000
     22       4.6670      0.00000
     23       4.6750      0.00000
     24       5.1790      0.00000
     25       5.3965      0.00000
     26       5.5458      0.00000
     27       6.3640      0.00000
     28       6.3656      0.00000
     29       6.8358      0.00000
     30       7.4297      0.00000
     31       8.0383      0.00000
     32       8.2887      0.00000

 k-point     9 :       0.3333   -0.1667    0.0000
  band No.  band energies     occupation 
      1     -10.4598      2.00000
      2     -10.2200      2.00000
      3      -9.7508      2.00000
      4      -9.4578      2.00000
      5      -5.5599      2.00000
      6      -4.9829      2.00000
      7      -4.6473      2.00000
      8      -4.0276      2.00000
      9      -1.2638      2.00000
     10      -1.1764      2.00000
     11      -1.0639      2.00000
     12      -0.3393      2.00000
     13       0.3745      2.00000
     14       0.4948      2.00000
     15       0.6007      2.00000
     16       0.9421      2.00000
     17       1.0603      2.00000
     18       1.4854      2.00000
     19       2.1112      2.00000
     20       2.8247      2.00000
     21       4.0256      0.00000
     22       4.6772      0.00000
     23       4.6777      0.00000
     24       5.1668      0.00000
     25       5.3769      0.00000
     26       5.5649      0.00000
     27       6.3602      0.00000
     28       6.3661      0.00000
     29       6.8443      0.00000
     30       7.4247      0.00000
     31       8.0383      0.00000
     32       8.2650      0.00000

 k-point    10 :       0.5000    0.1667    0.0000
  band No.  band energies     occupation 
      1      -9.9351      2.00000
      2      -9.9349      2.00000
      3      -9.6898      2.00000
      4      -9.6896      2.00000
      5      -5.4359      2.00000
      6      -5.4354      2.00000
      7      -4.8170      2.00000
      8      -4.8164      2.00000
      9      -0.7664      2.00000
     10      -0.7612      2.00000
     11      -0.4992      2.00000
     12      -0.4873      2.00000
     13       0.0019      2.00000
     14       0.0147      2.00000
     15       0.4587      2.00000
     16       0.4639      2.00000
     17       1.0969      2.00000
     18       1.0970      2.00000
     19       2.4562      2.00000
     20       2.4591      2.00000
     21       4.1122      0.00000
     22       4.1144      0.00000
     23       5.0146      0.00000
     24       5.0265      0.00000
     25       5.5731      0.00000
     26       5.5948      0.00000
     27       5.9968      0.00000
     28       5.9977      0.00000
     29       6.6694      0.00000
     30       6.6700      0.00000
     31       7.4519      0.00000
     32       7.4520      0.00000

 k-point    11 :       0.0000    0.3333    0.0000
  band No.  band energies     occupation 
      1     -10.8029      2.00000
      2     -10.5570      2.00000
      3     -10.1122      2.00000
      4      -9.8109      2.00000
      5      -5.5329      2.00000
      6      -4.8447      2.00000
      7      -4.6576      2.00000
      8      -3.9283      2.00000
      9      -1.3457      2.00000
     10       0.1490      2.00000
     11       0.4358      2.00000
     12       0.6748      2.00000
     13       0.6832      2.00000
     14       0.9409      2.00000
     15       1.1637      2.00000
     16       1.1787      2.00000
     17       1.4410      2.00000
     18       2.3870      2.00000
     19       2.5695      2.00000
     20       2.9612      2.00000
     21       4.0678      0.00000
     22       4.2980      0.00000
     23       4.6489      0.00000
     24       5.1807      0.00000
     25       5.4950      0.00000
     26       5.7756      0.00000
     27       6.1093      0.00000
     28       6.2722      0.00000
     29       6.2869      0.00000
     30       6.9669      0.00000
     31       7.2160      0.00000
     32       8.8140      0.00000

 k-point    12 :       0.1667    0.3333    0.0000
  band No.  band energies     occupation 
      1     -10.6437      2.00000
      2     -10.4002      2.00000
      3     -10.0064      2.00000
      4      -9.7139      2.00000
      5      -5.4517      2.00000
      6      -4.8067      2.00000
      7      -4.6331      2.00000
      8      -3.9517      2.00000
      9      -1.1865      2.00000
     10      -0.9572      2.00000
     11      -0.7718      2.00000
     12      -0.1785      2.00000
     13       0.2848      2.00000
     14       0.3369      2.00000
     15       0.8525      2.00000
     16       1.5507      2.00000
     17       1.7375      2.00000
     18       1.8455      2.00000
     19       2.5107      2.00000
     20       2.7900      2.00000
     21       4.3481      0.00000
     22       4.8461      0.00000
     23       5.2116      0.00000
     24       5.4349      0.00000
     25       5.4667      0.00000
     26       5.9745      0.00000
     27       6.5329      0.00000
     28       6.6137      0.00000
     29       6.9565      0.00000
     30       7.5015      0.00000
     31       7.7068      0.00000
     32       8.3311      0.00000

 k-point    13 :       0.1667   -0.3333    0.0000
  band No.  band energies     occupation 
      1     -10.6437      2.00000
      2     -10.4002      2.00000
      3     -10.0063      2.00000
      4      -9.7141      2.00000
      5      -5.4511      2.00000
      6      -4.8070      2.00000
      7      -4.6300      2.00000
      8      -3.9555      2.00000
      9      -1.1887      2.00000
     10      -0.9631      2.00000
     11      -0.7681      2.00000
     12      -0.1730      2.00000
     13       0.2844      2.00000
     14       0.3425      2.00000
     15       0.8521      2.00000
     16       1.5425      2.00000
     17       1.7283      2.00000
     18       1.8484      2.00000
     19       2.5191      2.00000
     20       2.7916      2.00000
     21       4.3479      0.00000
     22       4.8551      0.00000
     23       5.2104      0.00000
     24       5.4237      0.00000
     25       5.4746      0.00000
     26       5.9696      0.00000
     27       6.5332      0.00000
     28       6.6096      0.00000
     29       6.9659      0.00000
     30       7.5086      0.00000
     31       7.7017      0.00000
     32       8.3048      0.00000

 k-point    14 :       0.3333    0.3333    0.0000
  band No.  band energies     occupation 
      1     -10.2403      2.00000
      2     -10.0021      2.00000
      3      -9.8108      2.00000
      4      -9.5441      2.00000
      5      -5.3380      2.00000
      6      -4.8275      2.00000
      7      -4.7894      2.00000
      8      -4.2514      2.00000
      9      -1.7225      2.00000
     10      -1.6460      2.00000
     11      -1.0380      2.00000
     12      -0.8190      2.00000
     13      -0.6257      2.00000
     14      -0.0250      2.00000
     15       0.2112      2.00000
     16       0.6227      2.00000
     17       0.6955      2.00000
     18       1.4056      2.00000
     19       2.0550      2.00000
     20       2.7582      2.00000
     21       4.2669      0.00000
     22       5.5375      0.00000
     23       5.7015      0.00000
     24       5.9185      0.00000
     25       6.1195      0.00000
     26       6.3420      0.00000
     27       6.8858      0.00000
     28       7.2099      0.00000
     29       7.6200      0.00000
     30       7.8742      0.00000
     31       8.7992      0.00000
     32       9.0415      0.00000

 k-point    15 :       0.3333   -0.3333    0.0000
  band No.  band energies     occupation 
      1     -10.2404      2.00000
      2     -10.0020      2.00000
      3      -9.8105      2.00000
      4      -9.5445      2.00000
      5      -5.3365      2.00000
      6      -4.8286      2.00000
      7      -4.7841      2.00000
      8      -4.2580      2.00000
      9      -1.7170      2.00000
     10      -1.6539      2.00000
     11      -1.0350      2.00000
     12      -0.8230      2.00000
     13      -0.6252      2.00000
     14      -0.0156      2.00000
     15       0.2231      2.00000
     16       0.6084      2.00000
     17       0.6843      2.00000
     18       1.4137      2.00000
     19       2.0634      2.00000
     20       2.7444      2.00000
     21       4.2738      0.00000
     22       5.5401      0.00000
     23       5.7150      0.00000
     24       5.9050      0.00000
     25       6.1252      0.00000
     26       6.3447      0.00000
     27       6.8624      0.00000
     28       7.2173      0.00000
     29       7.6235      0.00000
     30       7.8682      0.00000
     31       8.8111      0.00000
     32       9.0295      0.00000

 k-point    16 :       0.5000    0.3333    0.0000
  band No.  band energies     occupation 
      1      -9.8540      2.00000
      2      -9.8537      2.00000
      3      -9.6127      2.00000
      4      -9.6123      2.00000
      5      -5.1877      2.00000
      6      -5.1863      2.00000
      7      -4.7281      2.00000
      8      -4.7262      2.00000
      9      -1.4295      2.00000
     10      -1.4264      2.00000
     11      -1.1780      2.00000
     12      -1.1717      2.00000
     13      -0.5580      2.00000
     14      -0.5575      2.00000
     15      -0.2511      2.00000
     16      -0.2501      2.00000
     17       0.6086      2.00000
     18       0.6176      2.00000
     19       2.4139      2.00000
     20       2.4277      2.00000
     21       4.9885      0.00000
     22       4.9906      0.00000
     23       6.1030      0.00000
     24       6.1068      0.00000
     25       6.4620      0.00000
     26       6.4660      0.00000
     27       6.9065      0.00000
     28       6.9067      0.00000
     29       8.0619      0.00000
     30       8.0693      0.00000
     31       8.6824      0.00000
     32       8.6867      0.00000

 k-point    17 :       0.0000    0.5000    0.0000
  band No.  band energies     occupation 
      1     -10.4134      2.00000
      2     -10.4134      2.00000
      3     -10.1580      2.00000
      4     -10.1580      2.00000
      5      -5.3623      2.00000
      6      -5.3623      2.00000
      7      -4.6199      2.00000
      8      -4.6199      2.00000
      9      -0.6078      2.00000
     10      -0.6078      2.00000
[...]
     32       7.5859      0.00000

 k-point    32 :       0.1667    0.3333    0.5000
  band No.  band energies     occupation 
      1     -10.5470      2.00000
      2     -10.5470      2.00000
      3      -9.8358      2.00000
      4      -9.8358      2.00000
      5      -5.2050      2.00000
      6      -5.2050      2.00000
      7      -4.2572      2.00000
      8      -4.2572      2.00000
      9      -1.0224      2.00000
     10      -1.0224      2.00000
     11      -0.2784      2.00000
     12      -0.2784      2.00000
     13       0.1902      2.00000
     14       0.1902      2.00000
     15       1.0966      2.00000
     16       1.0966      2.00000
     17       1.7368      2.00000
     18       1.7368      2.00000
     19       2.4512      2.00000
     20       2.4512      2.00000
     21       4.8605      0.00000
     22       4.8605      0.00000
     23       5.3214      0.00000
     24       5.3214      0.00000
     25       6.0635      0.00000
     26       6.0635      0.00000
     27       6.6160      0.00000
     28       6.6160      0.00000
     29       7.2743      0.00000
     30       7.2743      0.00000
     31       7.6702      0.00000
     32       7.6702      0.00000

 k-point    33 :       0.1667   -0.3333    0.5000
  band No.  band energies     occupation 
      1     -10.5470      2.00000
      2     -10.5470      2.00000
      3      -9.8358      2.00000
      4      -9.8358      2.00000
      5      -5.2040      2.00000
      6      -5.2040      2.00000
      7      -4.2581      2.00000
      8      -4.2581      2.00000
      9      -1.0208      2.00000
     10      -1.0208      2.00000
     11      -0.2828      2.00000
     12      -0.2828      2.00000
     13       0.1897      2.00000
     14       0.1897      2.00000
     15       1.0993      2.00000
     16       1.0994      2.00000
     17       1.7346      2.00000
     18       1.7346      2.00000
     19       2.4566      2.00000
     20       2.4566      2.00000
     21       4.8613      0.00000
     22       4.8613      0.00000
     23       5.3222      0.00000
     24       5.3222      0.00000
     25       6.0598      0.00000
     26       6.0598      0.00000
     27       6.6261      0.00000
     28       6.6261      0.00000
     29       7.2503      0.00000
     30       7.2503      0.00000
     31       7.6671      0.00000
     32       7.6671      0.00000

 k-point    34 :       0.3333    0.3333    0.5000
  band No.  band energies     occupation 
      1     -10.1534      2.00000
      2     -10.1534      2.00000
      3      -9.6459      2.00000
      4      -9.6459      2.00000
      5      -5.1405      2.00000
      6      -5.1405      2.00000
      7      -4.4823      2.00000
      8      -4.4823      2.00000
      9      -1.7634      2.00000
     10      -1.7634      2.00000
     11      -0.8759      2.00000
     12      -0.8759      2.00000
     13      -0.2109      2.00000
     14      -0.2109      2.00000
     15       0.5972      2.00000
     16       0.5972      2.00000
     17       0.9692      2.00000
     18       0.9692      2.00000
     19       1.8957      2.00000
     20       1.8957      2.00000
     21       5.1240      0.00000
     22       5.1240      0.00000
     23       6.0480      0.00000
     24       6.0480      0.00000
     25       6.7095      0.00000
     26       6.7095      0.00000
     27       6.9015      0.00000
     28       6.9015      0.00000
     29       7.6950      0.00000
     30       7.6950      0.00000
     31       8.6989      0.00000
     32       8.6989      0.00000

 k-point    35 :       0.3333   -0.3333    0.5000
  band No.  band energies     occupation 
      1     -10.1534      2.00000
      2     -10.1534      2.00000
      3      -9.6460      2.00000
      4      -9.6460      2.00000
      5      -5.1385      2.00000
      6      -5.1385      2.00000
      7      -4.4846      2.00000
      8      -4.4846      2.00000
      9      -1.7620      2.00000
     10      -1.7620      2.00000
     11      -0.8774      2.00000
     12      -0.8774      2.00000
     13      -0.2126      2.00000
     14      -0.2126      2.00000
     15       0.6000      2.00000
     16       0.6000      2.00000
     17       0.9650      2.00000
     18       0.9650      2.00000
     19       1.9012      2.00000
     20       1.9012      2.00000
     21       5.1275      0.00000
     22       5.1275      0.00000
     23       6.0525      0.00000
     24       6.0525      0.00000
     25       6.6963      0.00000
     26       6.6963      0.00000
     27       6.8852      0.00000
     28       6.8852      0.00000
     29       7.6991      0.00000
     30       7.6991      0.00000
     31       8.7181      0.00000
     32       8.7181      0.00000

 k-point    36 :       0.5000    0.3333    0.5000
  band No.  band energies     occupation 
      1      -9.8511      2.00000
      2      -9.8511      2.00000
      3      -9.6162      2.00000
      4      -9.6162      2.00000
      5      -5.1186      2.00000
      6      -5.1186      2.00000
      7      -4.8055      2.00000
      8      -4.8055      2.00000
      9      -1.5102      2.00000
     10      -1.5102      2.00000
     11      -1.2171      2.00000
     12      -1.2171      2.00000
     13      -0.4857      2.00000
     14      -0.4857      2.00000
     15      -0.1127      2.00000
     16      -0.1127      2.00000
     17       1.1048      2.00000
     18       1.1048      2.00000
     19       1.5061      2.00000
     20       1.5061      2.00000
     21       5.4693      0.00000
     22       5.4693      0.00000
     23       6.3327      0.00000
     24       6.3327      0.00000
     25       6.5078      0.00000
     26       6.5078      0.00000
     27       7.1033      0.00000
     28       7.1033      0.00000
     29       7.9061      0.00000
     30       7.9061      0.00000
     31       8.5402      0.00000
     32       8.5402      0.00000

 k-point    37 :       0.0000    0.5000    0.5000
  band No.  band energies     occupation 
      1     -10.4102      2.00000
      2     -10.4102      2.00000
      3     -10.1621      2.00000
      4     -10.1621      2.00000
      5      -5.2584      2.00000
      6      -5.2584      2.00000
      7      -4.7724      2.00000
      8      -4.7724      2.00000
      9      -0.0218      2.00000
     10      -0.0218      2.00000
     11       0.4703      2.00000
     12       0.4703      2.00000
     13       0.8988      2.00000
     14       0.8988      2.00000
     15       1.1143      2.00000
     16       1.1143      2.00000
     17       2.1460      2.00000
     18       2.1460      2.00000
     19       2.6719      2.00000
     20       2.6719      2.00000
     21       4.4630      0.00000
     22       4.4630      0.00000
     23       4.5351      0.00000
     24       4.5351      0.00000
     25       5.5714      0.00000
     26       5.5714      0.00000
     27       6.1481      0.00000
     28       6.1481      0.00000
     29       6.4439      0.00000
     30       6.4439      0.00000
     31       7.2310      0.00000
     32       7.2310      0.00000

 k-point    38 :       0.1667    0.5000    0.5000
  band No.  band energies     occupation 
      1     -10.2796      2.00000
      2     -10.2796      2.00000
      3     -10.0340      2.00000
      4     -10.0340      2.00000
      5      -5.1475      2.00000
      6      -5.1475      2.00000
      7      -4.6961      2.00000
      8      -4.6961      2.00000
      9      -0.6324      2.00000
     10      -0.6324      2.00000
     11      -0.3255      2.00000
     12      -0.3255      2.00000
     13       0.2995      2.00000
     14       0.2995      2.00000
     15       0.5815      2.00000
     16       0.5815      2.00000
     17       1.8469      2.00000
     18       1.8469      2.00000
     19       2.4605      2.00000
     20       2.4605      2.00000
     21       5.1333      0.00000
     22       5.1333      0.00000
     23       5.2306      0.00000
     24       5.2306      0.00000
     25       6.3710      0.00000
     26       6.3710      0.00000
     27       6.7968      0.00000
     28       6.7968      0.00000
     29       6.9838      0.00000
     30       6.9838      0.00000
     31       7.3566      0.00000
     32       7.3566      0.00000

 k-point    39 :       0.3333    0.5000    0.5000
  band No.  band energies     occupation 
      1      -9.9822      2.00000
      2      -9.9822      2.00000
      3      -9.7435      2.00000
      4      -9.7435      2.00000
      5      -4.9682      2.00000
      6      -4.9682      2.00000
      7      -4.6725      2.00000
      8      -4.6725      2.00000
      9      -1.5759      2.00000
     10      -1.5759      2.00000
     11      -1.5695      2.00000
     12      -1.5695      2.00000
     13      -0.0492      2.00000
     14      -0.0492      2.00000
     15       0.1923      2.00000
     16       0.1923      2.00000
     17       1.0504      2.00000
     18       1.0504      2.00000
     19       1.5332      2.00000
     20       1.5332      2.00000
     21       5.9411      0.00000
     22       5.9411      0.00000
     23       6.0583      0.00000
     24       6.0583      0.00000
     25       7.2174      0.00000
     26       7.2174      0.00000
     27       7.2441      0.00000
     28       7.2441      0.00000
     29       8.2419      0.00000
     30       8.2419      0.00000
     31       8.6871      0.00000
     32       8.6871      0.00000

 k-point    40 :       0.5000    0.5000    0.5000
  band No.  band energies     occupation 
      1      -9.8092      2.00000
      2      -9.8092      2.00000
      3      -9.5754      2.00000
      4      -9.5754      2.00000
      5      -4.9439      2.00000
      6      -4.9439      2.00000
      7      -4.7889      2.00000
      8      -4.7889      2.00000
      9      -1.7907      2.00000
     10      -1.7907      2.00000
     11      -1.4921      2.00000
     12      -1.4921      2.00000
     13      -0.7558      2.00000
     14      -0.7558      2.00000
     15      -0.5687      2.00000
     16      -0.5687      2.00000
     17       1.1515      2.00000
     18       1.1515      2.00000
     19       1.4605      2.00000
     20       1.4605      2.00000
     21       5.7063      0.00000
     22       5.7063      0.00000
     23       6.2445      0.00000
     24       6.2445      0.00000
     25       7.3002      0.00000
     26       7.3002      0.00000
     27       7.8634      0.00000
     28       7.8634      0.00000
     29       8.1741      0.00000
     30       8.1741      0.00000
     31       9.5327      0.00000
     32       9.5327      0.00000


--------------------------------------------------------------------------------------------------------


 soft charge-density along one line, spin component            1
         0         1         2         3         4         5         6         7         8         9
 total charge-density along one line
 
 pseudopotential strength for first ion, spin component:            1
 14.602  18.220   0.040   0.043  -0.000   0.071   0.077  -0.000
 18.220  22.750   0.050   0.054  -0.000   0.090   0.097  -0.000
  0.040   0.050   3.239  -0.002   0.000   5.515  -0.004   0.000
  0.043   0.054  -0.002   3.236   0.000  -0.004   5.510   0.000
 -0.000  -0.000   0.000   0.000   3.240   0.000   0.000   5.517
  0.071   0.090   5.515  -0.004   0.000   9.447  -0.007   0.000
  0.077   0.097  -0.004   5.510   0.000  -0.007   9.439   0.000
 -0.000  -0.000   0.000   0.000   5.517   0.000   0.000   9.452
  0.000   0.000  -0.000   0.000   0.006  -0.000   0.000   0.012
 -0.005  -0.006   0.011   0.013   0.000   0.020   0.023   0.000
 -0.005  -0.006  -0.003   0.011   0.000  -0.006   0.020   0.000
  0.000   0.000   0.000  -0.000   0.011   0.000  -0.000   0.020
  0.002   0.002  -0.012  -0.000  -0.000  -0.021  -0.000  -0.000
 total augmentation occupancy for first ion, spin component:            1
  2.752  -0.720   0.328   0.345  -0.001  -0.061  -0.065   0.000   0.000  -0.006  -0.003   0.000   0.007
 -0.720   0.683  -0.418  -0.455   0.001   0.066   0.072  -0.000  -0.000   0.001   0.003  -0.000  -0.003
  0.328  -0.418   1.235   0.056  -0.000  -0.203   0.000  -0.000  -0.000   0.039  -0.100  -0.000   0.002
  0.345  -0.455   0.056   1.338   0.000   0.000  -0.213  -0.000  -0.000  -0.025   0.102  -0.000  -0.002
 -0.001   0.001  -0.000   0.000   1.234  -0.000  -0.000  -0.212   0.145  -0.000  -0.000   0.037   0.000
 -0.061   0.066  -0.203   0.000  -0.000   0.037  -0.001   0.000   0.000  -0.007   0.017   0.000  -0.000
 -0.065   0.072   0.000  -0.213  -0.000  -0.001   0.039   0.000   0.000   0.004  -0.018   0.000   0.000
  0.000  -0.000  -0.000  -0.000  -0.212   0.000   0.000   0.040  -0.025   0.000   0.000  -0.006   0.000
  0.000  -0.000  -0.000  -0.000   0.145   0.000   0.000  -0.025   0.030   0.000   0.000   0.002  -0.000
 -0.006   0.001   0.039  -0.025  -0.000  -0.007   0.004   0.000   0.000   0.011  -0.005   0.000   0.001
 -0.003   0.003  -0.100   0.102  -0.000   0.017  -0.018   0.000   0.000  -0.005   0.031   0.000  -0.002
  0.000  -0.000  -0.000  -0.000   0.037   0.000   0.000  -0.006   0.002   0.000   0.000   0.009  -0.000
  0.007  -0.003   0.002  -0.002   0.000  -0.000   0.000   0.000  -0.000   0.001  -0.002  -0.000   0.008


------------------------ aborting loop because EDIFF is reached ----------------------------------------


    CHARGE:  cpu time      0.0054: real time      0.0054
    FORLOC:  cpu time      0.0002: real time      0.0002
    FORNL :  cpu time      0.0270: real time      0.0270
    STRESS:  cpu time      0.2828: real time      0.2839
    FORCOR:  cpu time      0.0072: real time      0.0072
    FORHAR:  cpu time      0.0016: real time      0.0017
    MIXING:  cpu time      0.0006: real time      0.0006
    OFIELD:  cpu time      0.0000: real time      0.0000

  FORCE on cell =-STRESS in cart. coord.  units (eV):
  Direction    XX          YY          ZZ          XY          YZ          ZX
  --------------------------------------------------------------------------------------
  Alpha Z    83.74936    83.74936    83.74936
  Ewald    -411.35883  -459.05069  -511.33603     0.21715    -0.00000     0.00000
  Hartree    79.00765    56.52832    22.65084     0.08663    -0.00000    -0.00000
  E(xc)    -141.04910  -141.02102  -141.41768     0.00227     0.00000     0.00000
  Local    -228.52079  -163.72986   -82.49738    -0.30410     0.00000    -0.00000
  n-local   240.62613   240.13445   241.76655    -0.00145    -0.00000     0.00000
  augment   -11.36702   -11.71827   -12.11518    -0.00050    -0.00000     0.00000
  Kinetic   389.71646   395.26481   401.43695     0.02143     0.00000    -0.00000
  Fock        0.00000     0.00000     0.00000     0.00000     0.00000     0.00000
  -------------------------------------------------------------------------------------
  Total       0.80385     0.15710     2.23742     0.02142    -0.00000    -0.00000
  in kB       6.36559     1.24406    17.71793     0.16960    -0.00000    -0.00001
  external pressure =        8.44 kB  Pullay stress =        0.00 kB


 VOLUME and BASIS-vectors are now :
 -----------------------------------------------------------------------------
  energy-cutoff  :      360.00
  volume of cell :      202.32
      direct lattice vectors                 reciprocal lattice vectors
     3.858100176  0.000000000  0.000000000     0.259194929  0.000000000  0.000000000
     0.000000000  4.526575088  0.000000000     0.000000000  0.220917577  0.000000000
     0.000000000  0.000000000 11.585176468     0.000000000  0.000000000  0.086317200

  length of vectors
     3.858100176  4.526575088 11.585176468     0.259194929  0.220917577  0.086317200


 FORCES acting on ions
    electron-ion (+dipol)            ewald-force                    non-local-force                 convergence-correction
 -----------------------------------------------------------------------------------------------
   0.208E-02 0.150E+02 0.332E+02   0.491E-02 -.175E+02 -.358E+02   -.615E-02 0.243E+01 0.277E+01   0.778E-06 0.464E-04 0.197E-03
   0.208E-02 0.150E+02 -.332E+02   0.491E-02 -.175E+02 0.358E+02   -.615E-02 0.243E+01 -.277E+01   0.700E-06 0.474E-04 -.196E-03
   -.208E-02 -.150E+02 -.332E+02   -.491E-02 0.175E+02 0.358E+02   0.601E-02 -.243E+01 -.277E+01   -.722E-06 -.475E-04 -.196E-03
   -.207E-02 -.150E+02 0.332E+02   -.491E-02 0.175E+02 -.358E+02   0.601E-02 -.243E+01 0.277E+01   -.734E-06 -.467E-04 0.196E-03
   -.350E-01 -.157E+02 -.330E+02   0.315E-01 0.171E+02 0.348E+02   0.781E-02 -.139E+01 -.185E+01   -.695E-06 -.284E-04 -.264E-03
   -.350E-01 -.157E+02 0.330E+02   0.315E-01 0.171E+02 -.348E+02   0.781E-02 -.139E+01 0.185E+01   -.853E-06 -.281E-04 0.265E-03
   0.349E-01 0.157E+02 0.330E+02   -.315E-01 -.171E+02 -.348E+02   -.759E-02 0.139E+01 0.185E+01   0.815E-06 0.292E-04 0.263E-03
   0.349E-01 0.157E+02 -.330E+02   -.315E-01 -.171E+02 0.348E+02   -.759E-02 0.139E+01 -.185E+01   0.703E-06 0.286E-04 -.264E-03
 -----------------------------------------------------------------------------------------------
   -.759E-04 0.553E-05 -.173E-05   0.482E-14 -.355E-14 -.142E-13   0.162E-03 0.180E-03 -.122E-05   -.765E-08 0.764E-06 0.180E-05
 
 
 POSITION                                       TOTAL-FORCE (eV/Angst)
 -----------------------------------------------------------------------------------
      2.92153      0.76367      1.52892         0.000824     -0.026669      0.144878
      0.99248      3.02695      4.26367         0.000824     -0.026670     -0.144880
      2.89357      4.09092     10.05626        -0.000980      0.026779     -0.144914
      0.96452      1.82763      7.32150        -0.000980      0.026780      0.144914
      2.92153      0.23506      4.06767         0.004339      0.047725     -0.078169
      0.99248      2.49835      1.72492         0.004339      0.047725      0.078172
      2.89357      0.09295      7.51751        -0.004183     -0.047835      0.078582
      0.96452      2.35624      9.86026        -0.004184     -0.047835     -0.078583
 -----------------------------------------------------------------------------------
    total drift:                                0.000086      0.000186     -0.000001


--------------------------------------------------------------------------------------------------------



  FREE ENERGIE OF THE ION-ELECTRON SYSTEM (eV)
  ---------------------------------------------------
  free  energy   TOTEN  =       -33.60018149 eV

  energy  without entropy=      -33.59942789  energy(sigma->0) =      -33.59980469
 


--------------------------------------------------------------------------------------------------------


    POTLOK:  cpu time      0.2226: real time      0.2234


--------------------------------------------------------------------------------------------------------


     LOOP+:  cpu time      8.0920: real time      8.1300
    4ORBIT:  cpu time      0.0000: real time      0.0000

 total amount of memory used by VASP MPI-rank0    37119. kBytes
=======================================================================

   base      :      30000. kBytes
   nonl-proj :       5406. kBytes
   fftplans  :        334. kBytes
   grid      :        503. kBytes
   one-center:         16. kBytes
   wavefun   :        860. kBytes
 
  
  
 General timing and accounting informations for this job:
 ========================================================
  
                  Total CPU time used (sec):        9.711
                            User time (sec):        9.443
                          System time (sec):        0.268
                         Elapsed time (sec):       10.035
  
                   Maximum memory used (kb):      174500.
                   Average memory used (kb):          N/A
  
                          Minor page faults:        16909
                          Major page faults:           41
                 Voluntary context switches:         2033
