 vasp.6.4.2 20Jul23 (build Oct 12 2023 10:31:02) complex                         
 executed on              LinuxNV date 2025.05.27  20:14:52
 running  128 mpi-ranks, with    1 threads/rank, on    2 nodes
 distrk:  each k-point on   64 cores,    2 groups
 distr:  one band on NCORE=   4 cores,   16 groups


--------------------------------------------------------------------------------------------------------


 INCAR:
   ENCUT = 360.000000
   SIGMA = 0.050000
   EDIFF = 1.00e-06
   ALGO = Normal
   GGA = PE
   PREC = Normal
   SYSTEM = ./
   ICHARG = 2
   ISMEAR = 0
   ISPIN = 1
   ISTART = 0
   ISYM = 0
   KPAR = 2
   LMAXMIX = 4
   NELM = 100
   NPAR = 16
   LASPH = .TRUE.
   LCHARG = .FALSE.
   LWAVE = .FALSE.

 POTCAR:    PAW_PBE Ge 05Jan2001                  
 POTCAR:    PAW_PBE Se 06Sep2000                  
 POTCAR:    PAW_PBE Ge 05Jan2001                  
   VRHFIN =Ge: s2p2                                                                                 
   LEXCH  = PE                                                                                      
   EATOM  =   104.9960 eV,    7.7170 Ry                                                             
                                                                                                    
   TITEL  = PAW_PBE Ge 05Jan2001                                                                    
   LULTRA =        F    use ultrasoft PP ?                                                          
   IUNSCR =        1    unscreen: 0-lin 1-nonlin 2-no                                               
   RPACOR =    2.170    partial core radius                                                         
   POMASS =   72.610; ZVAL   =    4.000    mass and valenz                                          
   RCORE  =    2.300    outmost cutoff radius                                                       
   RWIGS  =    2.300; RWIGS  =    1.217    wigner-seitz radius (au A)                               
   ENMAX  =  173.807; ENMIN  =  130.355 eV                                                          
   ICORE  =        3    local potential                                                             
   LCOR   =        T    correct aug charges                                                         
   LPAW   =        T    paw PP                                                                      
   EAUG   =  385.843                                                                                
   DEXC   =    0.000                                                                                
   RMAX   =    2.342    core radius for proj-oper                                                   
   RAUG   =    1.300    factor for augmentation sphere                                              
   RDEP   =    2.318    radius for radial grids                                                     
   RDEPT  =    2.103    core radius for aug-charge                                                  
                                                                                                    
   Atomic configuration                                                                             
   10 entries                                                                                       
     n  l   j            E        occ.                                                              
     1  0  0.50    -10959.8463   2.0000                                                             
     2  0  0.50     -1371.6056   2.0000                                                             
     2  1  1.50     -1198.4791   6.0000                                                             
     3  0  0.50      -168.4733   2.0000                                                             
     3  1  1.50      -115.6019   6.0000                                                             
     3  2  2.50       -29.3106  10.0000                                                             
     4  0  0.50       -11.7309   2.0000                                                             
     4  1  0.50        -3.8952   2.0000                                                             
     4  2  1.50        -4.0817   0.0000                                                             
     4  3  2.50        -4.0817   0.0000                                                             
   Description                                                                                      
     l       E           TYP  RCUT    TYP  RCUT                                                     
     0    -11.7309493     23  2.300                                                                 
     0     -7.4578696     23  2.300                                                                 
     1     -3.8952261     23  2.300                                                                 
     1      6.1178114     23  2.300                                                                 
     2     -4.0817478     23  2.300                                                                 
     3     -1.3605826      7  2.300                                                                 
  local pseudopotential read in
  partial core-charges read in
  partial kinetic energy density read in
  atomic valenz-charges read in
  non local Contribution for L=            0  read in
    real space projection operators read in
  non local Contribution for L=            0  read in
    real space projection operators read in
  non local Contribution for L=            1  read in
    real space projection operators read in
  non local Contribution for L=            1  read in
    real space projection operators read in
  non local Contribution for L=            2  read in
    real space projection operators read in
    PAW grid and wavefunctions read in
 
   number of l-projection  operators is LMAX  =            5
   number of lm-projection operators is LMMAX =           13
 
 POTCAR:    PAW_PBE Se 06Sep2000                  
   VRHFIN =Se: s2p4                                                                                 
   LEXCH  = PE                                                                                      
   EATOM  =   257.1286 eV,   18.8984 Ry                                                             
                                                                                                    
   TITEL  = PAW_PBE Se 06Sep2000                                                                    
   LULTRA =        F    use ultrasoft PP ?                                                          
   IUNSCR =        1    unscreen: 0-lin 1-nonlin 2-no                                               
   RPACOR =    1.900    partial core radius                                                         
   POMASS =   78.960; ZVAL   =    6.000    mass and valenz                                          
   RCORE  =    2.100    outmost cutoff radius                                                       
   RWIGS  =    2.200; RWIGS  =    1.164    wigner-seitz radius (au A)                               
   ENMAX  =  211.555; ENMIN  =  158.666 eV                                                          
   ICORE  =        3    local potential                                                             
   LCOR   =        T    correct aug charges                                                         
   LPAW   =        T    paw PP                                                                      
   EAUG   =  446.842                                                                                
   DEXC   =    0.000                                                                                
   RMAX   =    2.147    core radius for proj-oper                                                   
   RAUG   =    1.300    factor for augmentation sphere                                              
   RDEP   =    2.177    radius for radial grids                                                     
   RDEPT  =    1.928    core radius for aug-charge                                                  
                                                                                                    
   Atomic configuration                                                                             
   10 entries                                                                                       
     n  l   j            E        occ.                                                              
     1  0  0.50    -12503.4787   2.0000                                                             
     2  0  0.50     -1606.9547   2.0000                                                             
     2  1  1.50     -1413.3140   6.0000                                                             
     3  0  0.50      -213.4885   2.0000                                                             
     3  1  1.50      -152.9538   6.0000                                                             
     3  2  2.50       -53.1221  10.0000                                                             
     4  0  0.50       -17.2865   2.0000                                                             
     4  1  0.50        -6.5110   4.0000                                                             
     4  2  2.50        -6.8029   0.0000                                                             
     4  3  2.50        -6.8029   0.0000                                                             
   Description                                                                                      
     l       E           TYP  RCUT    TYP  RCUT                                                     
     0    -17.2865377     23  2.100                                                                 
     0    -15.3094411     23  2.100                                                                 
     1     -6.5110275     23  2.100                                                                 
     1     -0.0695192     23  2.100                                                                 
     2     -6.8029130     23  2.100                                                                 
     3     -1.3605826      7  2.100                                                                 
  local pseudopotential read in
  partial core-charges read in
  partial kinetic energy density read in
  atomic valenz-charges read in
  non local Contribution for L=            0  read in
    real space projection operators read in
  non local Contribution for L=            0  read in
    real space projection operators read in
  non local Contribution for L=            1  read in
    real space projection operators read in
  non local Contribution for L=            1  read in
    real space projection operators read in
  non local Contribution for L=            2  read in
    real space projection operators read in
    PAW grid and wavefunctions read in
 
   number of l-projection  operators is LMAX  =            5
   number of lm-projection operators is LMMAX =           13
 
  PAW_PBE Ge 05Jan2001                  :
 energy of atom  1       EATOM= -104.9960
 kinetic energy error for atom=    0.0005 (will be added to EATOM!!)
  PAW_PBE Se 06Sep2000                  :
 energy of atom  2       EATOM= -257.1286
 kinetic energy error for atom=    0.0030 (will be added to EATOM!!)
 
 
 POSCAR: Ge Se
  positions in cartesian coordinates
  No initial velocities read in
 exchange correlation table for  LEXCH =        8
   RHO(1)=    0.500       N(1)  =     2000
   RHO(2)=  100.500       N(2)  =     4000
 


--------------------------------------------------------------------------------------------------------


 ion  position               nearest neighbor table
   1  0.250  0.110  0.122-   6 2.55   6 2.55   5 2.61
   2  0.750  0.610  0.378-   5 2.55   5 2.55   6 2.61
   3  0.750  0.890  0.878-   8 2.55   8 2.55   7 2.61
   4  0.250  0.390  0.622-   7 2.55   7 2.55   8 2.61
   5  0.250  0.004  0.353-   2 2.55   2 2.55   1 2.61
   6  0.750  0.504  0.147-   1 2.55   1 2.55   2 2.61
   7  0.750  0.996  0.647-   4 2.55   4 2.55   3 2.61
   8  0.250  0.496  0.853-   3 2.55   3 2.55   4 2.61
 

IMPORTANT INFORMATION: All symmetrisations will be switched off!
NOSYMM: (Re-)initialisation of all symmetry stuff for point group C_1.


----------------------------------------------------------------------------------------

                                     Primitive cell                                     

  volume of cell :     181.3954

  direct lattice vectors                    reciprocal lattice vectors
     3.700000000  0.000000000  0.000000000     0.270270270  0.000000000  0.000000000
     0.000000000  4.400000000  0.000000000     0.000000000  0.227272727  0.000000000
     0.000000000  0.000000000 11.142221000     0.000000000  0.000000000  0.089748713

  length of vectors
     3.700000000  4.400000000 11.142221000     0.270270270  0.227272727  0.089748713

  position of ions in fractional coordinates (direct lattice)
     0.250000000  0.109597804  0.122069697
     0.750000000  0.609597804  0.377930303
     0.750000000  0.890402196  0.877930303
     0.250000000  0.390402196  0.622069697
     0.250000000  0.004341057  0.352859002
     0.750000000  0.504341057  0.147140998
     0.750000000  0.995658943  0.647140998
     0.250000000  0.495658943  0.852859002

  ion indices of the primitive-cell ions
   primitive index   ion index
                 1           1
                 2           2
                 3           3
                 4           4
                 5           5
                 6           6
                 7           7
                 8           8

----------------------------------------------------------------------------------------

 
 
 KPOINTS: KPOINTS created by Atomic Simulation Env

Automatic generation of k-mesh.
 Grid dimensions read from file:
 generate k-points for:    6    6    2

 Generating k-lattice:

  Cartesian coordinates                     Fractional coordinates (reciprocal lattice)
     0.045045045  0.000000000  0.000000000     0.166666667  0.000000000  0.000000000
     0.000000000  0.037878788  0.000000000     0.000000000  0.166666667  0.000000000
     0.000000000  0.000000000  0.044874357     0.000000000  0.000000000  0.500000000

  Length of vectors
     0.045045045  0.037878788  0.044874357

  Shift w.r.t. Gamma in fractional coordinates (k-lattice)
     0.000000000  0.000000000  0.000000000

 
 Subroutine IBZKPT returns following result:
 ===========================================
 
 Found     40 irreducible k-points:
 
 Following reciprocal coordinates:
            Coordinates               Weight
  0.000000  0.000000  0.000000      1.000000
  0.166667  0.000000  0.000000      2.000000
  0.333333  0.000000  0.000000      2.000000
  0.500000  0.000000  0.000000      1.000000
  0.000000  0.166667  0.000000      2.000000
  0.166667  0.166667  0.000000      2.000000
  0.166667 -0.166667  0.000000      2.000000
  0.333333  0.166667  0.000000      2.000000
  0.333333 -0.166667  0.000000      2.000000
  0.500000  0.166667  0.000000      2.000000
  0.000000  0.333333  0.000000      2.000000
  0.166667  0.333333  0.000000      2.000000
  0.166667 -0.333333  0.000000      2.000000
  0.333333  0.333333  0.000000      2.000000
  0.333333 -0.333333  0.000000      2.000000
  0.500000  0.333333  0.000000      2.000000
  0.000000  0.500000  0.000000      1.000000
  0.166667  0.500000  0.000000      2.000000
  0.333333  0.500000  0.000000      2.000000
  0.500000  0.500000  0.000000      1.000000
  0.000000  0.000000  0.500000      1.000000
  0.166667  0.000000  0.500000      2.000000
  0.333333  0.000000  0.500000      2.000000
  0.500000  0.000000  0.500000      1.000000
  0.000000  0.166667  0.500000      2.000000
  0.166667  0.166667  0.500000      2.000000
  0.166667 -0.166667  0.500000      2.000000
  0.333333  0.166667  0.500000      2.000000
  0.333333 -0.166667  0.500000      2.000000
  0.500000  0.166667  0.500000      2.000000
  0.000000  0.333333  0.500000      2.000000
  0.166667  0.333333  0.500000      2.000000
  0.166667 -0.333333  0.500000      2.000000
  0.333333  0.333333  0.500000      2.000000
  0.333333 -0.333333  0.500000      2.000000
  0.500000  0.333333  0.500000      2.000000
  0.000000  0.500000  0.500000      1.000000
  0.166667  0.500000  0.500000      2.000000
  0.333333  0.500000  0.500000      2.000000
  0.500000  0.500000  0.500000      1.000000
 
 Following cartesian coordinates:
            Coordinates               Weight
  0.000000  0.000000  0.000000      1.000000
  0.045045  0.000000  0.000000      2.000000
  0.090090  0.000000  0.000000      2.000000
  0.135135  0.000000  0.000000      1.000000
  0.000000  0.037879  0.000000      2.000000
  0.045045  0.037879  0.000000      2.000000
  0.045045 -0.037879  0.000000      2.000000
  0.090090  0.037879  0.000000      2.000000
  0.090090 -0.037879  0.000000      2.000000
  0.135135  0.037879  0.000000      2.000000
  0.000000  0.075758  0.000000      2.000000
  0.045045  0.075758  0.000000      2.000000
  0.045045 -0.075758  0.000000      2.000000
  0.090090  0.075758  0.000000      2.000000
  0.090090 -0.075758  0.000000      2.000000
  0.135135  0.075758  0.000000      2.000000
  0.000000  0.113636  0.000000      1.000000
  0.045045  0.113636  0.000000      2.000000
  0.090090  0.113636  0.000000      2.000000
  0.135135  0.113636  0.000000      1.000000
  0.000000  0.000000  0.044874      1.000000
  0.045045  0.000000  0.044874      2.000000
  0.090090  0.000000  0.044874      2.000000
  0.135135  0.000000  0.044874      1.000000
  0.000000  0.037879  0.044874      2.000000
  0.045045  0.037879  0.044874      2.000000
  0.045045 -0.037879  0.044874      2.000000
  0.090090  0.037879  0.044874      2.000000
  0.090090 -0.037879  0.044874      2.000000
  0.135135  0.037879  0.044874      2.000000
  0.000000  0.075758  0.044874      2.000000
  0.045045  0.075758  0.044874      2.000000
  0.045045 -0.075758  0.044874      2.000000
  0.090090  0.075758  0.044874      2.000000
  0.090090 -0.075758  0.044874      2.000000
  0.135135  0.075758  0.044874      2.000000
  0.000000  0.113636  0.044874      1.000000
  0.045045  0.113636  0.044874      2.000000
  0.090090  0.113636  0.044874      2.000000
  0.135135  0.113636  0.044874      1.000000
 


--------------------------------------------------------------------------------------------------------




 Dimension of arrays:
   k-points           NKPTS =     40   k-points in BZ     NKDIM =     40   number of bands    NBANDS=     32
   number of dos      NEDOS =    301   number of ions     NIONS =      8
   non local maximal  LDIM  =      5   non local SUM 2l+1 LMDIM =     13
   total plane-waves  NPLWV =  19440
   max r-space proj   IRMAX =      1   max aug-charges    IRDMAX=   6024
   dimension x,y,z NGX =    18 NGY =   20 NGZ =   54
   dimension x,y,z NGXF=    36 NGYF=   40 NGZF=  108
   support grid    NGXF=    36 NGYF=   40 NGZF=  108
   ions per type =               4   4
   NGX,Y,Z   is equivalent  to a cutoff of   8.09,  7.56,  8.06 a.u.
   NGXF,Y,Z  is equivalent  to a cutoff of  16.18, 15.11, 16.11 a.u.

 SYSTEM =  ./                                      
 POSCAR =  Ge Se                                   

 Startparameter for this run:
   NWRITE =      2    write-flag & timer
   PREC   = normal    normal or accurate (medium, high low for compatibility)
   ISTART =      0    job   : 0-new  1-cont  2-samecut
   ICHARG =      2    charge: 1-file 2-atom 10-const
   ISPIN  =      1    spin polarized calculation?
   LNONCOLLINEAR =      F non collinear calculations
   LSORBIT =      F    spin-orbit coupling
   INIWAV =      1    electr: 0-lowe 1-rand  2-diag
   LASPH  =      T    aspherical Exc in radial PAW
 Electronic Relaxation 1
   ENCUT  =  360.0 eV  26.46 Ry    5.14 a.u.   5.72  6.81 17.24*2*pi/ulx,y,z
   ENINI  =  360.0     initial cutoff
   ENAUG  =  446.8 eV  augmentation charge cutoff
   NELM   =    100;   NELMIN=  2; NELMDL= -5     # of ELM steps 
   EDIFF  = 0.1E-05   stopping-criterion for ELM
   LREAL  =      F    real-space projection
   NLSPLINE    = F    spline interpolate recip. space projectors
   LCOMPAT=      F    compatible to vasp.4.4
   GGA_COMPAT  = T    GGA compatible to vasp.4.4-vasp.4.6
   LMAXPAW     = -100 max onsite density
   LMAXMIX     =    4 max onsite mixed and CHGCAR
   VOSKOWN=      0    Vosko Wilk Nusair interpolation
   ROPT   =    0.00000   0.00000
 Ionic relaxation
   EDIFFG = 0.1E-04   stopping-criterion for IOM
   NSW    =      0    number of steps for IOM
   NBLOCK =      1;   KBLOCK =      1    inner block; outer block 
   IBRION =     -1    ionic relax: 0-MD 1-quasi-New 2-CG
   NFREE  =      0    steps in history (QN), initial steepest desc. (CG)
   ISIF   =      2    stress and relaxation
   IWAVPR =     10    prediction:  0-non 1-charg 2-wave 3-comb
   ISYM   =      0    0-nonsym 1-usesym 2-fastsym
   LCORR  =      T    Harris-Foulkes like correction to forces

   POTIM  = 0.5000    time-step for ionic-motion
   TEIN   =    0.0    initial temperature
   TEBEG  =    0.0;   TEEND  =   0.0 temperature during run
   SMASS  =  -3.00    Nose mass-parameter (am)
   estimated Nose-frequenzy (Omega)   =  0.10E-29 period in steps = 0.13E+47 mass=  -0.313E-27a.u.
   SCALEE = 1.0000    scale energy and forces
   NPACO  =    256;   APACO  = 10.0  distance and # of slots for P.C.
   PSTRESS=    0.0 pullay stress

  Mass of Ions in am
   POMASS =  72.61 78.96
  Ionic Valenz
   ZVAL   =   4.00  6.00
  Atomic Wigner-Seitz radii
   RWIGS  =  -1.00 -1.00
  virtual crystal weights 
   VCA    =   1.00  1.00
   NELECT =      40.0000    total number of electrons
   NUPDOWN=      -1.0000    fix difference up-down

 DOS related values:
   EMIN   =  10.00;   EMAX   =-10.00  energy-range for DOS
   EFERMI =   0.00;   METHOD = LEGACY      
   ISMEAR =     0;   SIGMA  =   0.05  broadening in eV -4-tet -1-fermi 0-gaus

 Electronic relaxation 2 (details)
   IALGO  =     38    algorithm
   LDIAG  =      T    sub-space diagonalisation (order eigenvalues)
   LSUBROT=      F    optimize rotation matrix (better conditioning)
   TURBO    =      0    0=normal 1=particle mesh
   IRESTART =      0    0=no restart 2=restart with 2 vectors
   NREBOOT  =      0    no. of reboots
   NMIN     =      0    reboot dimension
   EREF     =   0.00    reference energy to select bands
   IMIX   =      4    mixing-type and parameters
     AMIX     =   0.40;   BMIX     =  1.00
     AMIX_MAG =   1.60;   BMIX_MAG =  1.00
     AMIN     =   0.10
     WC   =   100.;   INIMIX=   1;  MIXPRE=   1;  MAXMIX= -45

 Intra band minimization:
   WEIMIN = 0.0000     energy-eigenvalue tresh-hold
   EBREAK =  0.78E-08  absolut break condition
   DEPER  =   0.30     relativ break condition  

   TIME   =   0.40     timestep for ELM

  volume/ion in A,a.u.               =      22.67       153.01
  Fermi-wavevector in a.u.,A,eV,Ry     =   0.989053  1.869039 13.309563  0.978225
  Thomas-Fermi vector in A             =   2.120624
 
 Write flags
   LWAVE        =      F    write WAVECAR
   LDOWNSAMPLE  =      F    k-point downsampling of WAVECAR
   LCHARG       =      F    write CHGCAR
   LVTOT        =      F    write LOCPOT, total local potential
   LVHAR        =      F    write LOCPOT, Hartree potential only
   LELF         =      F    write electronic localiz. function (ELF)
   LORBIT       =      0    0 simple, 1 ext, 2 COOP (PROOUT), +10 PAW based schemes


 Dipole corrections
   LMONO  =      F    monopole corrections only (constant potential shift)
   LDIPOL =      F    correct potential (dipole corrections)
   IDIPOL =      0    1-x, 2-y, 3-z, 4-all directions 
   EPSILON=  1.0000000 bulk dielectric constant

 Exchange correlation treatment:
   GGA     =    PE    GGA type
   LEXCH   =     8    internal setting for exchange type
   LIBXC   =     F    Libxc                    
   VOSKOWN =     0    Vosko Wilk Nusair interpolation
   LHFCALC =     F    Hartree Fock is set to
   LHFONE  =     F    Hartree Fock one center treatment
   AEXX    =    0.0000 exact exchange contribution

 Linear response parameters
   LEPSILON=     F    determine dielectric tensor
   LRPA    =     F    only Hartree local field effects (RPA)
   LNABLA  =     F    use nabla operator in PAW spheres
   LVEL    =     F    velocity operator in full k-point grid
   CSHIFT  =0.1000    complex shift for real part using Kramers Kronig
   OMEGAMAX=  -1.0    maximum frequency
   DEG_THRESHOLD= 0.2000000E-02 threshold for treating states as degnerate
   RTIME   =   -0.100 relaxation time in fs
  (WPLASMAI=    0.000 imaginary part of plasma frequency in eV, 0.658/RTIME)
   DFIELD  = 0.0000000 0.0000000 0.0000000 field for delta impulse in time
 
  Optional k-point grid parameters
   LKPOINTS_OPT  =     F    use optional k-point grid
   KPOINTS_OPT_MODE=     1    mode for optional k-point grid
 
 Orbital magnetization related:
   ORBITALMAG=     F  switch on orbital magnetization
   LCHIMAG   =     F  perturbation theory with respect to B field
   DQ        =  0.001000  dq finite difference perturbation B field
   LLRAUG    =     F  two centre corrections for induced B field
   LBONE     =     F  B-component reconstruction in AE one-centre
   LVGVCALC  =     T  calculate vGv susceptibility
   LVGVAPPL  =     F  apply vGv susceptibility instead of pGv for G=0

 Random number generation:
   RANDOM_GENERATOR = DEFAULT
   PCG_SEED         = not used


--------------------------------------------------------------------------------------------------------


 Static calculation
 charge density and potential will be updated during run
 non-spin polarized calculation
 Variant of blocked Davidson
 Davidson routine will perform the subspace rotation
 perform sub-space diagonalisation
    after iterative eigenvector-optimisation
 modified Broyden-mixing scheme, WC =      100.0
 initial mixing is a Kerker type mixing with AMIX =  0.4000 and BMIX =      1.0000
 Hartree-type preconditioning will be used
 using additional bands            12
 reciprocal scheme for non local part
 use partial core corrections
 calculate Harris-corrections to forces 
   (improved forces if not selfconsistent)
 use gradient corrections 
 use of overlap-Matrix (Vanderbilt PP)
 Gauss-broadening in eV      SIGMA  =   0.05


--------------------------------------------------------------------------------------------------------


  energy-cutoff  :      360.00
  volume of cell :      181.40
      direct lattice vectors                 reciprocal lattice vectors
     3.700000000  0.000000000  0.000000000     0.270270270  0.000000000  0.000000000
     0.000000000  4.400000000  0.000000000     0.000000000  0.227272727  0.000000000
     0.000000000  0.000000000 11.142221000     0.000000000  0.000000000  0.089748713

  length of vectors
     3.700000000  4.400000000 11.142221000     0.270270270  0.227272727  0.089748713


 
 k-points in units of 2pi/SCALE and weight: KPOINTS created by Atomic Simulation Env
   0.00000000  0.00000000  0.00000000       0.014
   0.04504505  0.00000000  0.00000000       0.028
   0.09009009  0.00000000  0.00000000       0.028
   0.13513514  0.00000000  0.00000000       0.014
   0.00000000  0.03787879  0.00000000       0.028
   0.04504505  0.03787879  0.00000000       0.028
   0.04504505 -0.03787879  0.00000000       0.028
   0.09009009  0.03787879  0.00000000       0.028
   0.09009009 -0.03787879  0.00000000       0.028
   0.13513514  0.03787879  0.00000000       0.028
   0.00000000  0.07575758  0.00000000       0.028
   0.04504505  0.07575758  0.00000000       0.028
   0.04504505 -0.07575758  0.00000000       0.028
   0.09009009  0.07575758  0.00000000       0.028
   0.09009009 -0.07575758  0.00000000       0.028
   0.13513514  0.07575758  0.00000000       0.028
   0.00000000  0.11363636  0.00000000       0.014
   0.04504505  0.11363636  0.00000000       0.028
   0.09009009  0.11363636  0.00000000       0.028
   0.13513514  0.11363636  0.00000000       0.014
   0.00000000  0.00000000  0.04487436       0.014
   0.04504505  0.00000000  0.04487436       0.028
   0.09009009  0.00000000  0.04487436       0.028
   0.13513514  0.00000000  0.04487436       0.014
   0.00000000  0.03787879  0.04487436       0.028
   0.04504505  0.03787879  0.04487436       0.028
   0.04504505 -0.03787879  0.04487436       0.028
   0.09009009  0.03787879  0.04487436       0.028
   0.09009009 -0.03787879  0.04487436       0.028
   0.13513514  0.03787879  0.04487436       0.028
   0.00000000  0.07575758  0.04487436       0.028
   0.04504505  0.07575758  0.04487436       0.028
   0.04504505 -0.07575758  0.04487436       0.028
   0.09009009  0.07575758  0.04487436       0.028
   0.09009009 -0.07575758  0.04487436       0.028
   0.13513514  0.07575758  0.04487436       0.028
   0.00000000  0.11363636  0.04487436       0.014
   0.04504505  0.11363636  0.04487436       0.028
   0.09009009  0.11363636  0.04487436       0.028
   0.13513514  0.11363636  0.04487436       0.014
 
 k-points in reciprocal lattice and weights: KPOINTS created by Atomic Simulation Env
   0.00000000  0.00000000  0.00000000       0.014
   0.16666667  0.00000000  0.00000000       0.028
   0.33333333  0.00000000  0.00000000       0.028
   0.50000000  0.00000000  0.00000000       0.014
   0.00000000  0.16666667  0.00000000       0.028
   0.16666667  0.16666667  0.00000000       0.028
   0.16666667 -0.16666667  0.00000000       0.028
   0.33333333  0.16666667  0.00000000       0.028
   0.33333333 -0.16666667  0.00000000       0.028
   0.50000000  0.16666667  0.00000000       0.028
   0.00000000  0.33333333  0.00000000       0.028
   0.16666667  0.33333333  0.00000000       0.028
   0.16666667 -0.33333333  0.00000000       0.028
   0.33333333  0.33333333  0.00000000       0.028
   0.33333333 -0.33333333  0.00000000       0.028
   0.50000000  0.33333333  0.00000000       0.028
   0.00000000  0.50000000  0.00000000       0.014
   0.16666667  0.50000000  0.00000000       0.028
   0.33333333  0.50000000  0.00000000       0.028
   0.50000000  0.50000000  0.00000000       0.014
   0.00000000  0.00000000  0.50000000       0.014
   0.16666667  0.00000000  0.50000000       0.028
   0.33333333  0.00000000  0.50000000       0.028
   0.50000000  0.00000000  0.50000000       0.014
   0.00000000  0.16666667  0.50000000       0.028
   0.16666667  0.16666667  0.50000000       0.028
   0.16666667 -0.16666667  0.50000000       0.028
   0.33333333  0.16666667  0.50000000       0.028
   0.33333333 -0.16666667  0.50000000       0.028
   0.50000000  0.16666667  0.50000000       0.028
   0.00000000  0.33333333  0.50000000       0.028
   0.16666667  0.33333333  0.50000000       0.028
   0.16666667 -0.33333333  0.50000000       0.028
   0.33333333  0.33333333  0.50000000       0.028
   0.33333333 -0.33333333  0.50000000       0.028
   0.50000000  0.33333333  0.50000000       0.028
   0.00000000  0.50000000  0.50000000       0.014
   0.16666667  0.50000000  0.50000000       0.028
   0.33333333  0.50000000  0.50000000       0.028
   0.50000000  0.50000000  0.50000000       0.014
 
 position of ions in fractional coordinates (direct lattice) 
   0.25000000  0.10959780  0.12206970
   0.75000000  0.60959780  0.37793030
   0.75000000  0.89040220  0.87793030
   0.25000000  0.39040220  0.62206970
   0.25000000  0.00434106  0.35285900
   0.75000000  0.50434106  0.14714100
   0.75000000  0.99565894  0.64714100
   0.25000000  0.49565894  0.85285900
 
 position of ions in cartesian coordinates  (Angst):
   0.92500000  0.48223034  1.36012754
   2.77500000  2.68223034  4.21098296
   2.77500000  3.91776966  9.78209346
   0.92500000  1.71776966  6.93123804
   0.92500000  0.01910065  3.93163298
   2.77500000  2.21910065  1.63947752
   2.77500000  4.38089935  7.21058802
   0.92500000  2.18089935  9.50274348
 


--------------------------------------------------------------------------------------------------------


 k-point   1 :   0.0000 0.0000 0.0000  plane waves:    2825
 k-point   2 :   0.1667 0.0000 0.0000  plane waves:    2811
 k-point   3 :   0.3333 0.0000 0.0000  plane waves:    2808
 k-point   4 :   0.5000 0.0000 0.0000  plane waves:    2824
 k-point   5 :   0.0000 0.1667 0.0000  plane waves:    2819
 k-point   6 :   0.1667 0.1667 0.0000  plane waves:    2798
 k-point   7 :   0.1667-0.1667 0.0000  plane waves:    2798
 k-point   8 :   0.3333 0.1667 0.0000  plane waves:    2819
 k-point   9 :   0.3333-0.1667 0.0000  plane waves:    2819
 k-point  10 :   0.5000 0.1667 0.0000  plane waves:    2824
 k-point  11 :   0.0000 0.3333 0.0000  plane waves:    2822
 k-point  12 :   0.1667 0.3333 0.0000  plane waves:    2813
 k-point  13 :   0.1667-0.3333 0.0000  plane waves:    2813
 k-point  14 :   0.3333 0.3333 0.0000  plane waves:    2819
 k-point  15 :   0.3333-0.3333 0.0000  plane waves:    2819
 k-point  16 :   0.5000 0.3333 0.0000  plane waves:    2816
 k-point  17 :   0.0000 0.5000 0.0000  plane waves:    2826
 k-point  18 :   0.1667 0.5000 0.0000  plane waves:    2820
 k-point  19 :   0.3333 0.5000 0.0000  plane waves:    2808
 k-point  20 :   0.5000 0.5000 0.0000  plane waves:    2820
 k-point  21 :   0.0000 0.0000 0.5000  plane waves:    2810
 k-point  22 :   0.1667 0.0000 0.5000  plane waves:    2798
 k-point  23 :   0.3333 0.0000 0.5000  plane waves:    2812
 k-point  24 :   0.5000 0.0000 0.5000  plane waves:    2816
 k-point  25 :   0.0000 0.1667 0.5000  plane waves:    2796
 k-point  26 :   0.1667 0.1667 0.5000  plane waves:    2810
 k-point  27 :   0.1667-0.1667 0.5000  plane waves:    2810
 k-point  28 :   0.3333 0.1667 0.5000  plane waves:    2810
 k-point  29 :   0.3333-0.1667 0.5000  plane waves:    2810
 k-point  30 :   0.5000 0.1667 0.5000  plane waves:    2824
 k-point  31 :   0.0000 0.3333 0.5000  plane waves:    2832
 k-point  32 :   0.1667 0.3333 0.5000  plane waves:    2810
 k-point  33 :   0.1667-0.3333 0.5000  plane waves:    2810
 k-point  34 :   0.3333 0.3333 0.5000  plane waves:    2806
 k-point  35 :   0.3333-0.3333 0.5000  plane waves:    2806
 k-point  36 :   0.5000 0.3333 0.5000  plane waves:    2812
 k-point  37 :   0.0000 0.5000 0.5000  plane waves:    2844
 k-point  38 :   0.1667 0.5000 0.5000  plane waves:    2832
 k-point  39 :   0.3333 0.5000 0.5000  plane waves:    2812
 k-point  40 :   0.5000 0.5000 0.5000  plane waves:    2824

 maximum and minimum number of plane-waves per node :       721      686

 maximum number of plane-waves:      2844
 maximum index in each direction: 
   IXMAX=    5   IYMAX=    7   IZMAX=   17
   IXMIN=   -6   IYMIN=   -7   IZMIN=  -17


 parallel 3D FFT for wavefunctions:
    minimum data exchange during FFTs selected (reduces bandwidth)
 parallel 3D FFT for charge:
    minimum data exchange during FFTs selected (reduces bandwidth)


 total amount of memory used by VASP MPI-rank0    37839. kBytes
=======================================================================

   base      :      30000. kBytes
   nonl-proj :       6082. kBytes
   fftplans  :        317. kBytes
   grid      :        462. kBytes
   one-center:         16. kBytes
   wavefun   :        962. kBytes
 
     INWAV:  cpu time      0.0000: real time      0.0001
 Broyden mixing: mesh for mixing (old mesh)
   NGX = 11   NGY = 13   NGZ = 35
  (NGX  = 36   NGY  = 40   NGZ  =108)
  gives a total of   5005 points

 initial charge density was supplied:
 charge density of overlapping atoms calculated
 number of electron      40.0000000 magnetization 
 keeping initial charge density in first step


--------------------------------------------------------------------------------------------------------


 Maximum index for augmentation-charges           135 (set IRDMAX)


--------------------------------------------------------------------------------------------------------


 First call to EWALD:  gamma=   0.313
 Maximum number of real-space cells 4x 3x 2
 Maximum number of reciprocal cells 2x 2x 5

    FEWALD:  cpu time      0.0019: real time      0.0019


--------------------------------------- Ionic step        1  -------------------------------------------




--------------------------------------- Iteration      1(   1)  ---------------------------------------


    POTLOK:  cpu time      0.0077: real time      0.0090
    SETDIJ:  cpu time      0.1378: real time      0.1383
     EDDAV:  cpu time      0.2564: real time      0.2587
       DOS:  cpu time      0.0019: real time      0.0019
    --------------------------------------------
      LOOP:  cpu time      0.4039: real time      0.4079

 eigenvalue-minimisations  :  2560
 total energy-change (2. order) : 0.1300178E+03  (-0.1304620E+04)
 number of electron      40.0000000 magnetization 
 augmentation part       40.0000000 magnetization 

 Free energy of the ion-electron system (eV)
  ---------------------------------------------------
  alpha Z        PSCENC =        93.41168174
  Ewald energy   TEWEN  =     -1456.70360420
  -Hartree energ DENC   =      -115.30277419
  -exchange      EXHF   =         0.00000000
  -V(xc)+E(xc)   XCENC  =       -32.57987525
  PAW double counting   =      1193.78262552    -1080.73714043
  entropy T*S    EENTRO =        -0.00381432
  eigenvalues    EBANDS =        79.66606132
  atomic energy  EATOM  =      1448.48460880
  Solvation  Ediel_sol  =         0.00000000
  ---------------------------------------------------
  free energy    TOTEN  =       130.01776899 eV

  energy without entropy =      130.02158331  energy(sigma->0) =      130.01967615


--------------------------------------------------------------------------------------------------------




--------------------------------------- Iteration      1(   2)  ---------------------------------------


     EDDAV:  cpu time      0.3324: real time      0.3356
       DOS:  cpu time      0.0010: real time      0.0010
    --------------------------------------------
      LOOP:  cpu time      0.3334: real time      0.3366

 eigenvalue-minimisations  :  3760
 total energy-change (2. order) :-0.1558117E+03  (-0.1508083E+03)
 number of electron      40.0000000 magnetization 
 augmentation part       40.0000000 magnetization 

 Free energy of the ion-electron system (eV)
  ---------------------------------------------------
  alpha Z        PSCENC =        93.41168174
  Ewald energy   TEWEN  =     -1456.70360420
  -Hartree energ DENC   =      -115.30277419
  -exchange      EXHF   =         0.00000000
  -V(xc)+E(xc)   XCENC  =       -32.57987525
  PAW double counting   =      1193.78262552    -1080.73714043
  entropy T*S    EENTRO =        -0.00020094
  eigenvalues    EBANDS =       -76.14924643
  atomic energy  EATOM  =      1448.48460880
  Solvation  Ediel_sol  =         0.00000000
  ---------------------------------------------------
  free energy    TOTEN  =       -25.79392538 eV

  energy without entropy =      -25.79372444  energy(sigma->0) =      -25.79382491


--------------------------------------------------------------------------------------------------------




--------------------------------------- Iteration      1(   3)  ---------------------------------------


     EDDAV:  cpu time      0.3051: real time      0.3080
       DOS:  cpu time      0.0005: real time      0.0005
    --------------------------------------------
      LOOP:  cpu time      0.3056: real time      0.3086

 eigenvalue-minimisations  :  3248
 total energy-change (2. order) :-0.8118616E+01  (-0.8102222E+01)
 number of electron      40.0000000 magnetization 
 augmentation part       40.0000000 magnetization 

 Free energy of the ion-electron system (eV)
  ---------------------------------------------------
  alpha Z        PSCENC =        93.41168174
  Ewald energy   TEWEN  =     -1456.70360420
  -Hartree energ DENC   =      -115.30277419
  -exchange      EXHF   =         0.00000000
  -V(xc)+E(xc)   XCENC  =       -32.57987525
  PAW double counting   =      1193.78262552    -1080.73714043
  entropy T*S    EENTRO =        -0.00000000
  eigenvalues    EBANDS =       -84.26806309
  atomic energy  EATOM  =      1448.48460880
  Solvation  Ediel_sol  =         0.00000000
  ---------------------------------------------------
  free energy    TOTEN  =       -33.91254110 eV

  energy without entropy =      -33.91254110  energy(sigma->0) =      -33.91254110


--------------------------------------------------------------------------------------------------------




--------------------------------------- Iteration      1(   4)  ---------------------------------------


     EDDAV:  cpu time      0.3105: real time      0.3134
       DOS:  cpu time      0.0006: real time      0.0006
    --------------------------------------------
      LOOP:  cpu time      0.3111: real time      0.3140

 eigenvalue-minimisations  :  3280
 total energy-change (2. order) :-0.5027101E-01  (-0.5026477E-01)
 number of electron      40.0000000 magnetization 
 augmentation part       40.0000000 magnetization 

 Free energy of the ion-electron system (eV)
  ---------------------------------------------------
  alpha Z        PSCENC =        93.41168174
  Ewald energy   TEWEN  =     -1456.70360420
  -Hartree energ DENC   =      -115.30277419
  -exchange      EXHF   =         0.00000000
  -V(xc)+E(xc)   XCENC  =       -32.57987525
  PAW double counting   =      1193.78262552    -1080.73714043
  entropy T*S    EENTRO =        -0.00000000
  eigenvalues    EBANDS =       -84.31833410
  atomic energy  EATOM  =      1448.48460880
  Solvation  Ediel_sol  =         0.00000000
  ---------------------------------------------------
  free energy    TOTEN  =       -33.96281211 eV

  energy without entropy =      -33.96281211  energy(sigma->0) =      -33.96281211


--------------------------------------------------------------------------------------------------------




--------------------------------------- Iteration      1(   5)  ---------------------------------------


     EDDAV:  cpu time      0.3028: real time      0.3060
       DOS:  cpu time      0.0006: real time      0.0006
    CHARGE:  cpu time      0.0044: real time      0.0044
    MIXING:  cpu time      0.0006: real time      0.0006
    --------------------------------------------
      LOOP:  cpu time      0.3085: real time      0.3117

 eigenvalue-minimisations  :  3232
 total energy-change (2. order) :-0.2901560E-03  (-0.2901521E-03)
 number of electron      39.9999996 magnetization 
 augmentation part       -7.4015338 magnetization 

 Broyden mixing:
  rms(total) = 0.68245E+00    rms(broyden)= 0.68244E+00
  rms(prec ) = 0.75288E+00
  weight for this iteration     100.00

 Free energy of the ion-electron system (eV)
  ---------------------------------------------------
  alpha Z        PSCENC =        93.41168174
  Ewald energy   TEWEN  =     -1456.70360420
  -Hartree energ DENC   =      -115.30277419
  -exchange      EXHF   =         0.00000000
  -V(xc)+E(xc)   XCENC  =       -32.57987525
  PAW double counting   =      1193.78262552    -1080.73714043
  entropy T*S    EENTRO =        -0.00000000
  eigenvalues    EBANDS =       -84.31862425
  atomic energy  EATOM  =      1448.48460880
  Solvation  Ediel_sol  =         0.00000000
  ---------------------------------------------------
  free energy    TOTEN  =       -33.96310226 eV

  energy without entropy =      -33.96310226  energy(sigma->0) =      -33.96310226


--------------------------------------------------------------------------------------------------------




--------------------------------------- Iteration      1(   6)  ---------------------------------------


    POTLOK:  cpu time      0.0052: real time      0.0054
    SETDIJ:  cpu time      0.1372: real time      0.1377
     EDDAV:  cpu time      0.3172: real time      0.3200
       DOS:  cpu time      0.0008: real time      0.0008
    CHARGE:  cpu time      0.0064: real time      0.0064
    MIXING:  cpu time      0.0005: real time      0.0005
    --------------------------------------------
      LOOP:  cpu time      0.4673: real time      0.4708

 eigenvalue-minimisations  :  3120
 total energy-change (2. order) : 0.3318804E+00  (-0.6340768E-01)
 number of electron      39.9999995 magnetization 
 augmentation part       -7.3512574 magnetization 

 Broyden mixing:
  rms(total) = 0.42963E+00    rms(broyden)= 0.42963E+00
  rms(prec ) = 0.44949E+00
  weight for this iteration     100.00

 eigenvalues of (default mixing * dielectric matrix)
  average eigenvalue GAMMA=   2.3226
  2.3226

 Free energy of the ion-electron system (eV)
  ---------------------------------------------------
  alpha Z        PSCENC =        93.41168174
  Ewald energy   TEWEN  =     -1456.70360420
  -Hartree energ DENC   =      -120.58536191
  -exchange      EXHF   =         0.00000000
  -V(xc)+E(xc)   XCENC  =       -32.00148562
  PAW double counting   =      1479.63244347    -1366.93519879
  entropy T*S    EENTRO =        -0.00000238
  eigenvalues    EBANDS =       -78.93430297
  atomic energy  EATOM  =      1448.48460880
  Solvation  Ediel_sol  =         0.00000000
  ---------------------------------------------------
  free energy    TOTEN  =       -33.63122186 eV

  energy without entropy =      -33.63121947  energy(sigma->0) =      -33.63122066


--------------------------------------------------------------------------------------------------------




--------------------------------------- Iteration      1(   7)  ---------------------------------------


    POTLOK:  cpu time      0.0052: real time      0.0054
    SETDIJ:  cpu time      0.1373: real time      0.1379
     EDDAV:  cpu time      0.2862: real time      0.2890
       DOS:  cpu time      0.0010: real time      0.0010
    CHARGE:  cpu time      0.0042: real time      0.0042
    MIXING:  cpu time      0.0005: real time      0.0005
    --------------------------------------------
      LOOP:  cpu time      0.4343: real time      0.4380

 eigenvalue-minimisations  :  3120
 total energy-change (2. order) : 0.1448198E-01  (-0.2289712E-01)
 number of electron      39.9999995 magnetization 
 augmentation part       -7.3349551 magnetization 

 Broyden mixing:
  rms(total) = 0.11356E+00    rms(broyden)= 0.11356E+00
  rms(prec ) = 0.12188E+00
  weight for this iteration     100.00

 eigenvalues of (default mixing * dielectric matrix)
  average eigenvalue GAMMA=   1.8136
  1.2250  2.4022

 Free energy of the ion-electron system (eV)
  ---------------------------------------------------
  alpha Z        PSCENC =        93.41168174
  Ewald energy   TEWEN  =     -1456.70360420
  -Hartree energ DENC   =      -123.38128977
  -exchange      EXHF   =         0.00000000
  -V(xc)+E(xc)   XCENC  =       -31.48254640
  PAW double counting   =      1870.10785468    -1757.71776192
  entropy T*S    EENTRO =        -0.00006601
  eigenvalues    EBANDS =       -76.33561680
  atomic energy  EATOM  =      1448.48460880
  Solvation  Ediel_sol  =         0.00000000
  ---------------------------------------------------
  free energy    TOTEN  =       -33.61673987 eV

  energy without entropy =      -33.61667386  energy(sigma->0) =      -33.61670687


--------------------------------------------------------------------------------------------------------




--------------------------------------- Iteration      1(   8)  ---------------------------------------


    POTLOK:  cpu time      0.0050: real time      0.0052
    SETDIJ:  cpu time      0.1371: real time      0.1377
     EDDAV:  cpu time      0.2678: real time      0.2703
       DOS:  cpu time      0.0009: real time      0.0009
    CHARGE:  cpu time      0.0041: real time      0.0041
    MIXING:  cpu time      0.0023: real time      0.0023
    --------------------------------------------
      LOOP:  cpu time      0.4173: real time      0.4205

 eigenvalue-minimisations  :  2880
 total energy-change (2. order) : 0.2862292E-02  (-0.2455012E-02)
 number of electron      39.9999995 magnetization 
 augmentation part       -7.3437814 magnetization 

 Broyden mixing:
  rms(total) = 0.18039E-01    rms(broyden)= 0.18038E-01
  rms(prec ) = 0.21141E-01
  weight for this iteration     100.00

 eigenvalues of (default mixing * dielectric matrix)
  average eigenvalue GAMMA=   1.7414
  2.5481  1.3380  1.3380

 Free energy of the ion-electron system (eV)
  ---------------------------------------------------
  alpha Z        PSCENC =        93.41168174
  Ewald energy   TEWEN  =     -1456.70360420
  -Hartree energ DENC   =      -123.22660879
  -exchange      EXHF   =         0.00000000
  -V(xc)+E(xc)   XCENC  =       -31.38088667
  PAW double counting   =      1993.07311943    -1880.73840471
  entropy T*S    EENTRO =        -0.00001788
  eigenvalues    EBANDS =       -76.53376530
  atomic energy  EATOM  =      1448.48460880
  Solvation  Ediel_sol  =         0.00000000
  ---------------------------------------------------
  free energy    TOTEN  =       -33.61387758 eV

  energy without entropy =      -33.61385971  energy(sigma->0) =      -33.61386864


--------------------------------------------------------------------------------------------------------




--------------------------------------- Iteration      1(   9)  ---------------------------------------


    POTLOK:  cpu time      0.0049: real time      0.0051
    SETDIJ:  cpu time      0.1390: real time      0.1396
     EDDAV:  cpu time      0.2891: real time      0.2916
       DOS:  cpu time      0.0009: real time      0.0009
    CHARGE:  cpu time      0.0042: real time      0.0042
    MIXING:  cpu time      0.0005: real time      0.0005
    --------------------------------------------
      LOOP:  cpu time      0.4386: real time      0.4420

 eigenvalue-minimisations  :  3152
 total energy-change (2. order) :-0.2773369E-03  (-0.3354519E-03)
 number of electron      39.9999995 magnetization 
 augmentation part       -7.3424805 magnetization 

 Broyden mixing:
  rms(total) = 0.62797E-02    rms(broyden)= 0.62797E-02
  rms(prec ) = 0.67724E-02
  weight for this iteration     100.00

 eigenvalues of (default mixing * dielectric matrix)
  average eigenvalue GAMMA=   1.6743
  2.2722  2.0619  1.1815  1.1815

 Free energy of the ion-electron system (eV)
  ---------------------------------------------------
  alpha Z        PSCENC =        93.41168174
  Ewald energy   TEWEN  =     -1456.70360420
  -Hartree energ DENC   =      -123.52119507
  -exchange      EXHF   =         0.00000000
  -V(xc)+E(xc)   XCENC  =       -31.34322281
  PAW double counting   =      2009.36436585    -1897.04071826
  entropy T*S    EENTRO =        -0.00002197
  eigenvalues    EBANDS =       -76.26604899
  atomic energy  EATOM  =      1448.48460880
  Solvation  Ediel_sol  =         0.00000000
  ---------------------------------------------------
  free energy    TOTEN  =       -33.61415492 eV

  energy without entropy =      -33.61413295  energy(sigma->0) =      -33.61414394


--------------------------------------------------------------------------------------------------------




--------------------------------------- Iteration      1(  10)  ---------------------------------------


    POTLOK:  cpu time      0.0049: real time      0.0051
    SETDIJ:  cpu time      0.1360: real time      0.1369
     EDDAV:  cpu time      0.2083: real time      0.2095
       DOS:  cpu time      0.0005: real time      0.0005
    CHARGE:  cpu time      0.0036: real time      0.0036
    MIXING:  cpu time      0.0003: real time      0.0003
    --------------------------------------------
      LOOP:  cpu time      0.3536: real time      0.3559

 eigenvalue-minimisations  :  3136
 total energy-change (2. order) :-0.4022770E-04  (-0.1606474E-04)
 number of electron      39.9999995 magnetization 
 augmentation part       -7.3424802 magnetization 

 Broyden mixing:
  rms(total) = 0.23927E-02    rms(broyden)= 0.23927E-02
  rms(prec ) = 0.28545E-02
  weight for this iteration     100.00

 eigenvalues of (default mixing * dielectric matrix)
  average eigenvalue GAMMA=   1.7523
  2.7055  2.3721  1.1211  1.2814  1.2814

 Free energy of the ion-electron system (eV)
  ---------------------------------------------------
  alpha Z        PSCENC =        93.41168174
  Ewald energy   TEWEN  =     -1456.70360420
  -Hartree energ DENC   =      -123.52841979
  -exchange      EXHF   =         0.00000000
  -V(xc)+E(xc)   XCENC  =       -31.34347794
  PAW double counting   =      2002.33124559    -1890.00235263
  entropy T*S    EENTRO =        -0.00002076
  eigenvalues    EBANDS =       -76.26385596
  atomic energy  EATOM  =      1448.48460880
  Solvation  Ediel_sol  =         0.00000000
  ---------------------------------------------------
  free energy    TOTEN  =       -33.61419515 eV

  energy without entropy =      -33.61417439  energy(sigma->0) =      -33.61418477


--------------------------------------------------------------------------------------------------------




--------------------------------------- Iteration      1(  11)  ---------------------------------------


    POTLOK:  cpu time      0.0034: real time      0.0035
    SETDIJ:  cpu time      0.1201: real time      0.1203
     EDDAV:  cpu time      0.1945: real time      0.1954
       DOS:  cpu time      0.0006: real time      0.0006
    CHARGE:  cpu time      0.0034: real time      0.0034
    MIXING:  cpu time      0.0003: real time      0.0003
    --------------------------------------------
      LOOP:  cpu time      0.3223: real time      0.3236

 eigenvalue-minimisations  :  3040
 total energy-change (2. order) :-0.2632738E-04  (-0.3474929E-05)
 number of electron      39.9999995 magnetization 
 augmentation part       -7.3426692 magnetization 

 Broyden mixing:
  rms(total) = 0.11012E-02    rms(broyden)= 0.11012E-02
  rms(prec ) = 0.12126E-02
  weight for this iteration     100.00

 eigenvalues of (default mixing * dielectric matrix)
  average eigenvalue GAMMA=   1.6937
  2.6206  2.1298  2.1298  1.2090  1.2090  0.8641

 Free energy of the ion-electron system (eV)
  ---------------------------------------------------
  alpha Z        PSCENC =        93.41168174
  Ewald energy   TEWEN  =     -1456.70360420
  -Hartree energ DENC   =      -123.55119107
  -exchange      EXHF   =         0.00000000
  -V(xc)+E(xc)   XCENC  =       -31.33718173
  PAW double counting   =      2003.59952504    -1891.27074138
  entropy T*S    EENTRO =        -0.00002004
  eigenvalues    EBANDS =       -76.24729864
  atomic energy  EATOM  =      1448.48460880
  Solvation  Ediel_sol  =         0.00000000
  ---------------------------------------------------
  free energy    TOTEN  =       -33.61422148 eV

  energy without entropy =      -33.61420144  energy(sigma->0) =      -33.61421146


--------------------------------------------------------------------------------------------------------




--------------------------------------- Iteration      1(  12)  ---------------------------------------


    POTLOK:  cpu time      0.0033: real time      0.0035
    SETDIJ:  cpu time      0.1095: real time      0.1098
     EDDAV:  cpu time      0.1900: real time      0.1909
       DOS:  cpu time      0.0006: real time      0.0006
    --------------------------------------------
      LOOP:  cpu time      0.3035: real time      0.3047

 eigenvalue-minimisations  :  3008
 total energy-change (2. order) : 0.9063234E-07  (-0.3803012E-06)
 number of electron      39.9999995 magnetization 
 augmentation part       -7.3426692 magnetization 

 Free energy of the ion-electron system (eV)
  ---------------------------------------------------
  alpha Z        PSCENC =        93.41168174
  Ewald energy   TEWEN  =     -1456.70360420
  -Hartree energ DENC   =      -123.56325194
  -exchange      EXHF   =         0.00000000
  -V(xc)+E(xc)   XCENC  =       -31.33633510
  PAW double counting   =      2003.04819394    -1890.71933599
  entropy T*S    EENTRO =        -0.00002044
  eigenvalues    EBANDS =       -76.23615819
  atomic energy  EATOM  =      1448.48460880
  Solvation  Ediel_sol  =         0.00000000
  ---------------------------------------------------
  free energy    TOTEN  =       -33.61422138 eV

  energy without entropy =      -33.61420094  energy(sigma->0) =      -33.61421116


--------------------------------------------------------------------------------------------------------




 average (electrostatic) potential at core
  the test charge radii are     1.1631  1.0808
  (the norm of the test charge is              1.0000)
       1 -32.8933       2 -32.8933       3 -32.8933       4 -32.8933       5 -54.4592
       6 -54.4592       7 -54.4592       8 -54.4592
 
 
 
 E-fermi :   4.0923     XC(G=0):  -9.6019     alpha+bet : -9.3059

 Fermi energy:         4.0923097267

 k-point     1 :       0.0000    0.0000    0.0000
  band No.  band energies     occupation 
      1     -10.7458      2.00000
      2     -10.3973      2.00000
      3      -9.4225      2.00000
      4      -8.8652      2.00000
      5      -4.0897      2.00000
      6      -3.4996      2.00000
      7      -2.1097      2.00000
      8      -1.5041      2.00000
      9      -1.4998      2.00000
     10      -0.1549      2.00000
     11       0.0914      2.00000
     12       0.1393      2.00000
     13       0.8507      2.00000
     14       1.2450      2.00000
     15       1.6487      2.00000
     16       2.0491      2.00000
     17       2.4171      2.00000
     18       2.6318      2.00000
     19       2.9785      2.00000
     20       3.9299      2.00000
     21       4.1882      0.00667
     22       6.5018      0.00000
     23       6.8921      0.00000
     24       6.9822      0.00000
     25       7.1407      0.00000
     26       7.1661      0.00000
     27       7.7983      0.00000
     28       8.4606      0.00000
     29       9.0872      0.00000
     30       9.3041      0.00000
     31       9.5062      0.00000
     32      10.0179      0.00000

 k-point     2 :       0.1667    0.0000    0.0000
  band No.  band energies     occupation 
      1     -10.5255      2.00000
      2     -10.1922      2.00000
      3      -9.2682      2.00000
      4      -8.7725      2.00000
      5      -4.3138      2.00000
      6      -3.8072      2.00000
      7      -2.2983      2.00000
      8      -2.2171      2.00000
      9      -1.4003      2.00000
     10       0.0823      2.00000
     11       0.0994      2.00000
     12       0.3323      2.00000
     13       0.7121      2.00000
     14       0.7415      2.00000
     15       1.7956      2.00000
     16       1.8445      2.00000
     17       2.0791      2.00000
     18       2.8535      2.00000
     19       3.0521      2.00000
     20       3.6392      2.00000
     21       4.4018      0.00000
     22       6.1041      0.00000
     23       6.7048      0.00000
     24       6.8061      0.00000
     25       7.3792      0.00000
     26       7.6641      0.00000
     27       7.8633      0.00000
     28       7.8941      0.00000
     29       8.1546      0.00000
     30       8.9439      0.00000
     31       9.0661      0.00000
     32       9.2449      0.00000

 k-point     3 :       0.3333    0.0000    0.0000
  band No.  band energies     occupation 
      1      -9.9170      2.00000
      2      -9.6458      2.00000
      3      -8.9693      2.00000
      4      -8.7080      2.00000
      5      -4.8453      2.00000
      6      -4.3992      2.00000
      7      -3.6904      2.00000
      8      -3.2422      2.00000
      9      -0.7666      2.00000
     10       0.2370      2.00000
     11       0.5324      2.00000
     12       0.8478      2.00000
     13       0.8727      2.00000
     14       1.0110      2.00000
     15       1.6874      2.00000
     16       2.0320      2.00000
     17       2.1696      2.00000
     18       2.7339      2.00000
     19       2.9905      2.00000
     20       3.1314      2.00000
     21       4.5618      0.00000
     22       4.9051      0.00000
     23       5.2887      0.00000
     24       5.8196      0.00000
     25       5.8990      0.00000
     26       6.4177      0.00000
     27       6.4702      0.00000
     28       7.3025      0.00000
     29       7.5735      0.00000
     30       7.9072      0.00000
     31       8.0273      0.00000
     32       9.0365      0.00000

 k-point     4 :       0.5000    0.0000    0.0000
  band No.  band energies     occupation 
      1      -9.1439      2.00000
      2      -9.1439      2.00000
      3      -9.0564      2.00000
      4      -9.0564      2.00000
      5      -4.7986      2.00000
      6      -4.7986      2.00000
      7      -4.2455      2.00000
      8      -4.2455      2.00000
      9       0.1661      2.00000
     10       0.1661      2.00000
     11       1.0158      2.00000
     12       1.0158      2.00000
     13       1.2933      2.00000
     14       1.2933      2.00000
     15       1.8549      2.00000
     16       1.8549      2.00000
     17       2.3914      2.00000
     18       2.3914      2.00000
     19       2.6142      2.00000
     20       2.6142      2.00000
     21       4.8841      0.00000
     22       4.8841      0.00000
     23       4.8885      0.00000
     24       4.8885      0.00000
     25       5.5428      0.00000
     26       5.5428      0.00000
     27       6.0824      0.00000
     28       6.0824      0.00000
     29       6.8762      0.00000
     30       6.8762      0.00000
     31       8.5415      0.00000
     32       8.5415      0.00000

 k-point     5 :       0.0000    0.1667    0.0000
  band No.  band energies     occupation 
      1     -10.6131      2.00000
      2     -10.2716      2.00000
      3      -9.4090      2.00000
      4      -8.9036      2.00000
      5      -4.5863      2.00000
      6      -3.7522      2.00000
      7      -2.9025      2.00000
      8      -2.1703      2.00000
      9      -1.4050      2.00000
     10       0.2682      2.00000
     11       0.8320      2.00000
     12       0.8805      2.00000
     13       1.0073      2.00000
     14       1.3889      2.00000
     15       2.1181      2.00000
     16       2.2206      2.00000
     17       2.5446      2.00000
     18       2.6468      2.00000
     19       3.0183      2.00000
     20       3.7479      2.00000
     21       4.2786      0.00000
     22       6.2386      0.00000
     23       6.8557      0.00000
     24       6.8703      0.00000
     25       7.0095      0.00000
     26       7.1804      0.00000
     27       7.5652      0.00000
     28       8.0024      0.00000
     29       8.3757      0.00000
     30       8.7146      0.00000
     31       9.3830      0.00000
     32       9.3952      0.00000

 k-point     6 :       0.1667    0.1667    0.0000
  band No.  band energies     occupation 
      1     -10.3980      2.00000
      2     -10.0724      2.00000
      3      -9.2580      2.00000
      4      -8.8073      2.00000
      5      -4.6219      2.00000
      6      -3.8783      2.00000
      7      -2.9633      2.00000
      8      -2.4708      2.00000
      9      -1.2455      2.00000
     10      -0.4045      2.00000
     11      -0.1599      2.00000
     12       0.6485      2.00000
     13       1.1435      2.00000
     14       1.5042      2.00000
     15       1.7263      2.00000
     16       1.8183      2.00000
     17       2.6623      2.00000
     18       2.7172      2.00000
     19       3.2553      2.00000
     20       3.6089      2.00000
     21       4.5167      0.00000
     22       5.7944      0.00000
     23       6.1787      0.00000
     24       6.3536      0.00000
     25       7.0803      0.00000
     26       7.5351      0.00000
     27       7.9051      0.00000
     28       8.0181      0.00000
     29       8.5994      0.00000
     30       8.7085      0.00000
     31       8.8208      0.00000
     32       9.6341      0.00000

 k-point     7 :       0.1667   -0.1667    0.0000
  band No.  band energies     occupation 
      1     -10.3980      2.00000
      2     -10.0724      2.00000
      3      -9.2580      2.00000
      4      -8.8073      2.00000
      5      -4.6219      2.00000
      6      -3.8783      2.00000
      7      -2.9633      2.00000
      8      -2.4708      2.00000
      9      -1.2455      2.00000
     10      -0.4045      2.00000
     11      -0.1599      2.00000
     12       0.6485      2.00000
     13       1.1435      2.00000
     14       1.5042      2.00000
     15       1.7263      2.00000
     16       1.8183      2.00000
     17       2.6623      2.00000
     18       2.7172      2.00000
     19       3.2553      2.00000
     20       3.6089      2.00000
     21       4.5167      0.00000
     22       5.7944      0.00000
     23       6.1787      0.00000
     24       6.3536      0.00000
     25       7.0803      0.00000
     26       7.5351      0.00000
     27       7.9051      0.00000
     28       8.0181      0.00000
     29       8.5994      0.00000
     30       8.7085      0.00000
     31       8.8208      0.00000
     32       9.6341      0.00000

 k-point     8 :       0.3333    0.1667    0.0000
  band No.  band energies     occupation 
      1      -9.8098      2.00000
      2      -9.5490      2.00000
      3      -8.9604      2.00000
      4      -8.7162      2.00000
      5      -4.8149      2.00000
      6      -4.2809      2.00000
      7      -3.6898      2.00000
      8      -3.3578      2.00000
      9      -0.7822      2.00000
     10      -0.6331      2.00000
     11      -0.4327      2.00000
     12       0.2934      2.00000
     13       1.0166      2.00000
     14       1.4984      2.00000
     15       1.5730      2.00000
     16       1.9200      2.00000
     17       2.0255      2.00000
     18       2.6451      2.00000
     19       2.7856      2.00000
     20       2.9086      2.00000
     21       4.6611      0.00000
     22       5.3184      0.00000
     23       5.5835      0.00000
     24       5.7761      0.00000
     25       6.2675      0.00000
     26       7.0973      0.00000
     27       7.5382      0.00000
     28       7.8419      0.00000
     29       8.0434      0.00000
     30       8.1143      0.00000
     31       8.8654      0.00000
     32       9.3301      0.00000

 k-point     9 :       0.3333   -0.1667    0.0000
  band No.  band energies     occupation 
      1      -9.8098      2.00000
      2      -9.5490      2.00000
      3      -8.9604      2.00000
      4      -8.7162      2.00000
      5      -4.8149      2.00000
      6      -4.2809      2.00000
      7      -3.6898      2.00000
      8      -3.3578      2.00000
      9      -0.7822      2.00000
     10      -0.6331      2.00000
     11      -0.4327      2.00000
     12       0.2934      2.00000
     13       1.0166      2.00000
     14       1.4984      2.00000
     15       1.5730      2.00000
     16       1.9200      2.00000
     17       2.0255      2.00000
     18       2.6451      2.00000
     19       2.7856      2.00000
     20       2.9086      2.00000
     21       4.6611      0.00000
     22       5.3184      0.00000
     23       5.5835      0.00000
     24       5.7761      0.00000
     25       6.2675      0.00000
     26       7.0973      0.00000
     27       7.5382      0.00000
     28       7.8419      0.00000
     29       8.0434      0.00000
     30       8.1143      0.00000
     31       8.8654      0.00000
     32       9.3301      0.00000

 k-point    10 :       0.5000    0.1667    0.0000
  band No.  band energies     occupation 
      1      -9.0866      2.00000
      2      -9.0866      2.00000
      3      -9.0090      2.00000
      4      -9.0090      2.00000
      5      -4.6691      2.00000
      6      -4.6691      2.00000
      7      -4.1788      2.00000
      8      -4.1788      2.00000
      9      -0.1851      2.00000
     10      -0.1851      2.00000
     11       0.1958      2.00000
     12       0.1958      2.00000
     13       0.7604      2.00000
     14       0.7604      2.00000
     15       1.4130      2.00000
     16       1.4130      2.00000
     17       2.0203      2.00000
     18       2.0203      2.00000
     19       2.8593      2.00000
     20       2.8593      2.00000
     21       4.7470      0.00000
     22       4.7470      0.00000
     23       5.8598      0.00000
     24       5.8598      0.00000
     25       6.7923      0.00000
     26       6.7923      0.00000
     27       6.9845      0.00000
     28       6.9845      0.00000
     29       7.8276      0.00000
     30       7.8276      0.00000
     31       8.2434      0.00000
     32       8.2434      0.00000

 k-point    11 :       0.0000    0.3333    0.0000
  band No.  band energies     occupation 
      1     -10.2504      2.00000
      2      -9.9270      2.00000
      3      -9.4743      2.00000
      4      -9.0876      2.00000
      5      -5.1410      2.00000
      6      -4.1726      2.00000
      7      -4.0981      2.00000
      8      -3.1528      2.00000
      9      -0.9469      2.00000
     10       0.7363      2.00000
     11       1.4338      2.00000
     12       1.6571      2.00000
     13       1.7743      2.00000
     14       1.8609      2.00000
     15       2.1939      2.00000
     16       2.3552      2.00000
     17       2.5710      2.00000
     18       3.3063      2.00000
     19       3.5203      2.00000
     20       3.9885      1.99667
     21       4.9310      0.00000
     22       5.1771      0.00000
     23       5.7565      0.00000
     24       6.3785      0.00000
     25       6.5408      0.00000
     26       7.1495      0.00000
     27       7.1605      0.00000
     28       7.3594      0.00000
     29       7.4032      0.00000
     30       8.2526      0.00000
     31       8.5356      0.00000
     32       9.7641      0.00000

 k-point    12 :       0.1667    0.3333    0.0000
  band No.  band energies     occupation 
      1     -10.0521      2.00000
      2      -9.7465      2.00000
      3      -9.3237      2.00000
      4      -8.9729      2.00000
      5      -4.9990      2.00000
      6      -4.0485      2.00000
      7      -4.0070      2.00000
      8      -3.1636      2.00000
      9      -0.7444      2.00000
     10      -0.3231      2.00000
     11      -0.0573      2.00000
     12       0.8378      2.00000
     13       0.9445      2.00000
     14       1.3516      2.00000
     15       1.7939      2.00000
     16       2.4728      2.00000
     17       2.8480      2.00000
     18       2.9169      2.00000
     19       3.2136      2.00000
     20       3.4569      2.00000
     21       4.9074      0.00000
     22       5.7964      0.00000
     23       6.2967      0.00000
     24       6.4861      0.00000
     25       6.6242      0.00000
     26       7.0104      0.00000
     27       7.7409      0.00000
     28       8.4888      0.00000
     29       8.5073      0.00000
     30       8.6423      0.00000
     31       9.1095      0.00000
     32       9.5824      0.00000

 k-point    13 :       0.1667   -0.3333    0.0000
  band No.  band energies     occupation 
      1     -10.0521      2.00000
      2      -9.7465      2.00000
      3      -9.3237      2.00000
      4      -8.9729      2.00000
      5      -4.9990      2.00000
      6      -4.0485      2.00000
      7      -4.0070      2.00000
      8      -3.1636      2.00000
      9      -0.7444      2.00000
     10      -0.3231      2.00000
     11      -0.0573      2.00000
     12       0.8378      2.00000
     13       0.9445      2.00000
     14       1.3516      2.00000
     15       1.7939      2.00000
     16       2.4728      2.00000
     17       2.8480      2.00000
     18       2.9169      2.00000
     19       3.2136      2.00000
     20       3.4569      2.00000
     21       4.9074      0.00000
     22       5.7964      0.00000
     23       6.2967      0.00000
     24       6.4861      0.00000
     25       6.6242      0.00000
     26       7.0104      0.00000
     27       7.7409      0.00000
     28       8.4888      0.00000
     29       8.5073      0.00000
     30       8.6423      0.00000
     31       9.1095      0.00000
     32       9.5824      0.00000

 k-point    14 :       0.3333    0.3333    0.0000
  band No.  band energies     occupation 
      1      -9.5289      2.00000
      2      -9.2961      2.00000
      3      -9.0003      2.00000
      4      -8.7893      2.00000
      5      -4.7110      2.00000
      6      -4.0029      2.00000
      7      -3.9485      2.00000
      8      -3.5392      2.00000
      9      -1.4141      2.00000
     10      -1.0087      2.00000
     11      -0.5786      2.00000
     12      -0.2160      2.00000
     13       0.0950      2.00000
     14       0.7968      2.00000
     15       1.1039      2.00000
     16       1.4391      2.00000
     17       1.8982      2.00000
     18       2.1810      2.00000
     19       2.5416      2.00000
     20       2.8919      2.00000
     21       4.7575      0.00000
     22       6.6787      0.00000
     23       6.7789      0.00000
     24       7.1085      0.00000
     25       7.2154      0.00000
     26       7.6679      0.00000
     27       8.0525      0.00000
     28       8.7447      0.00000
     29       8.8922      0.00000
     30       9.1443      0.00000
     31       9.3683      0.00000
     32      10.0496      0.00000

 k-point    15 :       0.3333   -0.3333    0.0000
  band No.  band energies     occupation 
      1      -9.5289      2.00000
      2      -9.2961      2.00000
      3      -9.0003      2.00000
      4      -8.7893      2.00000
      5      -4.7110      2.00000
      6      -4.0029      2.00000
      7      -3.9485      2.00000
      8      -3.5392      2.00000
      9      -1.4141      2.00000
     10      -1.0087      2.00000
     11      -0.5786      2.00000
     12      -0.2160      2.00000
     13       0.0950      2.00000
     14       0.7968      2.00000
     15       1.1039      2.00000
     16       1.4391      2.00000
     17       1.8982      2.00000
     18       2.1810      2.00000
     19       2.5416      2.00000
     20       2.8919      2.00000
     21       4.7575      0.00000
     22       6.6787      0.00000
     23       6.7789      0.00000
     24       7.1085      0.00000
     25       7.2154      0.00000
     26       7.6679      0.00000
     27       8.0525      0.00000
     28       8.7447      0.00000
     29       8.8922      0.00000
     30       9.1443      0.00000
     31       9.3683      0.00000
     32      10.0496      0.00000

 k-point    16 :       0.5000    0.3333    0.0000
  band No.  band energies     occupation 
      1      -8.9619      2.00000
      2      -8.9619      2.00000
      3      -8.9124      2.00000
      4      -8.9124      2.00000
      5      -4.3542      2.00000
      6      -4.3542      2.00000
      7      -4.0553      2.00000
      8      -4.0553      2.00000
      9      -1.0843      2.00000
     10      -1.0843      2.00000
     11      -0.5643      2.00000
     12      -0.5643      2.00000
     13       0.0040      2.00000
     14       0.0040      2.00000
     15       0.7749      2.00000
     16       0.7749      2.00000
     17       1.4764      2.00000
     18       1.4764      2.00000
     19       2.5469      2.00000
     20       2.5469      2.00000
     21       5.8390      0.00000
     22       5.8390      0.00000
     23       7.3160      0.00000
     24       7.3160      0.00000
     25       7.9428      0.00000
     26       7.9428      0.00000
     27       8.2082      0.00000
     28       8.2082      0.00000
     29       8.5837      0.00000
     30       8.5837      0.00000
     31       9.9333      0.00000
     32       9.9333      0.00000

 k-point    17 :       0.0000    0.5000    0.0000
  band No.  band energies     occupation 
      1      -9.7899      2.00000
      2      -9.7899      2.00000
      3      -9.4722      2.00000
      4      -9.4722      2.00000
      5      -5.0144      2.00000
      6      -5.0144      2.00000
      7      -3.9093      2.00000
      8      -3.9093      2.00000
      9      -0.1214      2.00000
     10      -0.1214      2.00000
     11       1.9518      2.00000
     12       1.9518      2.00000
     13       2.2430      2.00000
     14       2.2430      2.00000
     15       2.3069      2.00000
     16       2.3069      2.00000
     17       3.1085      2.00000
     18       3.1085      2.00000
     19       3.7957      2.00000
     20       3.7957      2.00000
     21       5.4874      0.00000
     22       5.4874      0.00000
     23       5.8572      0.00000
     24       5.8572      0.00000
     25       6.3411      0.00000
     26       6.3412      0.00000
     27       6.3440      0.00000
     28       6.3440      0.00000
     29       7.4255      0.00000
     30       7.4255      0.00000
     31       9.5159      0.00000
     32       9.5159      0.00000

 k-point    18 :       0.1667    0.5000    0.0000
  band No.  band energies     occupation 
      1      -9.6187      2.00000
      2      -9.6187      2.00000
      3      -9.3233      2.00000
      4      -9.3233      2.00000
      5      -4.8314      2.00000
      6      -4.8314      2.00000
      7      -3.7918      2.00000
      8      -3.7918      2.00000
      9      -0.0987      2.00000
     10      -0.0987      2.00000
     11       0.3638      2.00000
     12       0.3638      2.00000
     13       0.7483      2.00000
     14       0.7483      2.00000
     15       2.1553      2.00000
     16       2.1553      2.00000
     17       2.9458      2.00000
     18       2.9458      2.00000
     19       3.3839      2.00000
     20       3.3839      2.00000
     21       5.2417      0.00000
     22       5.2417      0.00000
     23       6.6635      0.00000
     24       6.6635      0.00000
     25       7.3516      0.00000
     26       7.3516      0.00000
     27       7.8754      0.00000
     28       7.8754      0.00000
     29       8.4265      0.00000
     30       8.4265      0.00000
     31       9.2651      0.00000
     32       9.2651      0.00000

 k-point    19 :       0.3333    0.5000    0.0000
  band No.  band energies     occupation 
      1      -9.2024      2.00000
      2      -9.2024      2.00000
      3      -8.9976      2.00000
      4      -8.9976      2.00000
      5      -4.4266      2.00000
      6      -4.4266      2.00000
      7      -3.7250      2.00000
      8      -3.7250      2.00000
      9      -1.2548      2.00000
     10      -1.2548      2.00000
     11      -0.7346      2.00000
     12      -0.7346      2.00000
     13       0.2816      2.00000
     14       0.2816      2.00000
     15       1.1136      2.00000
     16       1.1136      2.00000
     17       1.5950      2.00000
     18       1.5950      2.00000
     19       2.6672      2.00000
     20       2.6672      2.00000
     21       5.7349      0.00000
     22       5.7349      0.00000
     23       7.8300      0.00000
     24       7.8300      0.00000
     25       8.3563      0.00000
     26       8.3563      0.00000
     27       8.7325      0.00000
     28       8.7325      0.00000
     29       9.1376      0.00000
     30       9.1376      0.00000
     31      10.2801      0.00000
     32      10.2859      0.00000

 k-point    20 :       0.5000    0.5000    0.0000
  band No.  band energies     occupation 
      1      -8.8897      2.00000
      2      -8.8897      2.00000
      3      -8.8674      2.00000
      4      -8.8674      2.00000
      5      -4.1400      2.00000
      6      -4.1400      2.00000
      7      -4.0182      2.00000
      8      -4.0182      2.00000
      9      -1.4240      2.00000
     10      -1.4240      2.00000
     11      -0.9606      2.00000
     12      -0.9606      2.00000
     13      -0.2432      2.00000
     14      -0.2432      2.00000
     15       0.2536      2.00000
     16       0.2536      2.00000
     17       1.6089      2.00000
     18       1.6089      2.00000
[...]
     32       8.6673      0.00000

 k-point    32 :       0.1667    0.3333    0.5000
  band No.  band energies     occupation 
      1      -9.9330      2.00000
      2      -9.9330      2.00000
      3      -9.1153      2.00000
      4      -9.1153      2.00000
      5      -4.6726      2.00000
      6      -4.6726      2.00000
      7      -3.4959      2.00000
      8      -3.4959      2.00000
      9      -0.2883      2.00000
     10      -0.2883      2.00000
     11       0.3878      2.00000
     12       0.3878      2.00000
     13       0.8829      2.00000
     14       0.8829      2.00000
     15       2.0751      2.00000
     16       2.0751      2.00000
     17       2.8796      2.00000
     18       2.8796      2.00000
     19       3.2007      2.00000
     20       3.2007      2.00000
     21       6.0131      0.00000
     22       6.0131      0.00000
     23       6.3821      0.00000
     24       6.3821      0.00000
     25       6.8597      0.00000
     26       6.8597      0.00000
     27       7.7447      0.00000
     28       7.7447      0.00000
     29       8.3252      0.00000
     30       8.3252      0.00000
     31       9.1666      0.00000
     32       9.1666      0.00000

 k-point    33 :       0.1667   -0.3333    0.5000
  band No.  band energies     occupation 
      1      -9.9330      2.00000
      2      -9.9330      2.00000
      3      -9.1153      2.00000
      4      -9.1153      2.00000
      5      -4.6726      2.00000
      6      -4.6726      2.00000
      7      -3.4959      2.00000
      8      -3.4959      2.00000
      9      -0.2883      2.00000
     10      -0.2883      2.00000
     11       0.3878      2.00000
     12       0.3878      2.00000
     13       0.8829      2.00000
     14       0.8829      2.00000
     15       2.0751      2.00000
     16       2.0751      2.00000
     17       2.8796      2.00000
     18       2.8796      2.00000
     19       3.2007      2.00000
     20       3.2007      2.00000
     21       6.0131      0.00000
     22       6.0131      0.00000
     23       6.3821      0.00000
     24       6.3821      0.00000
     25       6.8597      0.00000
     26       6.8597      0.00000
     27       7.7447      0.00000
     28       7.7447      0.00000
     29       8.3252      0.00000
     30       8.3252      0.00000
     31       9.1666      0.00000
     32       9.1666      0.00000

 k-point    34 :       0.3333    0.3333    0.5000
  band No.  band energies     occupation 
      1      -9.4361      2.00000
      2      -9.4361      2.00000
      3      -8.8715      2.00000
      4      -8.8715      2.00000
      5      -4.4494      2.00000
      6      -4.4494      2.00000
      7      -3.6760      2.00000
      8      -3.6760      2.00000
      9      -1.2185      2.00000
     10      -1.2185      2.00000
     11      -0.3551      2.00000
     12      -0.3551      2.00000
     13       0.4981      2.00000
     14       0.4981      2.00000
     15       1.2412      2.00000
     16       1.2412      2.00000
     17       1.8764      2.00000
     18       1.8764      2.00000
     19       2.7253      2.00000
     20       2.7253      2.00000
     21       6.0859      0.00000
     22       6.0859      0.00000
     23       6.7768      0.00000
     24       6.7768      0.00000
     25       7.0396      0.00000
     26       7.0396      0.00000
     27       8.2898      0.00000
     28       8.2898      0.00000
     29       8.9078      0.00000
     30       8.9078      0.00000
     31      10.3988      0.00000
     32      10.3988      0.00000

 k-point    35 :       0.3333   -0.3333    0.5000
  band No.  band energies     occupation 
      1      -9.4361      2.00000
      2      -9.4361      2.00000
      3      -8.8715      2.00000
      4      -8.8715      2.00000
      5      -4.4494      2.00000
      6      -4.4494      2.00000
      7      -3.6760      2.00000
      8      -3.6760      2.00000
      9      -1.2185      2.00000
     10      -1.2185      2.00000
     11      -0.3551      2.00000
     12      -0.3551      2.00000
     13       0.4981      2.00000
     14       0.4981      2.00000
     15       1.2412      2.00000
     16       1.2412      2.00000
     17       1.8764      2.00000
     18       1.8764      2.00000
     19       2.7253      2.00000
     20       2.7253      2.00000
     21       6.0859      0.00000
     22       6.0859      0.00000
     23       6.7768      0.00000
     24       6.7768      0.00000
     25       7.0396      0.00000
     26       7.0396      0.00000
     27       8.2898      0.00000
     28       8.2898      0.00000
     29       8.9078      0.00000
     30       8.9078      0.00000
     31      10.3988      0.00000
     32      10.3988      0.00000

 k-point    36 :       0.5000    0.3333    0.5000
  band No.  band energies     occupation 
      1      -8.9375      2.00000
      2      -8.9375      2.00000
      3      -8.9375      2.00000
      4      -8.9375      2.00000
      5      -4.2118      2.00000
      6      -4.2118      2.00000
      7      -4.2118      2.00000
      8      -4.2118      2.00000
      9      -0.8163      2.00000
     10      -0.8163      2.00000
     11      -0.8163      2.00000
     12      -0.8163      2.00000
     13       0.2452      2.00000
     14       0.2452      2.00000
     15       0.2452      2.00000
     16       0.2452      2.00000
     17       2.1706      2.00000
     18       2.1706      2.00000
     19       2.1706      2.00000
     20       2.1706      2.00000
     21       6.4265      0.00000
     22       6.4265      0.00000
     23       6.4265      0.00000
     24       6.4265      0.00000
     25       7.7571      0.00000
     26       7.7571      0.00000
     27       7.7571      0.00000
     28       7.7571      0.00000
     29       9.5697      0.00000
     30       9.5697      0.00000
     31       9.5697      0.00000
     32       9.5697      0.00000

 k-point    37 :       0.0000    0.5000    0.5000
  band No.  band energies     occupation 
      1      -9.7845      2.00000
      2      -9.7845      2.00000
      3      -9.4799      2.00000
      4      -9.4799      2.00000
      5      -4.9118      2.00000
      6      -4.9118      2.00000
      7      -4.0886      2.00000
      8      -4.0886      2.00000
      9       0.6888      2.00000
     10       0.6888      2.00000
     11       1.0532      2.00000
     12       1.0532      2.00000
     13       1.9588      2.00000
     14       1.9588      2.00000
     15       2.2337      2.00000
     16       2.2337      2.00000
     17       3.4842      2.00000
     18       3.4842      2.00000
     19       3.7374      2.00000
     20       3.7374      2.00000
     21       5.4561      0.00000
     22       5.4561      0.00000
     23       6.0637      0.00000
     24       6.0637      0.00000
     25       6.3959      0.00000
     26       6.3959      0.00000
     27       7.0960      0.00000
     28       7.0960      0.00000
     29       7.3488      0.00000
     30       7.3488      0.00000
     31       8.4366      0.00000
     32       8.4366      0.00000

 k-point    38 :       0.1667    0.5000    0.5000
  band No.  band energies     occupation 
      1      -9.6137      2.00000
      2      -9.6137      2.00000
      3      -9.3302      2.00000
      4      -9.3302      2.00000
      5      -4.7409      2.00000
      6      -4.7409      2.00000
      7      -3.9448      2.00000
      8      -3.9448      2.00000
      9       0.1800      2.00000
     10       0.1800      2.00000
     11       0.3504      2.00000
     12       0.3504      2.00000
     13       1.1911      2.00000
     14       1.1911      2.00000
     15       1.3231      2.00000
     16       1.3231      2.00000
     17       2.9485      2.00000
     18       2.9485      2.00000
     19       3.1461      2.00000
     20       3.1461      2.00000
     21       6.3737      0.00000
     22       6.3737      0.00000
     23       6.7128      0.00000
     24       6.7128      0.00000
     25       6.9762      0.00000
     26       6.9762      0.00000
     27       7.7018      0.00000
     28       7.7018      0.00000
     29       8.4058      0.00000
     30       8.4058      0.00000
     31       8.6530      0.00000
     32       8.6530      0.00000

 k-point    39 :       0.3333    0.5000    0.5000
  band No.  band energies     occupation 
      1      -9.1987      2.00000
      2      -9.1986      2.00000
      3      -9.0022      2.00000
      4      -9.0022      2.00000
      5      -4.3795      2.00000
      6      -4.3795      2.00000
      7      -3.7910      2.00000
      8      -3.7910      2.00000
      9      -1.0548      2.00000
     10      -1.0548      2.00000
     11      -1.0110      2.00000
     12      -1.0110      2.00000
     13       0.6377      2.00000
     14       0.6377      2.00000
     15       0.7730      2.00000
     16       0.7730      2.00000
     17       1.9602      2.00000
     18       1.9602      2.00000
     19       2.2914      2.00000
     20       2.2914      2.00000
     21       6.2503      0.00000
     22       6.2503      0.00000
     23       7.0434      0.00000
     24       7.0434      0.00000
     25       8.2613      0.00000
     26       8.2613      0.00000
     27       8.4249      0.00000
     28       8.4249      0.00000
     29      10.0563      0.00000
     30      10.0563      0.00000
     31      10.1407      0.00000
     32      10.1407      0.00000

 k-point    40 :       0.5000    0.5000    0.5000
  band No.  band energies     occupation 
      1      -8.8786      2.00000
      2      -8.8786      2.00000
      3      -8.8786      2.00000
      4      -8.8786      2.00000
      5      -4.0849      2.00000
      6      -4.0849      2.00000
      7      -4.0849      2.00000
      8      -4.0849      2.00000
      9      -1.0890      2.00000
     10      -1.0890      2.00000
     11      -1.0890      2.00000
     12      -1.0890      2.00000
     13      -0.2612      2.00000
     14      -0.2612      2.00000
     15      -0.2612      2.00000
     16      -0.2612      2.00000
     17       2.2357      2.00000
     18       2.2357      2.00000
     19       2.2357      2.00000
     20       2.2357      2.00000
     21       6.2674      0.00000
     22       6.2674      0.00000
     23       6.2674      0.00000
     24       6.2674      0.00000
     25       8.8738      0.00000
     26       8.8738      0.00000
     27       8.8738      0.00000
     28       8.8738      0.00000
     29      10.5514      0.00000
     30      10.5514      0.00000
     31      10.5514      0.00000
     32      10.5514      0.00000


--------------------------------------------------------------------------------------------------------


 soft charge-density along one line, spin component            1
         0         1         2         3         4         5         6         7         8         9
 total charge-density along one line
 
 pseudopotential strength for first ion, spin component:            1
 14.349  17.897   0.042   0.044   0.000   0.076   0.079   0.000
 17.897  22.337   0.053   0.056   0.000   0.095   0.100   0.000
  0.042   0.053   3.197  -0.003   0.000   5.439  -0.005   0.000
  0.044   0.056  -0.003   3.196   0.000  -0.005   5.439   0.000
  0.000   0.000   0.000   0.000   3.199   0.000   0.000   5.443
  0.076   0.095   5.439  -0.005   0.000   9.313  -0.009   0.000
  0.079   0.100  -0.005   5.439   0.000  -0.009   9.312   0.000
  0.000   0.000   0.000   0.000   5.443   0.000   0.000   9.319
  0.000   0.000   0.000   0.000   0.007   0.000   0.000   0.014
 -0.007  -0.008   0.011   0.013   0.000   0.021   0.023   0.000
 -0.002  -0.002  -0.004   0.011  -0.000  -0.007   0.021  -0.000
  0.000   0.000   0.000   0.000   0.011   0.000   0.000   0.021
  0.002   0.003  -0.012   0.000   0.000  -0.022   0.000   0.000
 total augmentation occupancy for first ion, spin component:            1
  2.836  -0.777   0.384   0.355  -0.000  -0.078  -0.066  -0.000  -0.000  -0.002  -0.016   0.000   0.007
 -0.777   0.712  -0.466  -0.463   0.000   0.077   0.073  -0.000   0.000  -0.000   0.015  -0.000  -0.002
  0.384  -0.466   1.352   0.108   0.000  -0.230  -0.009  -0.000  -0.000   0.045  -0.101   0.000  -0.008
  0.355  -0.463   0.108   1.287   0.000  -0.008  -0.214   0.000   0.000  -0.009   0.094   0.000  -0.005
 -0.000   0.000   0.000   0.000   1.337  -0.000  -0.000  -0.236   0.155  -0.000   0.000   0.040  -0.000
 -0.078   0.077  -0.230  -0.008  -0.000   0.044   0.000   0.000   0.000  -0.008   0.017  -0.000   0.002
 -0.066   0.073  -0.009  -0.214  -0.000   0.000   0.040   0.000  -0.000   0.001  -0.016  -0.000   0.001
 -0.000  -0.000  -0.000   0.000  -0.236   0.000   0.000   0.047  -0.027   0.000  -0.000  -0.007   0.000
 -0.000   0.000  -0.000   0.000   0.155   0.000  -0.000  -0.027   0.037  -0.000   0.000   0.005  -0.000
 -0.002  -0.000   0.045  -0.009  -0.000  -0.008   0.001   0.000  -0.000   0.012  -0.007   0.000   0.001
 -0.016   0.015  -0.101   0.094   0.000   0.017  -0.016  -0.000   0.000  -0.007   0.033   0.000  -0.001
  0.000  -0.000   0.000   0.000   0.040  -0.000  -0.000  -0.007   0.005   0.000   0.000   0.012  -0.000
  0.007  -0.002  -0.008  -0.005  -0.000   0.002   0.001   0.000  -0.000   0.001  -0.001  -0.000   0.010


------------------------ aborting loop because EDIFF is reached ----------------------------------------


    CHARGE:  cpu time      0.0036: real time      0.0036
    FORLOC:  cpu time      0.0002: real time      0.0002
    FORNL :  cpu time      0.0199: real time      0.0199
    STRESS:  cpu time      0.1770: real time      0.1778
    FORCOR:  cpu time      0.0032: real time      0.0032
    FORHAR:  cpu time      0.0008: real time      0.0008
    MIXING:  cpu time      0.0004: real time      0.0004
    OFIELD:  cpu time      0.0000: real time      0.0000

  FORCE on cell =-STRESS in cart. coord.  units (eV):
  Direction    XX          YY          ZZ          XY          YZ          ZX
  --------------------------------------------------------------------------------------
  Alpha Z    93.41168    93.41168    93.41168
  Ewald    -446.23799  -477.94742  -532.52001     0.00000     0.00000    -0.00000
  Hartree    59.79402    42.10108    21.67303    -0.00000    -0.00000     0.00000
  E(xc)    -142.07217  -141.99669  -142.19565    -0.00000     0.00000    -0.00000
  Local    -185.92494  -140.69244   -71.34797     0.00000     0.00000    -0.00000
  n-local   242.76067   242.55332   242.31122    -0.00000    -0.00000     0.00000
  augment   -11.43201   -11.65508   -12.06570    -0.00000     0.00000     0.00000
  Kinetic   396.58169   398.06757   401.56134     0.00000     0.00000    -0.00000
  Fock        0.00000     0.00000     0.00000     0.00000     0.00000     0.00000
  -------------------------------------------------------------------------------------
  Total       6.88094     3.84202     0.82795     0.00000     0.00000    -0.00000
  in kB      60.77600    33.93468     7.31284     0.00002     0.00001    -0.00001
  external pressure =       34.01 kB  Pullay stress =        0.00 kB


 VOLUME and BASIS-vectors are now :
 -----------------------------------------------------------------------------
  energy-cutoff  :      360.00
  volume of cell :      181.40
      direct lattice vectors                 reciprocal lattice vectors
     3.700000000  0.000000000  0.000000000     0.270270270  0.000000000  0.000000000
     0.000000000  4.400000000  0.000000000     0.000000000  0.227272727  0.000000000
     0.000000000  0.000000000 11.142221000     0.000000000  0.000000000  0.089748713

  length of vectors
     3.700000000  4.400000000 11.142221000     0.270270270  0.227272727  0.089748713


 FORCES acting on ions
    electron-ion (+dipol)            ewald-force                    non-local-force                 convergence-correction
 -----------------------------------------------------------------------------------------------
   0.195E-06 0.161E+02 0.263E+02   0.139E-13 -.185E+02 -.291E+02   -.605E-07 0.233E+01 0.277E+01   -.154E-06 0.944E-04 -.972E-03
   0.103E-05 0.161E+02 -.263E+02   0.240E-14 -.185E+02 0.291E+02   -.691E-06 0.233E+01 -.277E+01   -.339E-06 0.953E-04 0.987E-03
   -.553E-06 -.161E+02 -.263E+02   -.140E-13 0.185E+02 0.291E+02   0.237E-06 -.233E+01 -.277E+01   0.334E-06 -.938E-04 0.972E-03
   0.156E-06 -.161E+02 0.263E+02   -.520E-14 0.185E+02 -.291E+02   0.560E-08 -.233E+01 0.277E+01   -.257E-06 -.959E-04 -.987E-03
   0.243E-06 -.151E+02 -.249E+02   -.584E-14 0.166E+02 0.263E+02   -.542E-06 -.140E+01 -.140E+01   0.330E-06 -.326E-04 0.196E-02
   0.520E-06 -.151E+02 0.249E+02   -.688E-14 0.166E+02 -.263E+02   -.823E-06 -.140E+01 0.140E+01   0.460E-07 -.323E-04 -.194E-02
   -.227E-05 0.151E+02 0.249E+02   0.590E-14 -.166E+02 -.263E+02   0.125E-05 0.140E+01 0.140E+01   0.100E-05 0.332E-04 -.196E-02
   0.768E-06 0.151E+02 -.249E+02   0.107E-13 -.166E+02 0.263E+02   0.314E-06 0.140E+01 -.140E+01   -.599E-06 0.324E-04 0.193E-02
 -----------------------------------------------------------------------------------------------
   0.877E-07 -.145E-05 0.169E-05   0.945E-15 -.355E-14 -.355E-14   -.312E-06 0.818E-06 -.840E-06   0.366E-06 0.871E-06 -.149E-05
 
 
 POSITION                                       TOTAL-FORCE (eV/Angst)
 -----------------------------------------------------------------------------------
      0.92500      0.48223      1.36013        -0.000000     -0.076596      0.008668
      2.77500      2.68223      4.21098        -0.000000     -0.076596     -0.008670
      2.77500      3.91777      9.78209         0.000000      0.076596     -0.008668
      0.92500      1.71777      6.93124        -0.000000      0.076596      0.008670
      0.92500      0.01910      3.93163         0.000000      0.087465     -0.025831
      2.77500      2.21910      1.63948        -0.000000      0.087464      0.025832
      2.77500      4.38090      7.21059        -0.000000     -0.087465      0.025831
      0.92500      2.18090      9.50274         0.000000     -0.087464     -0.025832
 -----------------------------------------------------------------------------------
    total drift:                                0.000000      0.000000     -0.000001


--------------------------------------------------------------------------------------------------------



  FREE ENERGIE OF THE ION-ELECTRON SYSTEM (eV)
  ---------------------------------------------------
  free  energy   TOTEN  =       -33.61422138 eV

  energy  without entropy=      -33.61420094  energy(sigma->0) =      -33.61421116
 


--------------------------------------------------------------------------------------------------------


    POTLOK:  cpu time      0.1138: real time      0.1140


--------------------------------------------------------------------------------------------------------


     LOOP+:  cpu time      4.8304: real time      4.8710
    4ORBIT:  cpu time      0.0000: real time      0.0000

 total amount of memory used by VASP MPI-rank0    37839. kBytes
=======================================================================

   base      :      30000. kBytes
   nonl-proj :       6082. kBytes
   fftplans  :        317. kBytes
   grid      :        462. kBytes
   one-center:         16. kBytes
   wavefun   :        962. kBytes
 
  
  
 General timing and accounting informations for this job:
 ========================================================
  
                  Total CPU time used (sec):        5.577
                            User time (sec):        5.380
                          System time (sec):        0.198
                         Elapsed time (sec):        7.266
  
                   Maximum memory used (kb):      189496.
                   Average memory used (kb):          N/A
  
                          Minor page faults:        21295
                          Major page faults:           41
                 Voluntary context switches:         8787
