 running  256 mpi-ranks, with    1 threads/rank, on    7 nodes
 distrk:  each k-point on  128 cores,    2 groups
 distr:  one band on    4 cores,   32 groups
 vasp.6.4.1 05Apr23 (build May 18 2023 13:19:41) complex                         
 POSCAR found type information on POSCAR C S 
 POSCAR found :  2 types and     365 ions
 Reading from existing POTCAR
 scaLAPACK will be used
 Reading from existing POTCAR
 -----------------------------------------------------------------------------
|                                                                             |
|               ----> ADVICE to this user running VASP <----                  |
|                                                                             |
|     You have a (more or less) 'large supercell' and for larger cells it     |
|     might be more efficient to use real-space projection operators.         |
|     Therefore, try LREAL= Auto in the INCAR file.                           |
|     Mind: If you want to do very accurate calculations, keep the            |
|     reciprocal projection scheme (i.e. LREAL=.FALSE.).                      |
|                                                                             |
 -----------------------------------------------------------------------------

 LDA part: xc-table for Pade appr. of Perdew
 POSCAR, INCAR and KPOINTS ok, starting setup
 FFT: planning ... GRIDC
 FFT: planning ... GRID_SOFT
 FFT: planning ... GRID
 WAVECAR not read
 WARNING: chargedensity file is incomplete
 WARNING: random wavefunctions but no delay for mixing, default for NELMDL
 entering main loop
       N       E                     dE             d eps       ncg     rms          rms(c)
DAV:   1     0.131361355328E+05    0.13136E+05   -0.45155E+05  4544   0.932E+02
DAV:   2     0.856341011437E+02   -0.13051E+05   -0.12267E+05  5312   0.239E+02
DAV:   3    -0.334923505773E+04   -0.34349E+04   -0.33918E+04  4544   0.130E+02
DAV:   4    -0.353265845573E+04   -0.18342E+03   -0.18061E+03  4416   0.388E+01
DAV:   5    -0.353766789882E+04   -0.50094E+01   -0.49523E+01  4864   0.567E+00    0.748E+01
DAV:   6    -0.341338104470E+04    0.12429E+03   -0.75114E+01  4032   0.791E+00    0.549E+01
DAV:   7    -0.330407909234E+04    0.10930E+03   -0.46328E+02  4032   0.188E+01    0.116E+01
DAV:   8    -0.330215565644E+04    0.19234E+01   -0.36527E+01  3872   0.620E+00    0.636E+00
DAV:   9    -0.330244393099E+04   -0.28827E+00   -0.25569E+00  4000   0.172E+00    0.284E+00
DAV:  10    -0.330225804480E+04    0.18589E+00   -0.87306E-01  4096   0.989E-01    0.894E-01
DAV:  11    -0.330225501925E+04    0.30255E-02   -0.27273E-01  4096   0.514E-01    0.357E-01
DAV:  12    -0.330225500471E+04    0.14536E-04   -0.34925E-02  4160   0.192E-01    0.217E-01
DAV:  13    -0.330225505016E+04   -0.45442E-04   -0.74361E-03  4032   0.892E-02    0.120E-01
DAV:  14    -0.330225552849E+04   -0.47834E-03   -0.13409E-03  4224   0.400E-02    0.478E-02
DAV:  15    -0.330225551461E+04    0.13885E-04   -0.28954E-04  4128   0.197E-02    0.237E-02
DAV:  16    -0.330225552671E+04   -0.12098E-04   -0.13449E-04  4064   0.112E-02    0.999E-03
DAV:  17    -0.330225552809E+04   -0.13843E-05   -0.14771E-05  4128   0.441E-03    0.604E-03
DAV:  18    -0.330225552941E+04   -0.13250E-05   -0.69605E-06  4160   0.254E-03    0.300E-03
DAV:  19    -0.330225552962E+04   -0.20990E-06   -0.88095E-07  2624   0.108E-03
   1 F= -.33162732E+04 E0= -.33162732E+04  d E =-.331627E+04
 BRION: g(F)=  0.560E+02 g(S)=  0.000E+00
 bond charge predicted
       N       E                     dE             d eps       ncg     rms          rms(c)
DAV:   1    -0.327167385579E+04    0.30582E+02   -0.28518E+03  3872   0.526E+01    0.146E+01
DAV:   2    -0.328884546553E+04   -0.17172E+02   -0.19620E+02  3616   0.121E+01    0.104E+01
DAV:   3    -0.328788572781E+04    0.95974E+00   -0.11809E+01  4160   0.418E+00    0.823E+00
DAV:   4    -0.328749816288E+04    0.38756E+00   -0.99268E+00  4000   0.283E+00    0.837E+00
DAV:   5    -0.328765626988E+04   -0.15811E+00   -0.24328E+01  4416   0.220E+00    0.391E+00
DAV:   6    -0.328734744380E+04    0.30883E+00   -0.10768E+00  4000   0.117E+00    0.236E+00
DAV:   7    -0.328721839958E+04    0.12904E+00   -0.70916E-01  4416   0.113E+00    0.118E+00
DAV:   8    -0.328723391612E+04   -0.15517E-01   -0.20287E-01  4000   0.478E-01    0.736E-01
DAV:   9    -0.328723279908E+04    0.11170E-02   -0.25098E-02  4128   0.216E-01    0.460E-01
DAV:  10    -0.328722989155E+04    0.29075E-02   -0.29119E-02  3968   0.174E-01    0.172E-01
DAV:  11    -0.328722990436E+04   -0.12809E-04   -0.52272E-03  4160   0.107E-01    0.979E-02
DAV:  12    -0.328722978810E+04    0.11626E-03   -0.23904E-03  4064   0.694E-02    0.625E-02
DAV:  13    -0.328722984486E+04   -0.56764E-04   -0.67356E-04  3968   0.300E-02    0.304E-02
DAV:  14    -0.328722985134E+04   -0.64777E-05   -0.11109E-04  4224   0.140E-02    0.225E-02
DAV:  15    -0.328722985892E+04   -0.75775E-05   -0.48801E-05  4032   0.708E-03    0.168E-02
DAV:  16    -0.328722984903E+04    0.98845E-05   -0.24381E-05  4160   0.522E-03    0.868E-03
DAV:  17    -0.328722984680E+04    0.22367E-05   -0.66120E-06  3936   0.349E-03    0.505E-03
DAV:  18    -0.328722984581E+04    0.98359E-06   -0.30403E-06  2912   0.191E-03
   2 F= -.33012465E+04 E0= -.33012465E+04  d E =0.150267E+02
 BRION: g(F)=  0.179E+03 g(S)=  0.000E+00 retain N=  1 mean eig= 0.27
 eig:   0.275
 bond charge predicted
       N       E                     dE             d eps       ncg     rms          rms(c)
DAV:   1    -0.328694983008E+04    0.28002E+00   -0.18951E+03  3904   0.486E+01    0.122E+01
DAV:   2    -0.329551081665E+04   -0.85610E+01   -0.11015E+02  4096   0.104E+01    0.105E+01
DAV:   3    -0.329434354651E+04    0.11673E+01   -0.65346E+00  4160   0.278E+00    0.815E+00
DAV:   4    -0.329336272472E+04    0.98082E+00   -0.52433E+00  3936   0.213E+00    0.496E+00
DAV:   5    -0.329312005424E+04    0.24267E+00   -0.56617E+00  4256   0.149E+00    0.248E+00
DAV:   6    -0.329299941208E+04    0.12064E+00   -0.55303E-01  4032   0.769E-01    0.137E+00
DAV:   7    -0.329299841772E+04    0.99436E-03   -0.25066E-01  4256   0.483E-01    0.667E-01
DAV:   8    -0.329299784293E+04    0.57479E-03   -0.54291E-02  4032   0.228E-01    0.370E-01
DAV:   9    -0.329299665043E+04    0.11925E-02   -0.10784E-02  4192   0.117E-01    0.185E-01
DAV:  10    -0.329299617076E+04    0.47968E-03   -0.45554E-03  3936   0.742E-02    0.817E-02
DAV:  11    -0.329299620118E+04   -0.30421E-04   -0.98589E-04  4224   0.322E-02    0.347E-02
DAV:  12    -0.329299619689E+04    0.42833E-05   -0.13764E-04  4064   0.132E-02    0.194E-02
DAV:  13    -0.329299619331E+04    0.35809E-05   -0.31016E-05  4320   0.660E-03    0.913E-03
DAV:  14    -0.329299619324E+04    0.76252E-07   -0.93574E-06  4064   0.356E-03
   3 F= -.33070400E+04 E0= -.33070400E+04  d E =-.579348E+01
 BRION: g(F)=  0.114E+03 g(S)=  0.000E+00 retain N=  2 mean eig= 1.43
 eig:   0.142  2.710
 bond charge predicted
       N       E                     dE             d eps       ncg     rms          rms(c)
DAV:   1    -0.330050058456E+04   -0.75044E+01   -0.94187E+02  3776   0.348E+01    0.681E+00
DAV:   2    -0.330327923693E+04   -0.27787E+01   -0.36945E+01  4096   0.628E+00    0.674E+00
DAV:   3    -0.330291498595E+04    0.36425E+00   -0.12943E+00  4352   0.114E+00    0.561E+00
DAV:   4    -0.330220598706E+04    0.70900E+00   -0.10604E+00  4128   0.117E+00    0.277E+00
DAV:   5    -0.330208436087E+04    0.12163E+00   -0.72851E-01  4000   0.941E-01    0.990E-01
DAV:   6    -0.330207502915E+04    0.93317E-02   -0.20132E-01  4288   0.475E-01    0.501E-01
DAV:   7    -0.330207586508E+04   -0.83593E-03   -0.21441E-02  4032   0.164E-01    0.264E-01
DAV:   8    -0.330207606449E+04   -0.19941E-03   -0.48240E-03  4288   0.779E-02    0.161E-01
DAV:   9    -0.330207576623E+04    0.29826E-03   -0.21332E-03  4160   0.536E-02    0.649E-02
DAV:  10    -0.330207577781E+04   -0.11583E-04   -0.51522E-04  4384   0.250E-02    0.335E-02
DAV:  11    -0.330207576195E+04    0.15864E-04   -0.10950E-04  4384   0.124E-02    0.182E-02
DAV:  12    -0.330207576090E+04    0.10491E-05   -0.27883E-05  4128   0.620E-03    0.952E-03
DAV:  13    -0.330207575999E+04    0.91351E-06   -0.74525E-06  4128   0.309E-03
   4 F= -.33161466E+04 E0= -.33161466E+04  d E =-.910662E+01
 BRION: g(F)=  0.282E+02 g(S)=  0.000E+00 retain N=  3 mean eig= 2.61
 eig:   7.322  0.158  0.352
 bond charge predicted
       N       E                     dE             d eps       ncg     rms          rms(c)
DAV:   1    -0.330684568729E+04   -0.47699E+01   -0.40037E+02  3648   0.225E+01    0.381E+00
DAV:   2    -0.330768938965E+04   -0.84370E+00   -0.11438E+01  4224   0.365E+00    0.385E+00
DAV:   3    -0.330760343308E+04    0.85957E-01   -0.39780E-01  4224   0.668E-01    0.335E+00
DAV:   4    -0.330735878818E+04    0.24464E+00   -0.58844E-01  4096   0.893E-01    0.137E+00
DAV:   5    -0.330734811261E+04    0.10676E-01   -0.17018E-01  3968   0.460E-01    0.607E-01
DAV:   6    -0.330734535099E+04    0.27616E-02   -0.31516E-02  4160   0.205E-01    0.269E-01
DAV:   7    -0.330734608559E+04   -0.73460E-03   -0.53627E-03  4096   0.871E-02    0.131E-01
DAV:   8    -0.330734590056E+04    0.18503E-03   -0.13948E-03  4256   0.441E-02    0.666E-02
DAV:   9    -0.330734588712E+04    0.13441E-04   -0.34148E-04  4064   0.227E-02    0.302E-02
DAV:  10    -0.330734587767E+04    0.94492E-05   -0.12486E-04  4160   0.136E-02    0.145E-02
DAV:  11    -0.330734587682E+04    0.84762E-06   -0.27006E-05  4032   0.592E-03    0.830E-03
DAV:  12    -0.330734587574E+04    0.10866E-05   -0.52413E-06  4160   0.257E-03    0.361E-03
DAV:  13    -0.330734587558E+04    0.16042E-06   -0.11027E-06  2688   0.135E-03
   5 F= -.33214104E+04 E0= -.33214104E+04  d E =-.526379E+01
 BRION: g(F)=  0.839E+01 g(S)=  0.000E+00 retain N=  3 mean eig= 2.35
 eig:   6.602  0.220  0.220
 bond charge predicted
       N       E                     dE             d eps       ncg     rms          rms(c)
DAV:   1    -0.330866508518E+04   -0.13192E+01   -0.39777E+02  3712   0.224E+01    0.351E+00
DAV:   2    -0.330948989368E+04   -0.82481E+00   -0.10768E+01  4000   0.364E+00    0.356E+00
DAV:   3    -0.330942574650E+04    0.64147E-01   -0.34765E-01  4416   0.643E-01    0.312E+00
DAV:   4    -0.330925558098E+04    0.17017E+00   -0.48402E-01  4096   0.876E-01    0.131E+00
DAV:   5    -0.330925109062E+04    0.44904E-02   -0.20174E-01  3872   0.498E-01    0.558E-01
DAV:   6    -0.330924678793E+04    0.43027E-02   -0.25899E-02  4096   0.203E-01    0.303E-01
DAV:   7    -0.330924705892E+04   -0.27100E-03   -0.11113E-02  4192   0.109E-01    0.121E-01
DAV:   8    -0.330924709474E+04   -0.35817E-04   -0.15894E-03  4224   0.491E-02    0.747E-02
DAV:   9    -0.330924702412E+04    0.70620E-04   -0.59471E-04  3968   0.293E-02    0.261E-02
DAV:  10    -0.330924702692E+04   -0.28004E-05   -0.13428E-04  4384   0.131E-02    0.137E-02
DAV:  11    -0.330924702690E+04    0.24564E-07   -0.26936E-05  4160   0.556E-03    0.703E-03
DAV:  12    -0.330924702669E+04    0.20326E-06   -0.37739E-06  4096   0.247E-03
   6 F= -.33232964E+04 E0= -.33232964E+04  d E =-.188599E+01
 BRION: g(F)=  0.807E+01 g(S)=  0.000E+00 retain N=  4 mean eig= 2.11
 eig:   7.370  0.317  0.317  0.423
 bond charge predicted
       N       E                     dE             d eps       ncg     rms          rms(c)
DAV:   1    -0.330994870056E+04   -0.70167E+00   -0.17407E+02  3648   0.156E+01    0.248E+00
DAV:   2    -0.331026161601E+04   -0.31292E+00   -0.43682E+00  4224   0.230E+00    0.251E+00
DAV:   3    -0.331022625241E+04    0.35364E-01   -0.16222E-01  4576   0.431E-01    0.220E+00
DAV:   4    -0.331011563521E+04    0.11062E+00   -0.18533E-01  4224   0.555E-01    0.937E-01
DAV:   5    -0.331010860057E+04    0.70346E-02   -0.94375E-02  3808   0.346E-01    0.312E-01
DAV:   6    -0.331010882527E+04   -0.22471E-03   -0.12528E-02  4192   0.125E-01    0.157E-01
DAV:   7    -0.331010880199E+04    0.23282E-04   -0.23697E-03  4160   0.518E-02    0.783E-02
DAV:   8    -0.331010880235E+04   -0.35542E-06   -0.29171E-04  4224   0.214E-02    0.438E-02
DAV:   9    -0.331010880317E+04   -0.82399E-06   -0.17377E-04  4192   0.151E-02    0.152E-02
DAV:  10    -0.331010880173E+04    0.14351E-05   -0.31543E-05  4160   0.727E-03    0.887E-03
DAV:  11    -0.331010880145E+04    0.28859E-06   -0.11402E-05  4224   0.389E-03    0.389E-03
DAV:  12    -0.331010880139E+04    0.60070E-07   -0.19288E-06  2848   0.185E-03
   7 F= -.33241605E+04 E0= -.33241605E+04  d E =-.864084E+00
 BRION: g(F)=  0.484E+01 g(S)=  0.000E+00 retain N=  5 mean eig= 2.00
 eig:   7.282  1.833  0.388  0.159  0.321
 bond charge predicted
       N       E                     dE             d eps       ncg     rms          rms(c)
DAV:   1    -0.331062926251E+04   -0.52046E+00   -0.73612E+01  3648   0.101E+01    0.164E+00
DAV:   2    -0.331075913127E+04   -0.12987E+00   -0.18925E+00  4192   0.150E+00    0.164E+00
DAV:   3    -0.331074124416E+04    0.17887E-01   -0.80806E-02  4672   0.299E-01    0.141E+00
DAV:   4    -0.331069782628E+04    0.43418E-01   -0.78615E-02  4128   0.363E-01    0.628E-01
DAV:   5    -0.331069495022E+04    0.28761E-02   -0.42826E-02  4064   0.236E-01    0.224E-01
DAV:   6    -0.331069476414E+04    0.18608E-03   -0.65670E-03  4096   0.916E-02    0.111E-01
DAV:   7    -0.331069481475E+04   -0.50607E-04   -0.12861E-03  4224   0.368E-02    0.510E-02
DAV:   8    -0.331069480379E+04    0.10964E-04   -0.14148E-04  4064   0.157E-02    0.307E-02
DAV:   9    -0.331069480379E+04   -0.72177E-08   -0.92512E-05  4128   0.112E-02    0.104E-02
DAV:  10    -0.331069480314E+04    0.65251E-06   -0.16636E-05  4288   0.548E-03    0.605E-03
DAV:  11    -0.331069480304E+04    0.96625E-07   -0.60653E-06  4160   0.275E-03
   8 F= -.33247467E+04 E0= -.33247467E+04  d E =-.586185E+00
 BRION: g(F)=  0.180E+01 g(S)=  0.000E+00 retain N=  6 mean eig= 2.80
 eig:   7.179  7.179  1.615  0.144  0.144  0.543
 bond charge predicted
       N       E                     dE             d eps       ncg     rms          rms(c)
DAV:   1    -0.331091369554E+04   -0.21889E+00   -0.33010E+01  3648   0.668E+00    0.112E+00
DAV:   2    -0.331097549091E+04   -0.61795E-01   -0.89116E-01  4288   0.101E+00    0.109E+00
DAV:   3    -0.331096499336E+04    0.10498E-01   -0.36317E-02  4704   0.203E-01    0.900E-01
DAV:   4    -0.331094733994E+04    0.17653E-01   -0.36753E-02  4096   0.236E-01    0.365E-01
DAV:   5    -0.331094690994E+04    0.43001E-03   -0.14735E-02  4096   0.136E-01    0.128E-01
DAV:   6    -0.331094690140E+04    0.85316E-05   -0.22778E-03  4128   0.547E-02    0.561E-02
DAV:   7    -0.331094691946E+04   -0.18061E-04   -0.42256E-04  4224   0.209E-02    0.328E-02
DAV:   8    -0.331094691238E+04    0.70883E-05   -0.71444E-05  4224   0.113E-02    0.167E-02
DAV:   9    -0.331094691670E+04   -0.43283E-05   -0.28821E-05  4192   0.615E-03    0.745E-03
DAV:  10    -0.331094691624E+04    0.46659E-06   -0.52772E-06  4224   0.312E-03
   9 F= -.33249976E+04 E0= -.33249976E+04  d E =-.250963E+00
 BRION: g(F)=  0.811E+00 g(S)=  0.000E+00 retain N=  3 mean eig= 2.16
 eig:   6.114  0.176  0.176
 bond charge predicted
       N       E                     dE             d eps       ncg     rms          rms(c)
DAV:   1    -0.331096547490E+04   -0.18558E-01   -0.23218E+01  3648   0.568E+00    0.920E-01
DAV:   2    -0.331100779441E+04   -0.42320E-01   -0.60457E-01  4288   0.845E-01    0.923E-01
DAV:   3    -0.331100197569E+04    0.58187E-02   -0.23204E-02  4704   0.161E-01    0.795E-01
DAV:   4    -0.331098772643E+04    0.14249E-01   -0.28128E-02  4064   0.214E-01    0.335E-01
DAV:   5    -0.331098718488E+04    0.54155E-03   -0.12672E-02  4064   0.127E-01    0.121E-01
DAV:   6    -0.331098724450E+04   -0.59624E-04   -0.17550E-03  4128   0.477E-02    0.559E-02
DAV:   7    -0.331098723468E+04    0.98232E-05   -0.33327E-04  4032   0.191E-02    0.285E-02
DAV:   8    -0.331098723055E+04    0.41306E-05   -0.52210E-05  4224   0.910E-03    0.160E-02
DAV:   9    -0.331098723046E+04    0.84285E-07   -0.21322E-05  4192   0.556E-03    0.656E-03
DAV:  10    -0.331098723102E+04   -0.55507E-06   -0.49510E-06  3936   0.269E-03
  10 F= -.33250381E+04 E0= -.33250381E+04  d E =-.405216E-01
 BRION: g(F)=  0.100E+01 g(S)=  0.000E+00 retain N=  3 mean eig= 1.16
 eig:   3.015  0.236  0.236
 bond charge predicted
       N       E                     dE             d eps       ncg     rms          rms(c)
DAV:   1    -0.331109503445E+04   -0.10780E+00   -0.12635E+01  3648   0.415E+00    0.685E-01
DAV:   2    -0.331111723371E+04   -0.22199E-01   -0.31976E-01  4224   0.611E-01    0.687E-01
DAV:   3    -0.331111427047E+04    0.29632E-02   -0.13580E-02  4672   0.118E-01    0.595E-01
DAV:   4    -0.331110642123E+04    0.78492E-02   -0.13220E-02  4128   0.144E-01    0.270E-01
DAV:   5    -0.331110575936E+04    0.66186E-03   -0.67652E-03  4160   0.942E-02    0.902E-02
DAV:   6    -0.331110579142E+04   -0.32059E-04   -0.11825E-03  4032   0.380E-02    0.413E-02
DAV:   7    -0.331110580906E+04   -0.17635E-04   -0.16145E-04  4352   0.128E-02    0.223E-02
DAV:   8    -0.331110580374E+04    0.53203E-05   -0.22928E-05  4128   0.667E-03    0.114E-02
DAV:   9    -0.331110580490E+04   -0.11660E-05   -0.15117E-05  4032   0.429E-03    0.432E-03
DAV:  10    -0.331110580477E+04    0.13318E-06   -0.20605E-06  3232   0.194E-03
  11 F= -.33251562E+04 E0= -.33251562E+04  d E =-.118036E+00
 BRION: g(F)=  0.224E+00 g(S)=  0.000E+00 retain N=  2 mean eig= 1.41
 eig:   0.215  2.600
 bond charge predicted
       N       E                     dE             d eps       ncg     rms          rms(c)
DAV:   1    -0.331112723075E+04   -0.21426E-01   -0.61888E+00  3680   0.292E+00    0.467E-01
DAV:   2    -0.331113720422E+04   -0.99735E-02   -0.14816E-01  4288   0.418E-01    0.472E-01
DAV:   3    -0.331113582336E+04    0.13809E-02   -0.57133E-03  4736   0.790E-02    0.413E-01
DAV:   4    -0.331113221939E+04    0.36040E-02   -0.86144E-03  4096   0.120E-01    0.170E-01
DAV:   5    -0.331113217842E+04    0.40969E-04   -0.31822E-03  4032   0.683E-02    0.708E-02
DAV:   6    -0.331113221075E+04   -0.32328E-04   -0.56485E-04  4096   0.271E-02    0.313E-02
DAV:   7    -0.331113220536E+04    0.53928E-05   -0.10851E-04  4192   0.112E-02    0.164E-02
DAV:   8    -0.331113220387E+04    0.14910E-05   -0.17672E-05  4192   0.559E-03    0.896E-03
DAV:   9    -0.331113220345E+04    0.41758E-06   -0.91134E-06  4160   0.351E-03
  12 F= -.33251826E+04 E0= -.33251826E+04  d E =-.264635E-01
 BRION: g(F)=  0.193E+00 g(S)=  0.000E+00 retain N=  3 mean eig= 2.36
 eig:   6.697  0.189  0.189
 bond charge predicted
       N       E                     dE             d eps       ncg     rms          rms(c)
DAV:   1    -0.331115392324E+04   -0.21719E-01   -0.27653E+00  3680   0.197E+00    0.320E-01
DAV:   2    -0.331115831217E+04   -0.43889E-02   -0.66631E-02  4224   0.283E-01    0.325E-01
DAV:   3    -0.331115775340E+04    0.55877E-03   -0.25776E-03  4864   0.517E-02    0.291E-01
DAV:   4    -0.331115574793E+04    0.20055E-02   -0.41578E-03  4416   0.805E-02    0.122E-01
DAV:   5    -0.331115566239E+04    0.85538E-04   -0.13525E-03  4096   0.429E-02    0.486E-02
DAV:   6    -0.331115567710E+04   -0.14707E-04   -0.23468E-04  3840   0.177E-02    0.195E-02
DAV:   7    -0.331115567916E+04   -0.20590E-05   -0.37548E-05  4288   0.637E-03    0.120E-02
DAV:   8    -0.331115567670E+04    0.24539E-05   -0.72218E-06  4160   0.383E-03    0.560E-03
DAV:   9    -0.331115567689E+04   -0.18277E-06   -0.41422E-06  3808   0.230E-03
  13 F= -.33252060E+04 E0= -.33252060E+04  d E =-.234138E-01
 BRION: g(F)=  0.708E-01 g(S)=  0.000E+00 retain N=  3 mean eig= 1.68
 eig:   4.570  0.234  0.234
 bond charge predicted
       N       E                     dE             d eps       ncg     rms          rms(c)
DAV:   1    -0.331116950009E+04   -0.13823E-01   -0.15333E+00  3680   0.145E+00    0.216E-01
DAV:   2    -0.331117175608E+04   -0.22560E-02   -0.31690E-02  4352   0.189E-01    0.216E-01
DAV:   3    -0.331117145907E+04    0.29702E-03   -0.10795E-03  4480   0.358E-02    0.189E-01
DAV:   4    -0.331117080908E+04    0.64999E-03   -0.16380E-03  4160   0.519E-02    0.700E-02
DAV:   5    -0.331117083643E+04   -0.27355E-04   -0.58750E-04  4064   0.267E-02    0.294E-02
DAV:   6    -0.331117083404E+04    0.23971E-05   -0.86794E-05  4064   0.107E-02    0.135E-02
DAV:   7    -0.331117083540E+04   -0.13656E-05   -0.20159E-05  4160   0.470E-03    0.659E-03
DAV:   8    -0.331117083537E+04    0.38301E-07   -0.22868E-06  3136   0.213E-03
  14 F= -.33252213E+04 E0= -.33252213E+04  d E =-.152385E-01
 BRION: g(F)=  0.316E-01 g(S)=  0.000E+00 retain N=  2 mean eig= 0.41
 eig:   0.186  0.638
 bond charge predicted
       N       E                     dE             d eps       ncg     rms          rms(c)
DAV:   1    -0.331117964357E+04   -0.88082E-02   -0.11760E+00  3680   0.125E+00    0.186E-01
DAV:   2    -0.331118122816E+04   -0.15846E-02   -0.22635E-02  4288   0.159E-01    0.185E-01
DAV:   3    -0.331118097488E+04    0.25328E-03   -0.79923E-04  4608   0.312E-02    0.157E-01
DAV:   4    -0.331118058585E+04    0.38903E-03   -0.12167E-03  4128   0.438E-02    0.548E-02
DAV:   5    -0.331118061384E+04   -0.27992E-04   -0.36544E-04  4096   0.213E-02    0.215E-02
DAV:   6    -0.331118061698E+04   -0.31415E-05   -0.48756E-05  4096   0.834E-03    0.968E-03
DAV:   7    -0.331118061685E+04    0.13376E-06   -0.12008E-05  4224   0.375E-03    0.561E-03
DAV:   8    -0.331118061684E+04    0.67521E-08   -0.19625E-06  2976   0.200E-03
  15 F= -.33252312E+04 E0= -.33252312E+04  d E =-.989685E-02
 BRION: g(F)=  0.288E-01 g(S)=  0.000E+00 retain N=  3 mean eig= 1.05
 eig:   2.671  0.241  0.241
 bond charge predicted
       N       E                     dE             d eps       ncg     rms          rms(c)
DAV:   1    -0.331118624247E+04   -0.56256E-02   -0.50517E-01  3680   0.830E-01    0.126E-01
DAV:   2    -0.331118697669E+04   -0.73422E-03   -0.10588E-02  4256   0.110E-01    0.126E-01
DAV:   3    -0.331118687126E+04    0.10543E-03   -0.39471E-04  4640   0.208E-02    0.109E-01
DAV:   4    -0.331118664136E+04    0.22991E-03   -0.55851E-04  4064   0.300E-02    0.420E-02
DAV:   5    -0.331118664721E+04   -0.58506E-05   -0.19787E-04  3936   0.156E-02    0.164E-02
DAV:   6    -0.331118664791E+04   -0.70222E-06   -0.29773E-05  4096   0.605E-03    0.748E-03
DAV:   7    -0.331118664853E+04   -0.62154E-06   -0.48246E-06  4096   0.228E-03
  16 F= -.33252373E+04 E0= -.33252373E+04  d E =-.607692E-02
 BRION: g(F)=  0.184E-01 g(S)=  0.000E+00 retain N=  3 mean eig= 1.88
 eig:   5.130  0.253  0.253
 bond charge predicted
       N       E                     dE             d eps       ncg     rms          rms(c)
DAV:   1    -0.331119399745E+04   -0.73495E-02   -0.92949E-01  3680   0.109E+00    0.159E-01
DAV:   2    -0.331119517562E+04   -0.11782E-02   -0.16228E-02  4320   0.130E-01    0.154E-01
DAV:   3    -0.331119497912E+04    0.19650E-03   -0.53033E-04  4512   0.265E-02    0.125E-01
DAV:   4    -0.331119480828E+04    0.17084E-03   -0.83540E-04  4032   0.352E-02    0.350E-02
DAV:   5    -0.331119483263E+04   -0.24354E-04   -0.20761E-04  4000   0.148E-02    0.166E-02
DAV:   6    -0.331119483081E+04    0.18280E-05   -0.29918E-05  4128   0.627E-03    0.751E-03
DAV:   7    -0.331119483145E+04   -0.64389E-06   -0.55090E-06  4000   0.273E-03
  17 F= -.33252455E+04 E0= -.33252455E+04  d E =-.827327E-02
 BRION: g(F)=  0.168E-01 g(S)=  0.000E+00 retain N=  3 mean eig= 2.10
 eig:   5.890  0.297  0.124
 bond charge predicted
       N       E                     dE             d eps       ncg     rms          rms(c)
DAV:   1    -0.331119841862E+04   -0.35878E-02   -0.35130E-01  3712   0.691E-01    0.105E-01
DAV:   2    -0.331119892071E+04   -0.50209E-03   -0.72940E-03  4352   0.908E-02    0.105E-01
DAV:   3    -0.331119884513E+04    0.75583E-04   -0.25071E-04  4576   0.168E-02    0.908E-02
DAV:   4    -0.331119869799E+04    0.14713E-03   -0.40892E-04  4256   0.253E-02    0.340E-02
DAV:   5    -0.331119870454E+04   -0.65463E-05   -0.12503E-04  3968   0.125E-02    0.135E-02
DAV:   6    -0.331119870542E+04   -0.87742E-06   -0.18427E-05  4128   0.473E-03    0.563E-03
DAV:   7    -0.331119870567E+04   -0.25297E-06   -0.24616E-06  3392   0.180E-03
  18 F= -.33252495E+04 E0= -.33252495E+04  d E =-.397055E-02
 BRION: g(F)=  0.155E-01 g(S)=  0.000E+00 retain N=  3 mean eig= 1.59
 eig:   4.361  0.198  0.198
 bond charge predicted
       N       E                     dE             d eps       ncg     rms          rms(c)
DAV:   1    -0.331120286888E+04   -0.41635E-02   -0.36305E-01  3680   0.692E-01    0.104E-01
DAV:   2    -0.331120336565E+04   -0.49677E-03   -0.69800E-03  4224   0.870E-02    0.103E-01
DAV:   3    -0.331120328562E+04    0.80033E-04   -0.24714E-04  4576   0.168E-02    0.869E-02
DAV:   4    -0.331120316283E+04    0.12279E-03   -0.42575E-04  4128   0.256E-02    0.253E-02
DAV:   5    -0.331120317277E+04   -0.99449E-05   -0.10698E-04  3968   0.111E-02    0.115E-02
DAV:   6    -0.331120317246E+04    0.31909E-06   -0.14960E-05  4128   0.433E-03    0.540E-03
DAV:   7    -0.331120317271E+04   -0.25542E-06   -0.25424E-06  3520   0.183E-03
  19 F= -.33252540E+04 E0= -.33252540E+04  d E =-.450637E-02
 BRION: g(F)=  0.118E-01 g(S)=  0.000E+00 retain N=  3 mean eig= 2.18
 eig:   6.076  0.102  0.361
 bond charge predicted
       N       E                     dE             d eps       ncg     rms          rms(c)
DAV:   1    -0.331120796339E+04   -0.47909E-02   -0.52878E-01  3680   0.826E-01    0.119E-01
DAV:   2    -0.331120862619E+04   -0.66280E-03   -0.91207E-03  4288   0.976E-02    0.115E-01
DAV:   3    -0.331120851897E+04    0.10722E-03   -0.30226E-04  4544   0.198E-02    0.932E-02
DAV:   4    -0.331120843467E+04    0.84303E-04   -0.46362E-04  4000   0.265E-02    0.253E-02
DAV:   5    -0.331120844773E+04   -0.13063E-04   -0.11339E-04  3968   0.114E-02    0.127E-02
DAV:   6    -0.331120844654E+04    0.11920E-05   -0.17968E-05  4096   0.473E-03    0.590E-03
DAV:   7    -0.331120844709E+04   -0.55414E-06   -0.31112E-06  3584   0.204E-03
  20 F= -.33252593E+04 E0= -.33252593E+04  d E =-.533379E-02
 BRION: g(F)=  0.110E-01 g(S)=  0.000E+00 retain N=  3 mean eig= 1.31
 eig:   3.418  0.253  0.253
 bond charge predicted
       N       E                     dE             d eps       ncg     rms          rms(c)
DAV:   1    -0.331121048496E+04   -0.20384E-02   -0.14834E-01  3680   0.450E-01    0.696E-02
DAV:   2    -0.331121070785E+04   -0.22289E-03   -0.32192E-03  4384   0.601E-02    0.698E-02
DAV:   3    -0.331121067497E+04    0.32887E-04   -0.10492E-04  4768   0.108E-02    0.610E-02
DAV:   4    -0.331121060243E+04    0.72537E-04   -0.17389E-04  4288   0.165E-02    0.227E-02
DAV:   5    -0.331121060451E+04   -0.20758E-05   -0.57242E-05  3936   0.826E-03    0.847E-03
DAV:   6    -0.331121060498E+04   -0.47567E-06   -0.81001E-06  4096   0.310E-03
  21 F= -.33252615E+04 E0= -.33252615E+04  d E =-.219716E-02
 BRION: g(F)=  0.911E-02 g(S)=  0.000E+00 retain N=  3 mean eig= 1.42
 eig:   3.762  0.252  0.252
 bond charge predicted
       N       E                     dE             d eps       ncg     rms          rms(c)
DAV:   1    -0.331121484381E+04   -0.42393E-02   -0.46530E-01  3680   0.769E-01    0.111E-01
DAV:   2    -0.331121541300E+04   -0.56919E-03   -0.78161E-03  4288   0.894E-02    0.106E-01
DAV:   3    -0.331121531531E+04    0.97687E-04   -0.23486E-04  4480   0.179E-02    0.844E-02
DAV:   4    -0.331121526106E+04    0.54253E-04   -0.41485E-04  4064   0.245E-02    0.203E-02
DAV:   5    -0.331121526882E+04   -0.77619E-05   -0.91798E-05  4000   0.104E-02    0.113E-02
DAV:   6    -0.331121526785E+04    0.97021E-06   -0.15278E-05  4128   0.421E-03    0.526E-03
DAV:   7    -0.331121526824E+04   -0.38731E-06   -0.21930E-06  3168   0.179E-03
  22 F= -.33252663E+04 E0= -.33252663E+04  d E =-.473313E-02
 BRION: g(F)=  0.801E-02 g(S)=  0.000E+00 retain N=  3 mean eig= 2.05
 eig:   5.697  0.051  0.402
 bond charge predicted
       N       E                     dE             d eps       ncg     rms          rms(c)
DAV:   1    -0.331121795792E+04   -0.26901E-02   -0.24058E-01  3680   0.559E-01    0.825E-02
DAV:   2    -0.331121827536E+04   -0.31745E-03   -0.44356E-03  4320   0.686E-02    0.810E-02
DAV:   3    -0.331121822134E+04    0.54026E-04   -0.14373E-04  4544   0.132E-02    0.675E-02
DAV:   4    -0.331121816084E+04    0.60502E-04   -0.25235E-04  4064   0.196E-02    0.194E-02
DAV:   5    -0.331121816768E+04   -0.68387E-05   -0.61840E-05  3968   0.851E-03    0.890E-03
DAV:   6    -0.331121816760E+04    0.75670E-07   -0.85755E-06  4160   0.323E-03
  23 F= -.33252692E+04 E0= -.33252692E+04  d E =-.290326E-02
 BRION: g(F)=  0.811E-02 g(S)=  0.000E+00 retain N=  3 mean eig= 1.83
 eig:   5.018  0.239  0.239
 bond charge predicted
       N       E                     dE             d eps       ncg     rms          rms(c)
DAV:   1    -0.331122034393E+04   -0.21763E-02   -0.16808E-01  3680   0.472E-01    0.703E-02
DAV:   2    -0.331122057394E+04   -0.23001E-03   -0.32319E-03  4320   0.591E-02    0.695E-02
DAV:   3    -0.331122053769E+04    0.36255E-04   -0.10914E-04  4576   0.113E-02    0.587E-02
DAV:   4    -0.331122048899E+04    0.48703E-04   -0.17908E-04  4192   0.168E-02    0.181E-02
DAV:   5    -0.331122049404E+04   -0.50525E-05   -0.47066E-05  3968   0.749E-03    0.829E-03
DAV:   6    -0.331122049387E+04    0.17183E-06   -0.70318E-06  4128   0.293E-03
  24 F= -.33252715E+04 E0= -.33252715E+04  d E =-.236312E-02
 BRION: g(F)=  0.700E-02 g(S)=  0.000E+00 retain N=  3 mean eig= 2.07
 eig:   5.732  0.169  0.323
 bond charge predicted
       N       E                     dE             d eps       ncg     rms          rms(c)
DAV:   1    -0.331122378528E+04   -0.32912E-02   -0.37126E-01  3680   0.686E-01    0.998E-02
DAV:   2    -0.331122424287E+04   -0.45759E-03   -0.62977E-03  4288   0.802E-02    0.961E-02
DAV:   3    -0.331122416173E+04    0.81143E-04   -0.18230E-04  4480   0.157E-02    0.767E-02
DAV:   4    -0.331122411441E+04    0.47319E-04   -0.35194E-04  3968   0.226E-02    0.180E-02
DAV:   5    -0.331122412035E+04   -0.59434E-05   -0.77531E-05  3968   0.963E-03    0.994E-03
DAV:   6    -0.331122411987E+04    0.47765E-06   -0.12059E-05  4096   0.372E-03    0.482E-03
DAV:   7    -0.331122412013E+04   -0.26054E-06   -0.16714E-06  2944   0.162E-03
  25 F= -.33252752E+04 E0= -.33252752E+04  d E =-.367217E-02
 BRION: g(F)=  0.645E-02 g(S)=  0.000E+00 retain N=  3 mean eig= 1.43
 eig:   3.802  0.092  0.394
 bond charge predicted
       N       E                     dE             d eps       ncg     rms          rms(c)
DAV:   1    -0.331122516077E+04   -0.10409E-02   -0.70056E-02  3680   0.311E-01    0.474E-02
DAV:   2    -0.331122526743E+04   -0.10666E-03   -0.15276E-03  4256   0.417E-02    0.479E-02
DAV:   3    -0.331122525460E+04    0.12833E-04   -0.56341E-05  4736   0.771E-03    0.426E-02
DAV:   4    -0.331122521858E+04    0.36016E-04   -0.71909E-05  4096   0.110E-02    0.179E-02
DAV:   5    -0.331122521837E+04    0.21467E-06   -0.34294E-05  3904   0.646E-03    0.676E-03
DAV:   6    -0.331122521829E+04    0.84168E-07   -0.52977E-06  3776   0.264E-03
  26 F= -.33252763E+04 E0= -.33252763E+04  d E =-.109183E-02
 BRION: g(F)=  0.597E-02 g(S)=  0.000E+00 retain N=  3 mean eig= 1.20
 eig:   3.036  0.278  0.278
 bond charge predicted
       N       E                     dE             d eps       ncg     rms          rms(c)
DAV:   1    -0.331122799340E+04   -0.27750E-02   -0.27719E-01  3680   0.593E-01    0.863E-02
DAV:   2    -0.331122833165E+04   -0.33824E-03   -0.46828E-03  4288   0.692E-02    0.829E-02
DAV:   3    -0.331122827046E+04    0.61181E-04   -0.14415E-04  4480   0.140E-02    0.656E-02
DAV:   4    -0.331122823749E+04    0.32979E-04   -0.24496E-04  4032   0.189E-02    0.161E-02
DAV:   5    -0.331122824266E+04   -0.51744E-05   -0.55363E-05  4000   0.802E-03    0.865E-03
DAV:   6    -0.331122824240E+04    0.25658E-06   -0.82746E-06  4160   0.308E-03
  27 F= -.33252793E+04 E0= -.33252793E+04  d E =-.303945E-02
 BRION: g(F)=  0.498E-02 g(S)=  0.000E+00 retain N=  3 mean eig= 2.08
 eig:   5.727  0.129  0.387
 bond charge predicted
       N       E                     dE             d eps       ncg     rms          rms(c)
DAV:   1    -0.331123025232E+04   -0.20097E-02   -0.17973E-01  3712   0.480E-01    0.696E-02
DAV:   2    -0.331123047751E+04   -0.22519E-03   -0.31193E-03  4352   0.570E-02    0.675E-02
DAV:   3    -0.331123044013E+04    0.37379E-04   -0.10005E-04  4544   0.113E-02    0.548E-02
DAV:   4    -0.331123041408E+04    0.26051E-04   -0.16702E-04  4000   0.158E-02    0.144E-02
DAV:   5    -0.331123041857E+04   -0.44930E-05   -0.38764E-05  3968   0.666E-03    0.750E-03
DAV:   6    -0.331123041802E+04    0.55006E-06   -0.60332E-06  4128   0.270E-03
  28 F= -.33252816E+04 E0= -.33252816E+04  d E =-.220898E-02
 BRION: g(F)=  0.501E-02 g(S)=  0.000E+00 retain N=  3 mean eig= 2.10
 eig:   5.849  0.223  0.223
 bond charge predicted
       N       E                     dE             d eps       ncg     rms          rms(c)
DAV:   1    -0.331123184066E+04   -0.14221E-02   -0.10023E-01  3680   0.362E-01    0.537E-02
DAV:   2    -0.331123197630E+04   -0.13564E-03   -0.18851E-03  4288   0.449E-02    0.532E-02
DAV:   3    -0.331123195487E+04    0.21426E-04   -0.58890E-05  4544   0.836E-03    0.453E-02
DAV:   4    -0.331123192642E+04    0.28447E-04   -0.11842E-04  4064   0.136E-02    0.125E-02
DAV:   5    -0.331123192933E+04   -0.29074E-05   -0.28180E-05  4000   0.596E-03    0.608E-03
DAV:   6    -0.331123192931E+04    0.21537E-07   -0.38481E-06  3712   0.217E-03
  29 F= -.33252831E+04 E0= -.33252831E+04  d E =-.150802E-02
 BRION: g(F)=  0.458E-02 g(S)=  0.000E+00 retain N=  3 mean eig= 1.76
 eig:   4.824  0.127  0.319
 bond charge predicted
       N       E                     dE             d eps       ncg     rms          rms(c)
DAV:   1    -0.331123438517E+04   -0.24558E-02   -0.27995E-01  3680   0.595E-01    0.856E-02
DAV:   2    -0.331123471965E+04   -0.33449E-03   -0.46282E-03  4288   0.687E-02    0.822E-02
DAV:   3    -0.331123466113E+04    0.58523E-04   -0.14227E-04  4384   0.141E-02    0.649E-02
DAV:   4    -0.331123463583E+04    0.25307E-04   -0.24771E-04  4032   0.191E-02    0.151E-02
DAV:   5    -0.331123464001E+04   -0.41797E-05   -0.55013E-05  4000   0.813E-03    0.886E-03
DAV:   6    -0.331123463951E+04    0.49511E-06   -0.86016E-06  4128   0.314E-03
  30 F= -.33252858E+04 E0= -.33252858E+04  d E =-.271597E-02
 BRION: g(F)=  0.427E-02 g(S)=  0.000E+00 retain N=  3 mean eig= 1.70
 eig:   4.591  0.148  0.372
 bond charge predicted
       N       E                     dE             d eps       ncg     rms          rms(c)
DAV:   1    -0.331123535671E+04   -0.71671E-03   -0.47901E-02  3712   0.257E-01    0.393E-02
DAV:   2    -0.331123543066E+04   -0.73942E-04   -0.10457E-03  4352   0.342E-02    0.396E-02
DAV:   3    -0.331123542159E+04    0.90676E-05   -0.33917E-05  4768   0.606E-03    0.353E-02
DAV:   4    -0.331123539831E+04    0.23274E-04   -0.51137E-05  3968   0.926E-03    0.139E-02
DAV:   5    -0.331123539890E+04   -0.58312E-06   -0.21474E-05  3968   0.513E-03    0.519E-03
DAV:   6    -0.331123539892E+04   -0.25728E-07   -0.30083E-06  3072   0.200E-03
  31 F= -.33252865E+04 E0= -.33252865E+04  d E =-.768693E-03
 BRION: g(F)=  0.432E-02 g(S)=  0.000E+00 retain N=  3 mean eig= 1.14
 eig:   2.897  0.254  0.254
 bond charge predicted
       N       E                     dE             d eps       ncg     rms          rms(c)
DAV:   1    -0.331123722365E+04   -0.18248E-02   -0.16397E-01  3680   0.457E-01    0.655E-02
DAV:   2    -0.331123742272E+04   -0.19907E-03   -0.27544E-03  4288   0.533E-02    0.634E-02
DAV:   3    -0.331123738885E+04    0.33872E-04   -0.86632E-05  4512   0.107E-02    0.511E-02
DAV:   4    -0.331123736893E+04    0.19921E-04   -0.15026E-04  4000   0.149E-02    0.127E-02
DAV:   5    -0.331123737241E+04   -0.34786E-05   -0.34169E-05  3936   0.628E-03    0.701E-03
DAV:   6    -0.331123737191E+04    0.49605E-06   -0.52199E-06  4096   0.249E-03
  32 F= -.33252885E+04 E0= -.33252885E+04  d E =-.198326E-02
 BRION: g(F)=  0.354E-02 g(S)=  0.000E+00 retain N=  3 mean eig= 1.92
 eig:   5.296  0.089  0.382
 bond charge predicted
       N       E                     dE             d eps       ncg     rms          rms(c)
DAV:   1    -0.331123893400E+04   -0.15616E-02   -0.13393E-01  3680   0.413E-01    0.600E-02
DAV:   2    -0.331123909912E+04   -0.16513E-03   -0.22892E-03  4288   0.486E-02    0.581E-02
DAV:   3    -0.331123906987E+04    0.29251E-04   -0.69483E-05  4544   0.969E-03    0.469E-02
DAV:   4    -0.331123905303E+04    0.16848E-04   -0.12973E-04  4000   0.140E-02    0.113E-02
DAV:   5    -0.331123905563E+04   -0.26040E-05   -0.29186E-05  4000   0.597E-03    0.628E-03
DAV:   6    -0.331123905549E+04    0.13947E-06   -0.41467E-06  3936   0.221E-03
  33 F= -.33252902E+04 E0= -.33252902E+04  d E =-.167297E-02
 BRION: g(F)=  0.340E-02 g(S)=  0.000E+00 retain N=  3 mean eig= 2.40
 eig:   6.697  0.245  0.245
 bond charge predicted
       N       E                     dE             d eps       ncg     rms          rms(c)
DAV:   1    -0.331124009690E+04   -0.10413E-02   -0.69168E-02  3712   0.301E-01    0.439E-02
DAV:   2    -0.331124018774E+04   -0.90832E-04   -0.12682E-03  4288   0.368E-02    0.432E-02
DAV:   3    -0.331124017345E+04    0.14283E-04   -0.42912E-05  4544   0.718E-03    0.363E-02
DAV:   4    -0.331124015863E+04    0.14823E-04   -0.67800E-05  4032   0.104E-02    0.109E-02
DAV:   5    -0.331124016087E+04   -0.22362E-05   -0.17924E-05  3968   0.460E-03    0.519E-03
DAV:   6    -0.331124016066E+04    0.20477E-06   -0.24292E-06  3264   0.181E-03
  34 F= -.33252913E+04 E0= -.33252913E+04  d E =-.111142E-02
 BRION: g(F)=  0.321E-02 g(S)=  0.000E+00 retain N=  3 mean eig= 1.75
 eig:   4.775  0.167  0.312
 bond charge predicted
       N       E                     dE             d eps       ncg     rms          rms(c)
DAV:   1    -0.331124190529E+04   -0.17444E-02   -0.18604E-01  3712   0.484E-01    0.697E-02
DAV:   2    -0.331124212614E+04   -0.22085E-03   -0.30585E-03  4288   0.558E-02    0.672E-02
DAV:   3    -0.331124208642E+04    0.39718E-04   -0.88666E-05  4448   0.111E-02    0.535E-02
DAV:   4    -0.331124206839E+04    0.18030E-04   -0.17662E-04  3968   0.159E-02    0.121E-02
DAV:   5    -0.331124207123E+04   -0.28367E-05   -0.38256E-05  3968   0.659E-03    0.716E-03
DAV:   6    -0.331124207073E+04    0.50198E-06   -0.55284E-06  4096   0.255E-03
  35 F= -.33252932E+04 E0= -.33252932E+04  d E =-.191510E-02
 BRION: g(F)=  0.299E-02 g(S)=  0.000E+00 retain N=  3 mean eig= 1.74
 eig:   4.736  0.064  0.410
 bond charge predicted
       N       E                     dE             d eps       ncg     rms          rms(c)
DAV:   1    -0.331124294959E+04   -0.87836E-03   -0.61435E-02  3712   0.284E-01    0.413E-02
DAV:   2    -0.331124303168E+04   -0.82088E-04   -0.11378E-03  4288   0.350E-02    0.409E-02
DAV:   3    -0.331124301959E+04    0.12089E-04   -0.38504E-05  4576   0.672E-03    0.348E-02
DAV:   4    -0.331124300487E+04    0.14724E-04   -0.59766E-05  4032   0.988E-03    0.108E-02
DAV:   5    -0.331124300695E+04   -0.20822E-05   -0.17175E-05  3904   0.449E-03    0.504E-03
DAV:   6    -0.331124300674E+04    0.20803E-06   -0.22095E-06  3200   0.177E-03
  36 F= -.33252942E+04 E0= -.33252942E+04  d E =-.929293E-03
 BRION: g(F)=  0.321E-02 g(S)=  0.000E+00 retain N=  3 mean eig= 1.11
 eig:   2.793  0.265  0.265
 bond charge predicted
       N       E                     dE             d eps       ncg     rms          rms(c)
DAV:   1    -0.331124411664E+04   -0.11097E-02   -0.80787E-02  3680   0.323E-01    0.471E-02
DAV:   2    -0.331124421985E+04   -0.10321E-03   -0.14390E-03  4352   0.389E-02    0.460E-02
DAV:   3    -0.331124420216E+04    0.17688E-04   -0.43939E-05  4544   0.752E-03    0.379E-02
DAV:   4    -0.331124418795E+04    0.14212E-04   -0.75269E-05  4000   0.108E-02    0.106E-02
DAV:   5    -0.331124419026E+04   -0.23047E-05   -0.18718E-05  3968   0.471E-03    0.507E-03
DAV:   6    -0.331124419015E+04    0.10256E-06   -0.24360E-06  3360   0.176E-03
  37 F= -.33252953E+04 E0= -.33252953E+04  d E =-.117705E-02
 BRION: g(F)=  0.270E-02 g(S)=  0.000E+00 retain N=  3 mean eig= 1.88
 eig:   5.120  0.169  0.354
 bond charge predicted
       N       E                     dE             d eps       ncg     rms          rms(c)
DAV:   1    -0.331124543898E+04   -0.12487E-02   -0.11146E-01  3712   0.376E-01    0.540E-02
DAV:   2    -0.331124557303E+04   -0.13405E-03   -0.18641E-03  4320   0.439E-02    0.523E-02
DAV:   3    -0.331124554985E+04    0.23177E-04   -0.57171E-05  4416   0.874E-03    0.421E-02
DAV:   4    -0.331124553796E+04    0.11897E-04   -0.10327E-04  4000   0.123E-02    0.103E-02
DAV:   5    -0.331124554025E+04   -0.22895E-05   -0.23087E-05  3936   0.511E-03    0.579E-03
DAV:   6    -0.331124553987E+04    0.37591E-06   -0.33419E-06  3872   0.203E-03
  38 F= -.33252967E+04 E0= -.33252967E+04  d E =-.135655E-02
 BRION: g(F)=  0.254E-02 g(S)=  0.000E+00 retain N=  3 mean eig= 2.51
 eig:   7.070  0.143  0.312
 bond charge predicted
       N       E                     dE             d eps       ncg     rms          rms(c)
DAV:   1    -0.331124632061E+04   -0.78037E-03   -0.48403E-02  3712   0.251E-01    0.365E-02
DAV:   2    -0.331124638405E+04   -0.63435E-04   -0.87888E-04  4352   0.306E-02    0.361E-02
DAV:   3    -0.331124637402E+04    0.10024E-04   -0.26179E-05  4544   0.567E-03    0.307E-02
DAV:   4    -0.331124636344E+04    0.10580E-04   -0.52447E-05  4000   0.910E-03    0.849E-03
DAV:   5    -0.331124636492E+04   -0.14775E-05   -0.12794E-05  3936   0.399E-03    0.420E-03
DAV:   6    -0.331124636483E+04    0.87777E-07   -0.15516E-06  2880   0.146E-03
  39 F= -.33252975E+04 E0= -.33252975E+04  d E =-.818978E-03
 BRION: g(F)=  0.240E-02 g(S)=  0.000E+00 retain N=  3 mean eig= 1.68
 eig:   4.562  0.182  0.294
 bond charge predicted
       N       E                     dE             d eps       ncg     rms          rms(c)
DAV:   1    -0.331124757580E+04   -0.12109E-02   -0.10924E-01  3712   0.372E-01    0.534E-02
DAV:   2    -0.331124770509E+04   -0.12929E-03   -0.18046E-03  4288   0.431E-02    0.515E-02
DAV:   3    -0.331124768202E+04    0.23070E-04   -0.54950E-05  4352   0.876E-03    0.411E-02
DAV:   4    -0.331124767238E+04    0.96369E-05   -0.99428E-05  4064   0.121E-02    0.977E-03
DAV:   5    -0.331124767429E+04   -0.19113E-05   -0.21855E-05  3968   0.503E-03    0.565E-03
DAV:   6    -0.331124767402E+04    0.27206E-06   -0.31293E-06  3904   0.197E-03
  40 F= -.33252988E+04 E0= -.33252988E+04  d E =-.130221E-02
 BRION: g(F)=  0.220E-02 g(S)=  0.000E+00 retain N=  3 mean eig= 1.89
 eig:   5.187  0.142  0.357
 bond charge predicted
       N       E                     dE             d eps       ncg     rms          rms(c)
DAV:   1    -0.331124865640E+04   -0.98210E-03   -0.84278E-02  3712   0.328E-01    0.474E-02
DAV:   2    -0.331124876022E+04   -0.10383E-03   -0.14435E-03  4352   0.387E-02    0.461E-02
DAV:   3    -0.331124874198E+04    0.18246E-04   -0.41370E-05  4448   0.748E-03    0.375E-02
DAV:   4    -0.331124873121E+04    0.10765E-04   -0.81181E-05  4000   0.110E-02    0.934E-03
DAV:   5    -0.331124873306E+04   -0.18503E-05   -0.18207E-05  3936   0.463E-03    0.501E-03
DAV:   6    -0.331124873290E+04    0.16682E-06   -0.24276E-06  3360   0.175E-03
  41 F= -.33252999E+04 E0= -.33252999E+04  d E =-.105742E-02
 BRION: g(F)=  0.234E-02 g(S)=  0.000E+00 retain N=  3 mean eig= 1.16
 eig:   2.984  0.161  0.334
 bond charge predicted
       N       E                     dE             d eps       ncg     rms          rms(c)
DAV:   1    -0.331124945200E+04   -0.71893E-03   -0.46555E-02  3712   0.246E-01    0.354E-02
DAV:   2    -0.331124951212E+04   -0.60123E-04   -0.83350E-04  4288   0.298E-02    0.349E-02
DAV:   3    -0.331124950311E+04    0.90124E-05   -0.27385E-05  4512   0.575E-03    0.295E-02
DAV:   4    -0.331124949404E+04    0.90712E-05   -0.44160E-05  3968   0.840E-03    0.879E-03
DAV:   5    -0.331124949556E+04   -0.15270E-05   -0.11882E-05  3904   0.377E-03    0.423E-03
DAV:   6    -0.331124949539E+04    0.17672E-06   -0.14997E-06  2848   0.147E-03
  42 F= -.33253006E+04 E0= -.33253006E+04  d E =-.763707E-03
 BRION: g(F)=  0.213E-02 g(S)=  0.000E+00 retain N=  3 mean eig= 1.69
 eig:   4.588  0.145  0.326
 bond charge predicted
       N       E                     dE             d eps       ncg     rms          rms(c)
DAV:   1    -0.331125048872E+04   -0.99316E-03   -0.85912E-02  3680   0.330E-01    0.477E-02
DAV:   2    -0.331125059261E+04   -0.10388E-03   -0.14470E-03  4320   0.386E-02    0.462E-02
DAV:   3    -0.331125057386E+04    0.18741E-04   -0.42037E-05  4480   0.768E-03    0.373E-02
DAV:   4    -0.331125056422E+04    0.96406E-05   -0.83587E-05  4000   0.112E-02    0.881E-03
DAV:   5    -0.331125056574E+04   -0.15149E-05   -0.18664E-05  3968   0.477E-03    0.504E-03
DAV:   6    -0.331125056563E+04    0.11118E-06   -0.24871E-06  3552   0.175E-03
  43 F= -.33253017E+04 E0= -.33253017E+04  d E =-.105920E-02
 BRION: g(F)=  0.200E-02 g(S)=  0.000E+00 retain N=  3 mean eig= 2.51
 eig:   7.078  0.166  0.293
 bond charge predicted
       N       E                     dE             d eps       ncg     rms          rms(c)
DAV:   1    -0.331125124945E+04   -0.68372E-03   -0.45199E-02  3712   0.242E-01    0.349E-02
DAV:   2    -0.331125130710E+04   -0.57645E-04   -0.80222E-04  4352   0.292E-02    0.343E-02
DAV:   3    -0.331125129785E+04    0.92479E-05   -0.24842E-05  4512   0.560E-03    0.286E-02
DAV:   4    -0.331125129021E+04    0.76444E-05   -0.43216E-05  3968   0.823E-03    0.816E-03
DAV:   5    -0.331125129158E+04   -0.13745E-05   -0.10871E-05  3904   0.359E-03    0.407E-03
DAV:   6    -0.331125129142E+04    0.16578E-06   -0.13513E-06  2688   0.140E-03
  44 F= -.33253024E+04 E0= -.33253024E+04  d E =-.724423E-03
 BRION: g(F)=  0.192E-02 g(S)=  0.000E+00 retain N=  3 mean eig= 1.79
 eig:   4.887  0.191  0.304
 bond charge predicted
       N       E                     dE             d eps       ncg     rms          rms(c)
DAV:   1    -0.331125207703E+04   -0.78545E-03   -0.57351E-02  3712   0.270E-01    0.388E-02
DAV:   2    -0.331125214712E+04   -0.70088E-04   -0.97115E-04  4320   0.317E-02    0.379E-02
DAV:   3    -0.331125213511E+04    0.12016E-04   -0.28534E-05  4448   0.613E-03    0.311E-02
DAV:   4    -0.331125212779E+04    0.73207E-05   -0.57716E-05  4000   0.927E-03    0.746E-03
DAV:   5    -0.331125212896E+04   -0.11757E-05   -0.12782E-05  3968   0.385E-03    0.420E-03
DAV:   6    -0.331125212876E+04    0.19919E-06   -0.15532E-06  2880   0.146E-03
  45 F= -.33253033E+04 E0= -.33253033E+04  d E =-.835598E-03
 BRION: g(F)=  0.172E-02 g(S)=  0.000E+00 retain N=  3 mean eig= 1.82
 eig:   5.006  0.086  0.368
 bond charge predicted
       N       E                     dE             d eps       ncg     rms          rms(c)
DAV:   1    -0.331125307672E+04   -0.94776E-03   -0.91417E-02  3712   0.340E-01    0.486E-02
DAV:   2    -0.331125318407E+04   -0.10735E-03   -0.14981E-03  4256   0.392E-02    0.470E-02
DAV:   3    -0.331125316494E+04    0.19127E-04   -0.44739E-05  4320   0.795E-03    0.377E-02
DAV:   4    -0.331125315760E+04    0.73420E-05   -0.86039E-05  4096   0.112E-02    0.877E-03
DAV:   5    -0.331125315906E+04   -0.14593E-05   -0.18473E-05  3968   0.466E-03    0.521E-03
DAV:   6    -0.331125315881E+04    0.24505E-06   -0.25570E-06  3552   0.180E-03
  46 F= -.33253043E+04 E0= -.33253043E+04  d E =-.102420E-02
 BRION: g(F)=  0.177E-02 g(S)=  0.000E+00 retain N=  3 mean eig= 1.24
 eig:   3.220  0.175  0.329
 bond charge predicted
       N       E                     dE             d eps       ncg     rms          rms(c)
DAV:   1    -0.331125368296E+04   -0.52391E-03   -0.30399E-02  3680   0.199E-01    0.290E-02
DAV:   2    -0.331125372333E+04   -0.40365E-04   -0.56053E-04  4384   0.244E-02    0.286E-02
DAV:   3    -0.331125371695E+04    0.63801E-05   -0.16170E-05  4480   0.454E-03    0.242E-02
DAV:   4    -0.331125371058E+04    0.63712E-05   -0.30124E-05  3936   0.694E-03    0.714E-03
DAV:   5    -0.331125371152E+04   -0.93819E-06   -0.77914E-06  3872   0.313E-03
  47 F= -.33253048E+04 E0= -.33253048E+04  d E =-.545758E-03
 BRION: g(F)=  0.168E-02 g(S)=  0.000E+00 retain N=  3 mean eig= 1.68
 eig:   4.529  0.191  0.312
 bond charge predicted
       N       E                     dE             d eps       ncg     rms          rms(c)
DAV:   1    -0.331125454156E+04   -0.83098E-03   -0.75507E-02  3712   0.310E-01    0.447E-02
DAV:   2    -0.331125463163E+04   -0.90074E-04   -0.12508E-03  4288   0.359E-02    0.432E-02
DAV:   3    -0.331125461607E+04    0.15557E-04   -0.37168E-05  4320   0.719E-03    0.348E-02
DAV:   4    -0.331125460977E+04    0.63033E-05   -0.69297E-05  4064   0.101E-02    0.834E-03
DAV:   5    -0.331125461120E+04   -0.14276E-05   -0.15194E-05  3968   0.419E-03    0.474E-03
DAV:   6    -0.331125461094E+04    0.25379E-06   -0.21305E-06  3392   0.166E-03
  48 F= -.33253057E+04 E0= -.33253057E+04  d E =-.898850E-03
 BRION: g(F)=  0.162E-02 g(S)=  0.000E+00 retain N=  3 mean eig= 2.37
 eig:   6.677  0.057  0.366
 bond charge predicted
       N       E                     dE             d eps       ncg     rms          rms(c)
DAV:   1    -0.331125523398E+04   -0.62278E-03   -0.45140E-02  3712   0.241E-01    0.346E-02
DAV:   2    -0.331125529061E+04   -0.56623E-04   -0.78267E-04  4352   0.286E-02    0.339E-02
DAV:   3    -0.331125528126E+04    0.93410E-05   -0.22121E-05  4480   0.541E-03    0.283E-02
DAV:   4    -0.331125527436E+04    0.69051E-05   -0.46627E-05  3936   0.846E-03    0.723E-03
DAV:   5    -0.331125527548E+04   -0.11190E-05   -0.10628E-05  3936   0.362E-03    0.388E-03
DAV:   6    -0.331125527537E+04    0.10408E-06   -0.12526E-06  2624   0.133E-03
  49 F= -.33253064E+04 E0= -.33253064E+04  d E =-.659738E-03
 BRION: g(F)=  0.158E-02 g(S)=  0.000E+00 retain N=  3 mean eig= 1.81
 eig:   4.942  0.195  0.298
 bond charge predicted
       N       E                     dE             d eps       ncg     rms          rms(c)
DAV:   1    -0.331125577876E+04   -0.50328E-03   -0.28906E-02  3712   0.194E-01    0.279E-02
DAV:   2    -0.331125581575E+04   -0.36995E-04   -0.51358E-04  4320   0.234E-02    0.274E-02
DAV:   3    -0.331125580997E+04    0.57799E-05   -0.16114E-05  4448   0.451E-03    0.231E-02
DAV:   4    -0.331125580489E+04    0.50873E-05   -0.27961E-05  3904   0.668E-03    0.643E-03
DAV:   5    -0.331125580575E+04   -0.86660E-06   -0.71123E-06  3840   0.291E-03
  50 F= -.33253069E+04 E0= -.33253069E+04  d E =-.525599E-03
 BRION: g(F)=  0.141E-02 g(S)=  0.000E+00 retain N=  3 mean eig= 1.84
 eig:   5.035  0.160  0.323
 bond charge predicted
       N       E                     dE             d eps       ncg     rms          rms(c)
DAV:   1    -0.331125663033E+04   -0.82544E-03   -0.82229E-02  3712   0.322E-01    0.466E-02
DAV:   2    -0.331125672725E+04   -0.96925E-04   -0.13459E-03  4320   0.371E-02    0.450E-02
DAV:   3    -0.331125670990E+04    0.17349E-04   -0.37268E-05  4320   0.738E-03    0.359E-02
DAV:   4    -0.331125670424E+04    0.56648E-05   -0.76517E-05  4000   0.105E-02    0.822E-03
DAV:   5    -0.331125670547E+04   -0.12332E-05   -0.16709E-05  3968   0.438E-03    0.484E-03
DAV:   6    -0.331125670523E+04    0.24529E-06   -0.22902E-06  3488   0.171E-03
  51 F= -.33253078E+04 E0= -.33253078E+04  d E =-.893320E-03
 BRION: g(F)=  0.140E-02 g(S)=  0.000E+00 retain N=  3 mean eig= 1.30
 eig:   3.402  0.135  0.364
 bond charge predicted
       N       E                     dE             d eps       ncg     rms          rms(c)
DAV:   1    -0.331125714764E+04   -0.44217E-03   -0.25778E-02  3712   0.183E-01    0.261E-02
DAV:   2    -0.331125718063E+04   -0.32992E-04   -0.45614E-04  4352   0.220E-02    0.258E-02
DAV:   3    -0.331125717568E+04    0.49543E-05   -0.14053E-05  4416   0.415E-03    0.219E-02
DAV:   4    -0.331125717122E+04    0.44529E-05   -0.25223E-05  3936   0.628E-03    0.631E-03
DAV:   5    -0.331125717205E+04   -0.83004E-06   -0.64138E-06  3840   0.271E-03
  52 F= -.33253083E+04 E0= -.33253083E+04  d E =-.467180E-03
 BRION: g(F)=  0.134E-02 g(S)=  0.000E+00 retain N=  3 mean eig= 1.63
 eig:   4.396  0.188  0.295
 bond charge predicted
       N       E                     dE             d eps       ncg     rms          rms(c)
DAV:   1    -0.331125783185E+04   -0.66063E-03   -0.55664E-02  3712   0.266E-01    0.385E-02
DAV:   2    -0.331125789892E+04   -0.67062E-04   -0.92943E-04  4320   0.309E-02    0.374E-02
DAV:   3    -0.331125788693E+04    0.11987E-04   -0.24471E-05  4320   0.604E-03    0.302E-02
DAV:   4    -0.331125788228E+04    0.46454E-05   -0.53228E-05  4128   0.886E-03    0.707E-03
DAV:   5    -0.331125788319E+04   -0.90641E-06   -0.11548E-05  3968   0.375E-03    0.406E-03
DAV:   6    -0.331125788309E+04    0.10361E-06   -0.15020E-06  2880   0.142E-03
  53 F= -.33253090E+04 E0= -.33253090E+04  d E =-.703412E-03
 BRION: g(F)=  0.131E-02 g(S)=  0.000E+00 retain N=  3 mean eig= 2.26
 eig:   6.350  0.098  0.329
 bond charge predicted
       N       E                     dE             d eps       ncg     rms          rms(c)
DAV:   1    -0.331125849594E+04   -0.61275E-03   -0.50840E-02  3712   0.255E-01    0.363E-02
DAV:   2    -0.331125855753E+04   -0.61588E-04   -0.85600E-04  4384   0.298E-02    0.354E-02
DAV:   3    -0.331125854691E+04    0.10624E-04   -0.23894E-05  4352   0.576E-03    0.289E-02
DAV:   4    -0.331125854124E+04    0.56670E-05   -0.48567E-05  4000   0.846E-03    0.724E-03
DAV:   5    -0.331125854234E+04   -0.10971E-05   -0.10848E-05  3936   0.352E-03    0.401E-03
DAV:   6    -0.331125854215E+04    0.18661E-06   -0.13368E-06  2688   0.139E-03
  54 F= -.33253096E+04 E0= -.33253096E+04  d E =-.654730E-03
 BRION: g(F)=  0.130E-02 g(S)=  0.000E+00 retain N=  3 mean eig= 1.87
 eig:   5.108  0.165  0.324
 bond charge predicted
       N       E                     dE             d eps       ncg     rms          rms(c)
DAV:   1    -0.331125889947E+04   -0.35713E-03   -0.18722E-02  3776   0.156E-01    0.225E-02
DAV:   2    -0.331125892454E+04   -0.25067E-04   -0.34343E-04  4352   0.191E-02    0.224E-02
DAV:   3    -0.331125892099E+04    0.35494E-05   -0.95371E-06  4448   0.343E-03    0.194E-02
DAV:   4    -0.331125891654E+04    0.44489E-05   -0.20423E-05  3872   0.576E-03    0.543E-03
DAV:   5    -0.331125891710E+04   -0.56264E-06   -0.51406E-06  3552   0.256E-03
  55 F= -.33253100E+04 E0= -.33253100E+04  d E =-.373644E-03
 BRION: g(F)=  0.119E-02 g(S)=  0.000E+00 retain N=  3 mean eig= 1.73
 eig:   4.727  0.119  0.335
 bond charge predicted
       N       E                     dE             d eps       ncg     rms          rms(c)
DAV:   1    -0.331125957932E+04   -0.66278E-03   -0.62109E-02  3712   0.280E-01    0.403E-02
DAV:   2    -0.331125965256E+04   -0.73245E-04   -0.10172E-03  4352   0.323E-02    0.390E-02
DAV:   3    -0.331125963939E+04    0.13173E-04   -0.25895E-05  4288   0.630E-03    0.314E-02
DAV:   4    -0.331125963523E+04    0.41629E-05   -0.58542E-05  4128   0.919E-03    0.719E-03
DAV:   5    -0.331125963616E+04   -0.93435E-06   -0.12522E-05  3968   0.383E-03    0.427E-03
DAV:   6    -0.331125963598E+04    0.18138E-06   -0.16936E-06  3040   0.150E-03
  56 F= -.33253107E+04 E0= -.33253107E+04  d E =-.714911E-03
 BRION: g(F)=  0.115E-02 g(S)=  0.000E+00 retain N=  3 mean eig= 1.33
 eig:   3.503  0.138  0.349
 bond charge predicted
       N       E                     dE             d eps       ncg     rms          rms(c)
DAV:   1    -0.331126004934E+04   -0.41317E-03   -0.24924E-02  3712   0.179E-01    0.257E-02
DAV:   2    -0.331126008076E+04   -0.31428E-04   -0.43622E-04  4416   0.214E-02    0.252E-02
DAV:   3    -0.331126007541E+04    0.53589E-05   -0.11456E-05  4416   0.399E-03    0.210E-02
DAV:   4    -0.331126007170E+04    0.37013E-05   -0.25012E-05  3904   0.616E-03    0.546E-03
DAV:   5    -0.331126007231E+04   -0.60594E-06   -0.56953E-06  3680   0.263E-03
  57 F= -.33253111E+04 E0= -.33253111E+04  d E =-.430412E-03
 BRION: g(F)=  0.111E-02 g(S)=  0.000E+00 retain N=  3 mean eig= 1.68
 eig:   4.556  0.201  0.297
 bond charge predicted
       N       E                     dE             d eps       ncg     rms          rms(c)
DAV:   1    -0.331126060643E+04   -0.53473E-03   -0.43382E-02  3712   0.235E-01    0.337E-02
DAV:   2    -0.331126065854E+04   -0.52110E-04   -0.72039E-04  4384   0.273E-02    0.328E-02
DAV:   3    -0.331126064971E+04    0.88331E-05   -0.19622E-05  4288   0.529E-03    0.267E-02
DAV:   4    -0.331126064608E+04    0.36275E-05   -0.40784E-05  3904   0.774E-03    0.638E-03
DAV:   5    -0.331126064693E+04   -0.84238E-06   -0.90748E-06  3904   0.321E-03
  58 F= -.33253117E+04 E0= -.33253117E+04  d E =-.572668E-03
 BRION: g(F)=  0.108E-02 g(S)=  0.000E+00 retain N=  3 mean eig= 2.10
 eig:   5.899  0.018  0.371
 bond charge predicted
       N       E                     dE             d eps       ncg     rms          rms(c)
DAV:   1    -0.331126123197E+04   -0.58589E-03   -0.55970E-02  3712   0.266E-01    0.383E-02
DAV:   2    -0.331126129991E+04   -0.67937E-04   -0.93222E-04  4352   0.310E-02    0.373E-02
DAV:   3    -0.331126128846E+04    0.11442E-04   -0.23617E-05  4320   0.591E-03    0.305E-02
DAV:   4    -0.331126128402E+04    0.44418E-05   -0.55708E-05  4064   0.906E-03    0.700E-03
DAV:   5    -0.331126128492E+04   -0.90385E-06   -0.11926E-05  3968   0.382E-03    0.415E-03
DAV:   6    -0.331126128475E+04    0.17043E-06   -0.15531E-06  2816   0.145E-03
  59 F= -.33253124E+04 E0= -.33253124E+04  d E =-.633798E-03
 BRION: g(F)=  0.112E-02 g(S)=  0.000E+00 retain N=  3 mean eig= 1.87
 eig:   5.119  0.178  0.303
 bond charge predicted
       N       E                     dE             d eps       ncg     rms          rms(c)
DAV:   1    -0.331126152965E+04   -0.24472E-03   -0.11023E-02  3776   0.122E-01    0.176E-02
DAV:   2    -0.331126154518E+04   -0.15531E-04   -0.21428E-04  4256   0.153E-02    0.177E-02
DAV:   3    -0.331126154330E+04    0.18809E-05   -0.69998E-06  4128   0.285E-03    0.156E-02
DAV:   4    -0.331126153998E+04    0.33228E-05   -0.11645E-05  3776   0.445E-03    0.536E-03
DAV:   5    -0.331126154034E+04   -0.36345E-06   -0.35899E-06  3168   0.214E-03
  60 F= -.33253126E+04 E0= -.33253126E+04  d E =-.252902E-03
 BRION: g(F)=  0.103E-02 g(S)=  0.000E+00 retain N=  3 mean eig= 1.79
 eig:   4.880  0.204  0.297
 bond charge predicted
       N       E                     dE             d eps       ncg     rms          rms(c)
DAV:   1    -0.331126205813E+04   -0.51815E-03   -0.42497E-02  3712   0.232E-01    0.336E-02
DAV:   2    -0.331126210857E+04   -0.50443E-04   -0.70099E-04  4320   0.268E-02    0.325E-02
DAV:   3    -0.331126209940E+04    0.91732E-05   -0.17764E-05  4320   0.521E-03    0.262E-02
DAV:   4    -0.331126209607E+04    0.33299E-05   -0.40600E-05  3968   0.765E-03    0.600E-03
DAV:   5    -0.331126209670E+04   -0.63668E-06   -0.88422E-06  3936   0.321E-03
  61 F= -.33253132E+04 E0= -.33253132E+04  d E =-.551338E-03
 BRION: g(F)=  0.944E-03 g(S)=  0.000E+00 retain N=  3 mean eig= 1.28
 eig:   3.393  0.061  0.399
 bond charge predicted
       N       E                     dE             d eps       ncg     rms          rms(c)
DAV:   1    -0.331126247546E+04   -0.37939E-03   -0.24857E-02  3712   0.178E-01    0.257E-02
DAV:   2    -0.331126250640E+04   -0.30949E-04   -0.42316E-04  4416   0.210E-02    0.252E-02
DAV:   3    -0.331126250159E+04    0.48123E-05   -0.11388E-05  4192   0.396E-03    0.209E-02
DAV:   4    -0.331126249929E+04    0.23056E-05   -0.23971E-05  3840   0.602E-03    0.528E-03
DAV:   5    -0.331126249990E+04   -0.61549E-06   -0.54377E-06  3680   0.253E-03
  62 F= -.33253136E+04 E0= -.33253136E+04  d E =-.402925E-03
 BRION: g(F)=  0.932E-03 g(S)=  0.000E+00 retain N=  3 mean eig= 1.71
 eig:   4.626  0.251  0.251
 bond charge predicted
       N       E                     dE             d eps       ncg     rms          rms(c)
DAV:   1    -0.331126304008E+04   -0.54079E-03   -0.51307E-02  3712   0.254E-01    0.366E-02
DAV:   2    -0.331126310107E+04   -0.60986E-04   -0.84346E-04  4320   0.294E-02    0.355E-02
DAV:   3    -0.331126309030E+04    0.10770E-04   -0.21157E-05  4320   0.571E-03    0.287E-02
DAV:   4    -0.331126308686E+04    0.34393E-05   -0.49689E-05  4064   0.847E-03    0.648E-03
DAV:   5    -0.331126308756E+04   -0.69954E-06   -0.10611E-05  3968   0.355E-03    0.387E-03
DAV:   6    -0.331126308741E+04    0.14482E-06   -0.13330E-06  2784   0.136E-03
  63 F= -.33253141E+04 E0= -.33253141E+04  d E =-.582086E-03
 BRION: g(F)=  0.933E-03 g(S)=  0.000E+00 retain N=  3 mean eig= 2.11
 eig:   5.888  0.090  0.340
 bond charge predicted
       N       E                     dE             d eps       ncg     rms          rms(c)
DAV:   1    -0.331126354770E+04   -0.46014E-03   -0.38678E-02  3712   0.222E-01    0.315E-02
DAV:   2    -0.331126359421E+04   -0.46507E-04   -0.64708E-04  4352   0.259E-02    0.308E-02
DAV:   3    -0.331126358616E+04    0.80494E-05   -0.17481E-05  4256   0.500E-03    0.252E-02
DAV:   4    -0.331126358215E+04    0.40065E-05   -0.37822E-05  3936   0.744E-03    0.611E-03
DAV:   5    -0.331126358289E+04   -0.74005E-06   -0.82414E-06  3904   0.307E-03
  64 F= -.33253146E+04 E0= -.33253146E+04  d E =-.491526E-03
 BRION: g(F)=  0.935E-03 g(S)=  0.000E+00 retain N=  3 mean eig= 1.81
 eig:   4.981  0.103  0.344
 bond charge predicted
       N       E                     dE             d eps       ncg     rms          rms(c)
DAV:   1    -0.331126370212E+04   -0.11997E-03   -0.48936E-03  3744   0.827E-02    0.127E-02
DAV:   2    -0.331126371014E+04   -0.80230E-05   -0.10963E-04  4288   0.112E-02    0.129E-02
DAV:   3    -0.331126370945E+04    0.68988E-06   -0.34123E-06  3552   0.199E-03
  65 F= -.33253148E+04 E0= -.33253148E+04  d E =-.126284E-03
 BRION: g(F)=  0.896E-03 g(S)=  0.000E+00 retain N=  3 mean eig= 1.81
 eig:   4.769  0.328  0.328
 bond charge predicted
       N       E                     dE             d eps       ncg     rms          rms(c)
DAV:   1    -0.331126421130E+04   -0.50115E-03   -0.43626E-02  3712   0.234E-01    0.361E-02
DAV:   2    -0.331126425774E+04   -0.46448E-04   -0.68526E-04  4320   0.265E-02    0.343E-02
DAV:   3    -0.331126424682E+04    0.10927E-04   -0.19786E-05  4192   0.594E-03    0.253E-02
DAV:   4    -0.331126424664E+04    0.17451E-06   -0.39814E-05  4064   0.735E-03    0.554E-03
DAV:   5    -0.331126424680E+04   -0.15693E-06   -0.93077E-06  4000   0.328E-03
  66 F= -.33253153E+04 E0= -.33253153E+04  d E =-.534147E-03
 BRION: g(F)=  0.763E-03 g(S)=  0.000E+00 retain N=  3 mean eig= 0.80
 eig:   1.866  0.006  0.539
 bond charge predicted
       N       E                     dE             d eps       ncg     rms          rms(c)
DAV:   1    -0.331126480459E+04   -0.55794E-03   -0.71626E-02  3712   0.301E-01    0.433E-02
DAV:   2    -0.331126489110E+04   -0.86510E-04   -0.11907E-03  4320   0.350E-02    0.421E-02
DAV:   3    -0.331126487626E+04    0.14833E-04   -0.29858E-05  4288   0.672E-03    0.344E-02
DAV:   4    -0.331126487027E+04    0.59886E-05   -0.72065E-05  4064   0.102E-02    0.784E-03
DAV:   5    -0.331126487131E+04   -0.10320E-05   -0.15284E-05  4000   0.428E-03    0.466E-03
DAV:   6    -0.331126487114E+04    0.16752E-06   -0.20020E-06  3232   0.163E-03
  67 F= -.33253159E+04 E0= -.33253159E+04  d E =-.616997E-03
 BRION: g(F)=  0.111E-02 g(S)=  0.000E+00 retain N=  3 mean eig= 1.01
 eig:   2.514  0.261  0.261
 bond charge predicted
       N       E                     dE             d eps       ncg     rms          rms(c)
DAV:   1    -0.331126556799E+04   -0.69668E-03   -0.12014E-01  3712   0.390E-01    0.553E-02
DAV:   2    -0.331126571125E+04   -0.14326E-03   -0.19831E-03  4320   0.452E-02    0.539E-02
DAV:   3    -0.331126568683E+04    0.24421E-04   -0.52959E-05  4288   0.876E-03    0.442E-02
DAV:   4    -0.331126567483E+04    0.11993E-04   -0.11936E-04  4224   0.131E-02    0.103E-02
DAV:   5    -0.331126567677E+04   -0.19385E-05   -0.25050E-05  3936   0.535E-03    0.609E-03
DAV:   6    -0.331126567637E+04    0.40047E-06   -0.33476E-06  3840   0.205E-03
  68 F= -.33253167E+04 E0= -.33253167E+04  d E =-.802488E-03
 BRION: g(F)=  0.127E-02 g(S)=  0.000E+00 retain N=  3 mean eig= 2.41
 eig:   6.694  0.481  0.043
 bond charge predicted
       N       E                     dE             d eps       ncg     rms          rms(c)
DAV:   1    -0.331126670005E+04   -0.10233E-02   -0.31606E-01  3712   0.630E-01    0.896E-02
DAV:   2    -0.331126706912E+04   -0.36907E-03   -0.51102E-03  4288   0.723E-02    0.869E-02
DAV:   3    -0.331126700350E+04    0.65618E-04   -0.13309E-04  4256   0.142E-02    0.702E-02
DAV:   4    -0.331126697771E+04    0.25797E-04   -0.31587E-04  4320   0.211E-02    0.155E-02
DAV:   5    -0.331126698124E+04   -0.35330E-05   -0.65129E-05  4000   0.861E-03    0.961E-03
DAV:   6    -0.331126698040E+04    0.84401E-06   -0.86296E-06  4064   0.325E-03
  69 F= -.33253180E+04 E0= -.33253180E+04  d E =-.129711E-02
 BRION: g(F)=  0.127E-02 g(S)=  0.000E+00 retain N=  3 mean eig= 1.69
 eig:   4.660  0.009  0.388
 bond charge predicted
       N       E                     dE             d eps       ncg     rms          rms(c)
DAV:   1    -0.331126455287E+04    0.24284E-02   -0.65680E-01  3712   0.908E-01    0.129E-01
DAV:   2    -0.331126530150E+04   -0.74863E-03   -0.10443E-02  4320   0.103E-01    0.125E-01
DAV:   3    -0.331126515870E+04    0.14281E-03   -0.25880E-04  4256   0.204E-02    0.997E-02
DAV:   4    -0.331126510332E+04    0.55382E-04   -0.65317E-04  4224   0.301E-02    0.212E-02
DAV:   5    -0.331126510867E+04   -0.53517E-05   -0.13581E-04  3936   0.126E-02    0.134E-02
DAV:   6    -0.331126510783E+04    0.83901E-06   -0.18025E-05  4128   0.463E-03    0.651E-03
DAV:   7    -0.331126510844E+04   -0.61374E-06   -0.57174E-06  4032   0.253E-03
  70 F= -.33253161E+04 E0= -.33253161E+04  d E =0.186151E-02
 BRION: g(F)=  0.863E-03 g(S)=  0.000E+00 retain N=  3 mean eig= 1.45
 eig:   0.372  0.372  3.610
 bond charge predicted
       N       E                     dE             d eps       ncg     rms          rms(c)
DAV:   1    -0.331126619243E+04   -0.10846E-02   -0.30777E-01  3712   0.620E-01    0.887E-02
DAV:   2    -0.331126653997E+04   -0.34754E-03   -0.48751E-03  4288   0.704E-02    0.856E-02
DAV:   3    -0.331126647231E+04    0.67652E-04   -0.12702E-04  4256   0.142E-02    0.679E-02
DAV:   4    -0.331126644887E+04    0.23442E-04   -0.30082E-04  4256   0.203E-02    0.146E-02
DAV:   5    -0.331126645153E+04   -0.26540E-05   -0.62850E-05  4000   0.834E-03    0.914E-03
DAV:   6    -0.331126645082E+04    0.71002E-06   -0.79987E-06  4064   0.314E-03
  71 F= -.33253175E+04 E0= -.33253175E+04  d E =-.133214E-02
 BRION: g(F)=  0.715E-03 g(S)=  0.000E+00 retain N=  3 mean eig= 0.58
 eig:   0.960  0.070  0.722
 bond charge predicted
       N       E                     dE             d eps       ncg     rms          rms(c)
DAV:   1    -0.331126681032E+04   -0.35879E-03   -0.29725E-02  3712   0.194E-01    0.276E-02
DAV:   2    -0.331126684689E+04   -0.36570E-04   -0.50426E-04  4352   0.229E-02    0.270E-02
DAV:   3    -0.331126684105E+04    0.58439E-05   -0.13943E-05  4224   0.441E-03    0.223E-02
DAV:   4    -0.331126683815E+04    0.28998E-05   -0.30554E-05  3904   0.669E-03    0.546E-03
DAV:   5    -0.331126683873E+04   -0.58208E-06   -0.65191E-06  3808   0.273E-03
  72 F= -.33253179E+04 E0= -.33253179E+04  d E =-.386508E-03
 BRION: g(F)=  0.726E-03 g(S)=  0.000E+00 retain N=  3 mean eig= 1.80
 eig:   4.698  0.346  0.346
 bond charge predicted
       N       E                     dE             d eps       ncg     rms          rms(c)
DAV:   1    -0.331126784667E+04   -0.10085E-02   -0.35815E-01  3712   0.670E-01    0.955E-02
DAV:   2    -0.331126826071E+04   -0.41405E-03   -0.57361E-03  4320   0.764E-02    0.924E-02
DAV:   3    -0.331126818499E+04    0.75727E-04   -0.14117E-04  4256   0.151E-02    0.740E-02
DAV:   4    -0.331126816089E+04    0.24099E-04   -0.35603E-04  4320   0.222E-02    0.158E-02
DAV:   5    -0.331126816363E+04   -0.27422E-05   -0.73511E-05  4000   0.926E-03    0.100E-02
DAV:   6    -0.331126816293E+04    0.69500E-06   -0.99173E-06  4096   0.349E-03
  73 F= -.33253192E+04 E0= -.33253192E+04  d E =-.131344E-02
 BRION: g(F)=  0.926E-03 g(S)=  0.000E+00 retain N=  3 mean eig= 1.23
 eig:   1.523  1.523  0.634
 bond charge predicted
       N       E                     dE             d eps       ncg     rms          rms(c)
DAV:   1    -0.331126918967E+04   -0.10260E-02   -0.44591E-01  3712   0.748E-01    0.106E-01
DAV:   2    -0.331126970672E+04   -0.51705E-03   -0.71806E-03  4288   0.856E-02    0.103E-01
DAV:   3    -0.331126961340E+04    0.93318E-04   -0.18712E-04  4256   0.171E-02    0.825E-02
DAV:   4    -0.331126957947E+04    0.33938E-04   -0.44117E-04  4320   0.247E-02    0.182E-02
DAV:   5    -0.331126958399E+04   -0.45286E-05   -0.90550E-05  4000   0.101E-02    0.113E-02
DAV:   6    -0.331126958294E+04    0.10543E-05   -0.11992E-05  4064   0.385E-03    0.544E-03
DAV:   7    -0.331126958320E+04   -0.26287E-06   -0.44097E-06  3936   0.221E-03
  74 F= -.33253206E+04 E0= -.33253206E+04  d E =-.141168E-02
 BRION: g(F)=  0.947E-03 g(S)=  0.000E+00 retain N=  3 mean eig= 1.88
 eig:   5.189  0.118  0.347
 bond charge predicted
       N       E                     dE             d eps       ncg     rms          rms(c)
DAV:   1    -0.331126661676E+04    0.29662E-02   -0.97436E-01  3712   0.110E+00    0.157E-01
DAV:   2    -0.331126772951E+04   -0.11128E-02   -0.15539E-02  4320   0.126E-01    0.152E-01
DAV:   3    -0.331126751571E+04    0.21380E-03   -0.38795E-04  4256   0.252E-02    0.121E-01
DAV:   4    -0.331126743747E+04    0.78241E-04   -0.96360E-04  4256   0.365E-02    0.261E-02
DAV:   5    -0.331126744519E+04   -0.77173E-05   -0.20066E-04  3936   0.152E-02    0.164E-02
DAV:   6    -0.331126744392E+04    0.12664E-05   -0.26598E-05  4064   0.570E-03    0.778E-03
DAV:   7    -0.331126744469E+04   -0.77044E-06   -0.89500E-06  4128   0.315E-03
  75 F= -.33253185E+04 E0= -.33253185E+04  d E =0.212468E-02
 BRION: g(F)=  0.994E-03 g(S)=  0.000E+00 retain N=  3 mean eig= 1.97
 eig:   5.149  0.384  0.384
 bond charge predicted
       N       E                     dE             d eps       ncg     rms          rms(c)
DAV:   1    -0.331126863791E+04   -0.11940E-02   -0.55455E-01  3712   0.833E-01    0.119E-01
DAV:   2    -0.331126926692E+04   -0.62901E-03   -0.88013E-03  4256   0.948E-02    0.115E-01
DAV:   3    -0.331126914610E+04    0.12083E-03   -0.22934E-04  4256   0.191E-02    0.916E-02
DAV:   4    -0.331126910004E+04    0.46056E-04   -0.54577E-04  4256   0.274E-02    0.199E-02
DAV:   5    -0.331126910511E+04   -0.50700E-05   -0.11388E-04  4000   0.112E-02    0.124E-02
DAV:   6    -0.331126910388E+04    0.12297E-05   -0.14651E-05  4064   0.426E-03    0.604E-03
DAV:   7    -0.331126910428E+04   -0.40187E-06   -0.54906E-06  3968   0.247E-03
  76 F= -.33253201E+04 E0= -.33253201E+04  d E =-.164979E-02
 BRION: g(F)=  0.684E-03 g(S)=  0.000E+00 retain N=  3 mean eig= 0.78
 eig:   1.726  0.051  0.565
 bond charge predicted
       N       E                     dE             d eps       ncg     rms          rms(c)
DAV:   1    -0.331126918267E+04   -0.78787E-04   -0.20773E-03  3744   0.540E-02    0.792E-03
DAV:   2    -0.331126918605E+04   -0.33864E-05   -0.46606E-05  4288   0.728E-03    0.812E-03
DAV:   3    -0.331126918577E+04    0.28685E-06   -0.11314E-06  2496   0.129E-03
  77 F= -.33253202E+04 E0= -.33253202E+04  d E =-.795087E-04
 BRION: g(F)=  0.562E-03 g(S)=  0.000E+00 retain N=  2 mean eig= 0.33
 eig:   0.253  0.412
 bond charge predicted
       N       E                     dE             d eps       ncg     rms          rms(c)
DAV:   1    -0.331126990939E+04   -0.72333E-03   -0.18141E-01  3712   0.477E-01    0.690E-02
DAV:   2    -0.331127011237E+04   -0.20298E-03   -0.28647E-03  4320   0.541E-02    0.664E-02
DAV:   3    -0.331127007188E+04    0.40487E-04   -0.72983E-05  4256   0.111E-02    0.523E-02
DAV:   4    -0.331127006118E+04    0.10705E-04   -0.17885E-04  4224   0.156E-02    0.112E-02
DAV:   5    -0.331127006234E+04   -0.11614E-05   -0.37767E-05  4000   0.658E-03    0.713E-03
DAV:   6    -0.331127006203E+04    0.31164E-06   -0.50572E-06  4032   0.253E-03
  78 F= -.33253211E+04 E0= -.33253211E+04  d E =-.869958E-03
 BRION: g(F)=  0.654E-03 g(S)=  0.000E+00 retain N=  3 mean eig= 0.25
 eig:   0.347  0.347  0.055
 bond charge predicted
       N       E                     dE             d eps       ncg     rms          rms(c)
DAV:   1    -0.331127035946E+04   -0.29712E-03   -0.25869E-02  3776   0.182E-01    0.258E-02
DAV:   2    -0.331127039196E+04   -0.32504E-04   -0.44730E-04  4320   0.216E-02    0.253E-02
DAV:   3    -0.331127038690E+04    0.50605E-05   -0.11793E-05  4352   0.404E-03    0.213E-02
DAV:   4    -0.331127038336E+04    0.35422E-05   -0.26634E-05  3872   0.631E-03    0.546E-03
DAV:   5    -0.331127038399E+04   -0.62713E-06   -0.59387E-06  3648   0.261E-03
  79 F= -.33253214E+04 E0= -.33253214E+04  d E =-.320247E-03
 BRION: g(F)=  0.575E-03 g(S)=  0.000E+00 retain N=  1 mean eig= 0.20
 eig:   0.200
 bond charge predicted
       N       E                     dE             d eps       ncg     rms          rms(c)
DAV:   1    -0.331127067491E+04   -0.29155E-03   -0.33565E-02  3712   0.208E-01    0.299E-02
DAV:   2    -0.331127071753E+04   -0.42618E-04   -0.58139E-04  4288   0.248E-02    0.295E-02
DAV:   3    -0.331127071122E+04    0.63122E-05   -0.15362E-05  4320   0.459E-03    0.250E-02
DAV:   4    -0.331127070648E+04    0.47380E-05   -0.32632E-05  3904   0.710E-03    0.669E-03
DAV:   5    -0.331127070743E+04   -0.94948E-06   -0.78741E-06  3840   0.302E-03
  80 F= -.33253217E+04 E0= -.33253217E+04  d E =-.322751E-03
 BRION: g(F)=  0.851E-03 g(S)=  0.000E+00 retain N=  2 mean eig= 0.18
 eig:   0.184  0.184
 bond charge predicted
       N       E                     dE             d eps       ncg     rms          rms(c)
DAV:   1    -0.331127084174E+04   -0.13525E-03   -0.48507E-03  3712   0.819E-02    0.125E-02
DAV:   2    -0.331127084940E+04   -0.76621E-05   -0.10436E-04  4288   0.108E-02    0.126E-02
DAV:   3    -0.331127084864E+04    0.75938E-06   -0.31815E-06  3456   0.196E-03
  81 F= -.33253219E+04 E0= -.33253219E+04  d E =-.140074E-03
 BRION: g(F)=  0.494E-03 g(S)=  0.000E+00 retain N=  1 mean eig= 0.19
 eig:   0.192
 bond charge predicted
       N       E                     dE             d eps       ncg     rms          rms(c)
DAV:   1    -0.331127126824E+04   -0.41884E-03   -0.56657E-02  3712   0.266E-01    0.409E-02
DAV:   2    -0.331127132824E+04   -0.60000E-04   -0.88345E-04  4256   0.301E-02    0.390E-02
DAV:   3    -0.331127131378E+04    0.14459E-04   -0.24426E-05  4160   0.676E-03    0.290E-02
DAV:   4    -0.331127131267E+04    0.11125E-05   -0.53920E-05  4064   0.855E-03    0.630E-03
DAV:   5    -0.331127131284E+04   -0.17392E-06   -0.12558E-05  4064   0.375E-03    0.400E-03
DAV:   6    -0.331127131276E+04    0.78464E-07   -0.15608E-06  2848   0.152E-03
  82 F= -.33253223E+04 E0= -.33253223E+04  d E =-.461922E-03
 BRION: g(F)=  0.504E-03 g(S)=  0.000E+00 retain N=  2 mean eig= 0.33
 eig:   0.055  0.598
 bond charge predicted
       N       E                     dE             d eps       ncg     rms          rms(c)
DAV:   1    -0.331127154387E+04   -0.23103E-03   -0.20362E-02  3776   0.162E-01    0.230E-02
DAV:   2    -0.331127156967E+04   -0.25793E-04   -0.35702E-04  4320   0.194E-02    0.227E-02
DAV:   3    -0.331127156569E+04    0.39800E-05   -0.95287E-06  4288   0.360E-03    0.193E-02
DAV:   4    -0.331127156210E+04    0.35909E-05   -0.21109E-05  3872   0.568E-03    0.518E-03
DAV:   5    -0.331127156264E+04   -0.53993E-06   -0.48512E-06  3552   0.238E-03
  83 F= -.33253226E+04 E0= -.33253226E+04  d E =-.247441E-03
 BRION: g(F)=  0.669E-03 g(S)=  0.000E+00 retain N=  2 mean eig= 1.38
 eig:   0.170  2.595
 bond charge predicted
       N       E                     dE             d eps       ncg     rms          rms(c)
DAV:   1    -0.331127195492E+04   -0.39283E-03   -0.74699E-02  3712   0.309E-01    0.443E-02
DAV:   2    -0.331127204693E+04   -0.92009E-04   -0.12662E-03  4288   0.364E-02    0.435E-02
DAV:   3    -0.331127203227E+04    0.14660E-04   -0.33295E-05  4384   0.686E-03    0.365E-02
DAV:   4    -0.331127202233E+04    0.99434E-05   -0.74299E-05  4064   0.105E-02    0.926E-03
DAV:   5    -0.331127202405E+04   -0.17260E-05   -0.16636E-05  3968   0.435E-03    0.503E-03
DAV:   6    -0.331127202378E+04    0.27556E-06   -0.20655E-06  3136   0.170E-03
  84 F= -.33253230E+04 E0= -.33253230E+04  d E =-.461157E-03
 BRION: g(F)=  0.111E-02 g(S)=  0.000E+00 retain N=  2 mean eig= 0.27
 eig:   0.164  0.380
 bond charge predicted
       N       E                     dE             d eps       ncg     rms          rms(c)
DAV:   1    -0.331127194211E+04    0.81942E-04   -0.89964E-03  3744   0.111E-01    0.163E-02
DAV:   2    -0.331127195535E+04   -0.13243E-04   -0.18386E-04  4288   0.144E-02    0.166E-02
DAV:   3    -0.331127195410E+04    0.12552E-05   -0.60762E-06  4160   0.261E-03    0.152E-02
DAV:   4    -0.331127194974E+04    0.43566E-05   -0.81994E-06  3744   0.397E-03    0.643E-03
DAV:   5    -0.331127194969E+04    0.52038E-07   -0.44121E-06  3456   0.243E-03
  85 F= -.33253229E+04 E0= -.33253229E+04  d E =0.745356E-04
 BRION: g(F)=  0.439E-03 g(S)=  0.000E+00 retain N=  1 mean eig= 0.20
 eig:   0.196
 bond charge predicted
       N       E                     dE             d eps       ncg     rms          rms(c)
DAV:   1    -0.331127234510E+04   -0.39536E-03   -0.53652E-02  3712   0.259E-01    0.362E-02
DAV:   2    -0.331127240568E+04   -0.60575E-04   -0.85339E-04  4224   0.296E-02    0.351E-02
DAV:   3    -0.331127239404E+04    0.11636E-04   -0.21594E-05  4256   0.588E-03    0.285E-02
DAV:   4    -0.331127238881E+04    0.52297E-05   -0.56340E-05  4128   0.879E-03    0.624E-03
DAV:   5    -0.331127238925E+04   -0.44121E-06   -0.11283E-05  3968   0.359E-03    0.394E-03
DAV:   6    -0.331127238915E+04    0.10000E-06   -0.11778E-06  2560   0.133E-03
  86 F= -.33253234E+04 E0= -.33253234E+04  d E =-.437110E-03
 BRION: g(F)=  0.430E-03 g(S)=  0.000E+00 retain N=  2 mean eig= 0.60
 eig:   0.213  0.981
 bond charge predicted
       N       E                     dE             d eps       ncg     rms          rms(c)
DAV:   1    -0.331127262649E+04   -0.23723E-03   -0.20997E-02  3776   0.163E-01    0.231E-02
DAV:   2    -0.331127265198E+04   -0.25497E-04   -0.35296E-04  4288   0.192E-02    0.227E-02
DAV:   3    -0.331127264777E+04    0.42150E-05   -0.89835E-06  4256   0.364E-03    0.189E-02
DAV:   4    -0.331127264523E+04    0.25360E-05   -0.21951E-05  3872   0.566E-03    0.458E-03
DAV:   5    -0.331127264562E+04   -0.38964E-06   -0.46234E-06  3360   0.232E-03
  87 F= -.33253236E+04 E0= -.33253236E+04  d E =-.255207E-03
 BRION: g(F)=  0.514E-03 g(S)=  0.000E+00 retain N=  1 mean eig= 0.21
 eig:   0.211
 bond charge predicted
       N       E                     dE             d eps       ncg     rms          rms(c)
DAV:   1    -0.331127286564E+04   -0.22040E-03   -0.15848E-02  3776   0.142E-01    0.205E-02
DAV:   2    -0.331127288513E+04   -0.19495E-04   -0.26614E-04  4288   0.167E-02    0.200E-02
DAV:   3    -0.331127288210E+04    0.30346E-05   -0.67706E-06  4000   0.318E-03    0.167E-02
DAV:   4    -0.331127288073E+04    0.13664E-05   -0.15800E-05  3744   0.484E-03    0.403E-03
DAV:   5    -0.331127288103E+04   -0.29569E-06   -0.33536E-06  3104   0.201E-03
  88 F= -.33253239E+04 E0= -.33253239E+04  d E =-.234771E-03
 BRION: g(F)=  0.419E-03 g(S)=  0.000E+00 retain N=  2 mean eig= 2.04
 eig:   0.155  3.927
 bond charge predicted
[...]
DAV:   3    -0.331127524390E+04    0.71306E-05   -0.14587E-05  4224   0.479E-03    0.243E-02
DAV:   4    -0.331127524119E+04    0.27164E-05   -0.36734E-05  3904   0.723E-03    0.545E-03
DAV:   5    -0.331127524165E+04   -0.46403E-06   -0.76602E-06  3872   0.298E-03
 100 F= -.33253262E+04 E0= -.33253262E+04  d E =-.312130E-03
 BRION: g(F)=  0.400E-03 g(S)=  0.000E+00 retain N=  2 mean eig= 0.24
 eig:   0.239  0.239
 bond charge predicted
       N       E                     dE             d eps       ncg     rms          rms(c)
DAV:   1    -0.331127532766E+04   -0.86480E-04   -0.29343E-03  3776   0.619E-02    0.918E-03
DAV:   2    -0.331127533190E+04   -0.42391E-05   -0.55012E-05  4288   0.767E-03    0.915E-03
DAV:   3    -0.331127533144E+04    0.46776E-06   -0.12319E-06  2720   0.140E-03
 101 F= -.33253263E+04 E0= -.33253263E+04  d E =-.884495E-04
 BRION: g(F)=  0.354E-03 g(S)=  0.000E+00 retain N=  1 mean eig= 0.14
 eig:   0.142
 bond charge predicted
       N       E                     dE             d eps       ncg     rms          rms(c)
DAV:   1    -0.331127561331E+04   -0.28141E-03   -0.35422E-02  3712   0.211E-01    0.312E-02
DAV:   2    -0.331127565193E+04   -0.38618E-04   -0.54998E-04  4288   0.238E-02    0.301E-02
DAV:   3    -0.331127564386E+04    0.80672E-05   -0.13876E-05  4160   0.502E-03    0.235E-02
DAV:   4    -0.331127564273E+04    0.11339E-05   -0.35279E-05  4032   0.694E-03    0.495E-03
DAV:   5    -0.331127564287E+04   -0.14424E-06   -0.76368E-06  3904   0.297E-03
 102 F= -.33253266E+04 E0= -.33253266E+04  d E =-.309858E-03
 BRION: g(F)=  0.366E-03 g(S)=  0.000E+00 retain N=  2 mean eig= 0.54
 eig:   0.539  0.547
 bond charge predicted
       N       E                     dE             d eps       ncg     rms          rms(c)
DAV:   1    -0.331127587270E+04   -0.22997E-03   -0.34304E-02  3712   0.210E-01    0.301E-02
DAV:   2    -0.331127591620E+04   -0.43500E-04   -0.59085E-04  4288   0.249E-02    0.298E-02
DAV:   3    -0.331127590992E+04    0.62786E-05   -0.15051E-05  4352   0.457E-03    0.256E-02
DAV:   4    -0.331127590521E+04    0.47147E-05   -0.38649E-05  3936   0.773E-03    0.620E-03
DAV:   5    -0.331127590599E+04   -0.78208E-06   -0.87328E-06  3936   0.328E-03
 103 F= -.33253269E+04 E0= -.33253269E+04  d E =-.262084E-03
 BRION: g(F)=  0.679E-03 g(S)=  0.000E+00 retain N=  2 mean eig= 0.78
 eig:   0.228  1.322
 bond charge predicted
       N       E                     dE             d eps       ncg     rms          rms(c)
DAV:   1    -0.331127586142E+04    0.43791E-04   -0.53252E-03  3680   0.884E-02    0.140E-02
DAV:   2    -0.331127587083E+04   -0.94087E-05   -0.13617E-04  4224   0.127E-02    0.143E-02
DAV:   3    -0.331127587004E+04    0.78371E-06   -0.46077E-06  3712   0.226E-03
 104 F= -.33253269E+04 E0= -.33253269E+04  d E =0.333017E-04
 BRION: g(F)=  0.623E-03 g(S)=  0.000E+00 retain N=  2 mean eig= 0.61
 eig:   0.197  1.018
 bond charge predicted
       N       E                     dE             d eps       ncg     rms          rms(c)
DAV:   1    -0.331127605203E+04   -0.18121E-03   -0.12099E-02  3776   0.126E-01    0.157E-02
DAV:   2    -0.331127607042E+04   -0.18386E-04   -0.22761E-04  4192   0.155E-02    0.157E-02
DAV:   3    -0.331127606888E+04    0.15340E-05   -0.61438E-06  4096   0.278E-03    0.139E-02
DAV:   4    -0.331127606681E+04    0.20743E-05   -0.12329E-05  3712   0.446E-03    0.390E-03
DAV:   5    -0.331127606708E+04   -0.27264E-06   -0.28198E-06  2944   0.198E-03
 105 F= -.33253270E+04 E0= -.33253270E+04  d E =-.195484E-03
 BRION: g(F)=  0.312E-03 g(S)=  0.000E+00 retain N=  2 mean eig= 0.70
 eig:   0.199  1.192
 bond charge predicted
       N       E                     dE             d eps       ncg     rms          rms(c)
DAV:   1    -0.331127633967E+04   -0.27286E-03   -0.35290E-02  3712   0.210E-01    0.301E-02
DAV:   2    -0.331127638069E+04   -0.41016E-04   -0.56545E-04  4224   0.241E-02    0.294E-02
DAV:   3    -0.331127637362E+04    0.70703E-05   -0.13737E-05  4224   0.475E-03    0.240E-02
DAV:   4    -0.331127637151E+04    0.21121E-05   -0.36340E-05  3904   0.715E-03    0.513E-03
DAV:   5    -0.331127637185E+04   -0.34785E-06   -0.75159E-06  3872   0.294E-03
 106 F= -.33253274E+04 E0= -.33253274E+04  d E =-.302885E-03
 BRION: g(F)=  0.306E-03 g(S)=  0.000E+00 retain N=  3 mean eig= 0.70
 eig:   0.181  0.728  1.191
 bond charge predicted
       N       E                     dE             d eps       ncg     rms          rms(c)
DAV:   1    -0.331127655156E+04   -0.18006E-03   -0.16322E-02  3712   0.144E-01    0.206E-02
DAV:   2    -0.331127657187E+04   -0.20306E-04   -0.27338E-04  4256   0.169E-02    0.203E-02
DAV:   3    -0.331127656895E+04    0.29211E-05   -0.65356E-06  3872   0.314E-03    0.172E-02
DAV:   4    -0.331127656790E+04    0.10484E-05   -0.18341E-05  3744   0.523E-03    0.377E-03
DAV:   5    -0.331127656812E+04   -0.21490E-06   -0.36774E-06  3168   0.218E-03
 107 F= -.33253275E+04 E0= -.33253275E+04  d E =-.197160E-03
 BRION: g(F)=  0.342E-03 g(S)=  0.000E+00 retain N=  1 mean eig= 0.23
 eig:   0.229
 bond charge predicted
       N       E                     dE             d eps       ncg     rms          rms(c)
DAV:   1    -0.331127672678E+04   -0.15888E-03   -0.10925E-02  3776   0.118E-01    0.168E-02
DAV:   2    -0.331127674020E+04   -0.13422E-04   -0.18135E-04  4288   0.137E-02    0.165E-02
DAV:   3    -0.331127673819E+04    0.20087E-05   -0.42326E-06  3520   0.258E-03    0.139E-02
DAV:   4    -0.331127673750E+04    0.69442E-06   -0.13050E-05  3680   0.437E-03    0.295E-03
DAV:   5    -0.331127673756E+04   -0.66240E-07   -0.24719E-06  2816   0.184E-03
 108 F= -.33253277E+04 E0= -.33253277E+04  d E =-.168042E-03
 BRION: g(F)=  0.292E-03 g(S)=  0.000E+00 retain N=  1 mean eig= 0.21
 eig:   0.210
 bond charge predicted
       N       E                     dE             d eps       ncg     rms          rms(c)
DAV:   1    -0.331127698140E+04   -0.24391E-03   -0.30076E-02  3712   0.194E-01    0.276E-02
DAV:   2    -0.331127701673E+04   -0.35328E-04   -0.48536E-04  4256   0.224E-02    0.270E-02
DAV:   3    -0.331127701082E+04    0.59138E-05   -0.11649E-05  4192   0.432E-03    0.223E-02
DAV:   4    -0.331127700875E+04    0.20728E-05   -0.31561E-05  3840   0.668E-03    0.486E-03
DAV:   5    -0.331127700910E+04   -0.35856E-06   -0.64815E-06  3808   0.274E-03
 109 F= -.33253280E+04 E0= -.33253280E+04  d E =-.270487E-03
 BRION: g(F)=  0.305E-03 g(S)=  0.000E+00 retain N=  2 mean eig= 0.28
 eig:   0.281  0.281
 bond charge predicted
       N       E                     dE             d eps       ncg     rms          rms(c)
DAV:   1    -0.331127710299E+04   -0.94248E-04   -0.41576E-03  3776   0.728E-02    0.106E-02
DAV:   2    -0.331127710847E+04   -0.54744E-05   -0.72136E-05  4352   0.869E-03    0.105E-02
DAV:   3    -0.331127710778E+04    0.68662E-06   -0.15903E-06  2944   0.159E-03
 110 F= -.33253281E+04 E0= -.33253281E+04  d E =-.987588E-04
 BRION: g(F)=  0.318E-03 g(S)=  0.000E+00 retain N=  1 mean eig= 0.04
 eig:   0.039
 bond charge predicted
       N       E                     dE             d eps       ncg     rms          rms(c)
DAV:   1    -0.331127731146E+04   -0.20299E-03   -0.21632E-02  3712   0.165E-01    0.247E-02
DAV:   2    -0.331127733472E+04   -0.23262E-04   -0.33174E-04  4288   0.186E-02    0.238E-02
DAV:   3    -0.331127732992E+04    0.48076E-05   -0.85571E-06  4160   0.399E-03    0.184E-02
DAV:   4    -0.331127732968E+04    0.23842E-06   -0.20853E-05  3808   0.538E-03    0.386E-03
DAV:   5    -0.331127732976E+04   -0.83703E-07   -0.45811E-06  3296   0.234E-03
 111 F= -.33253283E+04 E0= -.33253283E+04  d E =-.220857E-03
 BRION: g(F)=  0.369E-03 g(S)=  0.000E+00 retain N=  2 mean eig= 1.83
 eig:   0.465  3.191
 bond charge predicted
       N       E                     dE             d eps       ncg     rms          rms(c)
DAV:   1    -0.331127741032E+04   -0.80647E-04   -0.15488E-02  3712   0.145E-01    0.211E-02
DAV:   2    -0.331127743331E+04   -0.22982E-04   -0.30776E-04  4256   0.184E-02    0.214E-02
DAV:   3    -0.331127743119E+04    0.21151E-05   -0.97495E-06  4512   0.335E-03    0.196E-02
DAV:   4    -0.331127742591E+04    0.52819E-05   -0.15864E-05  3840   0.560E-03    0.714E-03
DAV:   5    -0.331127742641E+04   -0.50198E-06   -0.72626E-06  3808   0.309E-03
 112 F= -.33253284E+04 E0= -.33253284E+04  d E =-.103026E-03
 BRION: g(F)=  0.973E-03 g(S)=  0.000E+00 retain N=  2 mean eig= 0.30
 eig:   0.203  0.406
 bond charge predicted
       N       E                     dE             d eps       ncg     rms          rms(c)
DAV:   1    -0.331127742459E+04    0.13175E-05   -0.69175E-03  3712   0.101E-01    0.155E-02
DAV:   2    -0.331127743636E+04   -0.11765E-04   -0.16919E-04  4224   0.142E-02    0.158E-02
DAV:   3    -0.331127743525E+04    0.11104E-05   -0.62023E-06  4096   0.262E-03    0.144E-02
DAV:   4    -0.331127743017E+04    0.50761E-05   -0.74258E-06  3872   0.374E-03    0.629E-03
DAV:   5    -0.331127742975E+04    0.41630E-06   -0.42569E-06  3136   0.239E-03
 113 F= -.33253284E+04 E0= -.33253284E+04  d E =0.448864E-05
 BRION: g(F)=  0.438E-03 g(S)=  0.000E+00 retain N=  2 mean eig= 1.43
 eig:   0.204  2.652
 bond charge predicted
       N       E                     dE             d eps       ncg     rms          rms(c)
DAV:   1    -0.331127765469E+04   -0.22452E-03   -0.23210E-02  3712   0.172E-01    0.239E-02
DAV:   2    -0.331127768210E+04   -0.27408E-04   -0.38124E-04  4256   0.199E-02    0.235E-02
DAV:   3    -0.331127767738E+04    0.47112E-05   -0.93497E-06  4192   0.379E-03    0.197E-02
DAV:   4    -0.331127767439E+04    0.29930E-05   -0.25080E-05  3808   0.601E-03    0.461E-03
DAV:   5    -0.331127767477E+04   -0.37474E-06   -0.52570E-06  3520   0.247E-03
 114 F= -.33253287E+04 E0= -.33253287E+04  d E =-.245781E-03
 BRION: g(F)=  0.279E-03 g(S)=  0.000E+00 retain N=  2 mean eig= 0.50
 eig:   0.210  0.786
 bond charge predicted
       N       E                     dE             d eps       ncg     rms          rms(c)
DAV:   1    -0.331127791474E+04   -0.24035E-03   -0.36157E-02  3712   0.214E-01    0.307E-02
DAV:   2    -0.331127795817E+04   -0.43433E-04   -0.59621E-04  4224   0.249E-02    0.301E-02
DAV:   3    -0.331127795104E+04    0.71285E-05   -0.14783E-05  4256   0.477E-03    0.251E-02
DAV:   4    -0.331127794781E+04    0.32369E-05   -0.39802E-05  3936   0.762E-03    0.560E-03
DAV:   5    -0.331127794830E+04   -0.49337E-06   -0.82499E-06  3904   0.316E-03
 115 F= -.33253289E+04 E0= -.33253289E+04  d E =-.272743E-03
 BRION: g(F)=  0.385E-03 g(S)=  0.000E+00 retain N=  3 mean eig= 0.39
 eig:   0.763  0.208  0.208
 bond charge predicted
       N       E                     dE             d eps       ncg     rms          rms(c)
DAV:   1    -0.331127804637E+04   -0.98560E-04   -0.47506E-03  3776   0.789E-02    0.118E-02
DAV:   2    -0.331127805299E+04   -0.66224E-05   -0.89288E-05  4288   0.982E-03    0.118E-02
DAV:   3    -0.331127805218E+04    0.80571E-06   -0.25190E-06  3296   0.183E-03
 116 F= -.33253290E+04 E0= -.33253290E+04  d E =-.104338E-03
 BRION: g(F)=  0.303E-03 g(S)=  0.000E+00 retain N=  1 mean eig= 0.18
 eig:   0.180
 bond charge predicted
       N       E                     dE             d eps       ncg     rms          rms(c)
DAV:   1    -0.331127826534E+04   -0.21236E-03   -0.30967E-02  3712   0.199E-01    0.301E-02
DAV:   2    -0.331127829965E+04   -0.34305E-04   -0.49485E-04  4352   0.228E-02    0.291E-02
DAV:   3    -0.331127829216E+04    0.74861E-05   -0.13505E-05  4224   0.484E-03    0.227E-02
DAV:   4    -0.331127829045E+04    0.17139E-05   -0.30759E-05  3872   0.658E-03    0.522E-03
DAV:   5    -0.331127829076E+04   -0.31048E-06   -0.68800E-06  3712   0.281E-03
 117 F= -.33253293E+04 E0= -.33253293E+04  d E =-.237125E-03
 BRION: g(F)=  0.490E-03 g(S)=  0.000E+00 retain N=  2 mean eig= 0.21
 eig:   0.074  0.352
 bond charge predicted
       N       E                     dE             d eps       ncg     rms          rms(c)
DAV:   1    -0.331127835509E+04   -0.64638E-04   -0.32440E-03  3712   0.677E-02    0.104E-02
DAV:   2    -0.331127836061E+04   -0.55184E-05   -0.75030E-05  4224   0.925E-03    0.106E-02
DAV:   3    -0.331127836021E+04    0.39313E-06   -0.22233E-06  2976   0.168E-03
 118 F= -.33253293E+04 E0= -.33253293E+04  d E =-.703221E-04
 BRION: g(F)=  0.327E-03 g(S)=  0.000E+00 retain N=  1 mean eig= 0.19
 eig:   0.194
 bond charge predicted
       N       E                     dE             d eps       ncg     rms          rms(c)
DAV:   1    -0.331127854878E+04   -0.18818E-03   -0.32677E-02  3712   0.205E-01    0.317E-02
DAV:   2    -0.331127858764E+04   -0.38855E-04   -0.56397E-04  4320   0.245E-02    0.309E-02
DAV:   3    -0.331127857927E+04    0.83675E-05   -0.15505E-05  4288   0.491E-03    0.251E-02
DAV:   4    -0.331127857453E+04    0.47361E-05   -0.39604E-05  3872   0.765E-03    0.590E-03
DAV:   5    -0.331127857506E+04   -0.52829E-06   -0.87053E-06  3904   0.322E-03
 119 F= -.33253295E+04 E0= -.33253295E+04  d E =-.213581E-03
 BRION: g(F)=  0.658E-03 g(S)=  0.000E+00 retain N=  2 mean eig= 0.19
 eig:   0.187  0.187
 bond charge predicted
       N       E                     dE             d eps       ncg     rms          rms(c)
DAV:   1    -0.331127866701E+04   -0.92472E-04   -0.43766E-03  3712   0.785E-02    0.127E-02
DAV:   2    -0.331127867411E+04   -0.71058E-05   -0.10308E-04  4288   0.109E-02    0.129E-02
DAV:   3    -0.331127867340E+04    0.71176E-06   -0.32995E-06  3520   0.197E-03
 120 F= -.33253296E+04 E0= -.33253296E+04  d E =-.997235E-04
 BRION: g(F)=  0.286E-03 g(S)=  0.000E+00 retain N=  1 mean eig= 0.22
 eig:   0.221
 bond charge predicted
       N       E                     dE             d eps       ncg     rms          rms(c)
DAV:   1    -0.331127888474E+04   -0.21063E-03   -0.33310E-02  3712   0.206E-01    0.317E-02
DAV:   2    -0.331127892188E+04   -0.37137E-04   -0.54438E-04  4352   0.239E-02    0.306E-02
DAV:   3    -0.331127891304E+04    0.88387E-05   -0.15089E-05  4224   0.517E-03    0.237E-02
DAV:   4    -0.331127891053E+04    0.25086E-05   -0.35593E-05  3904   0.707E-03    0.539E-03
DAV:   5    -0.331127891084E+04   -0.31036E-06   -0.79479E-06  3904   0.302E-03
 121 F= -.33253299E+04 E0= -.33253299E+04  d E =-.235408E-03
 BRION: g(F)=  0.464E-03 g(S)=  0.000E+00 retain N=  2 mean eig= 0.25
 eig:   0.199  0.297
 bond charge predicted
       N       E                     dE             d eps       ncg     rms          rms(c)
DAV:   1    -0.331127898523E+04   -0.74692E-04   -0.35860E-03  3776   0.704E-02    0.110E-02
DAV:   2    -0.331127899094E+04   -0.57168E-05   -0.79407E-05  4192   0.945E-03    0.112E-02
DAV:   3    -0.331127899039E+04    0.55286E-06   -0.24833E-06  3136   0.176E-03
 122 F= -.33253300E+04 E0= -.33253300E+04  d E =-.813979E-04
 BRION: g(F)=  0.287E-03 g(S)=  0.000E+00 retain N=  1 mean eig= 0.20
 eig:   0.205
 bond charge predicted
       N       E                     dE             d eps       ncg     rms          rms(c)
DAV:   1    -0.331127918837E+04   -0.19742E-03   -0.30150E-02  3712   0.196E-01    0.302E-02
DAV:   2    -0.331127922227E+04   -0.33909E-04   -0.49535E-04  4320   0.229E-02    0.292E-02
DAV:   3    -0.331127921443E+04    0.78494E-05   -0.13630E-05  4224   0.485E-03    0.230E-02
DAV:   4    -0.331127921182E+04    0.26048E-05   -0.34187E-05  3840   0.697E-03    0.513E-03
DAV:   5    -0.331127921208E+04   -0.26298E-06   -0.75107E-06  3840   0.298E-03
 123 F= -.33253302E+04 E0= -.33253302E+04  d E =-.221582E-03
 BRION: g(F)=  0.436E-03 g(S)=  0.000E+00 retain N=  2 mean eig= 0.24
 eig:   0.241  0.241
 bond charge predicted
       N       E                     dE             d eps       ncg     rms          rms(c)
DAV:   1    -0.331127928884E+04   -0.77015E-04   -0.37595E-03  3776   0.717E-02    0.116E-02
DAV:   2    -0.331127929453E+04   -0.56927E-05   -0.82577E-05  4256   0.963E-03    0.117E-02
DAV:   3    -0.331127929375E+04    0.77847E-06   -0.25923E-06  3232   0.182E-03
 124 F= -.33253303E+04 E0= -.33253303E+04  d E =-.819885E-04
 BRION: g(F)=  0.278E-03 g(S)=  0.000E+00 retain N=  1 mean eig= 0.22
 eig:   0.222
 bond charge predicted
       N       E                     dE             d eps       ncg     rms          rms(c)
DAV:   1    -0.331127948526E+04   -0.19073E-03   -0.29559E-02  3712   0.194E-01    0.294E-02
DAV:   2    -0.331127951900E+04   -0.33741E-04   -0.48562E-04  4352   0.226E-02    0.285E-02
DAV:   3    -0.331127951169E+04    0.73055E-05   -0.12944E-05  4224   0.466E-03    0.227E-02
DAV:   4    -0.331127950879E+04    0.29014E-05   -0.32210E-05  3808   0.679E-03    0.522E-03
DAV:   5    -0.331127950916E+04   -0.36426E-06   -0.70294E-06  3744   0.287E-03
 125 F= -.33253305E+04 E0= -.33253305E+04  d E =-.212400E-03
 BRION: g(F)=  0.464E-03 g(S)=  0.000E+00 retain N=  2 mean eig= 0.24
 eig:   0.245  0.245
 bond charge predicted
       N       E                     dE             d eps       ncg     rms          rms(c)
DAV:   1    -0.331127958055E+04   -0.71759E-04   -0.34999E-03  3776   0.696E-02    0.111E-02
DAV:   2    -0.331127958608E+04   -0.55300E-05   -0.78654E-05  4224   0.942E-03    0.112E-02
DAV:   3    -0.331127958545E+04    0.62864E-06   -0.25214E-06  3232   0.177E-03
 126 F= -.33253306E+04 E0= -.33253306E+04  d E =-.787995E-04
 BRION: g(F)=  0.274E-03 g(S)=  0.000E+00 retain N=  1 mean eig= 0.21
 eig:   0.211
 bond charge predicted
       N       E                     dE             d eps       ncg     rms          rms(c)
DAV:   1    -0.331127976997E+04   -0.18389E-03   -0.29479E-02  3712   0.194E-01    0.299E-02
DAV:   2    -0.331127980329E+04   -0.33324E-04   -0.48886E-04  4320   0.227E-02    0.290E-02
DAV:   3    -0.331127979538E+04    0.79139E-05   -0.13506E-05  4224   0.481E-03    0.228E-02
DAV:   4    -0.331127979233E+04    0.30418E-05   -0.34030E-05  3808   0.697E-03    0.512E-03
DAV:   5    -0.331127979263E+04   -0.29465E-06   -0.74344E-06  3776   0.295E-03
 127 F= -.33253308E+04 E0= -.33253308E+04  d E =-.207958E-03
 BRION: g(F)=  0.441E-03 g(S)=  0.000E+00 retain N=  2 mean eig= 0.24
 eig:   0.243  0.243
 bond charge predicted
       N       E                     dE             d eps       ncg     rms          rms(c)
DAV:   1    -0.331127987061E+04   -0.78277E-04   -0.38223E-03  3776   0.721E-02    0.120E-02
DAV:   2    -0.331127987628E+04   -0.56679E-05   -0.84649E-05  4224   0.974E-03    0.120E-02
DAV:   3    -0.331127987528E+04    0.99698E-06   -0.28090E-06  3264   0.190E-03
 128 F= -.33253308E+04 E0= -.33253308E+04  d E =-.821302E-04
 BRION: g(F)=  0.263E-03 g(S)=  0.000E+00 retain N=  1 mean eig= 0.23
 eig:   0.228
 bond charge predicted
       N       E                     dE             d eps       ncg     rms          rms(c)
DAV:   1    -0.331128005847E+04   -0.18219E-03   -0.28855E-02  3712   0.192E-01    0.290E-02
DAV:   2    -0.331128009141E+04   -0.32940E-04   -0.47447E-04  4352   0.224E-02    0.282E-02
DAV:   3    -0.331128008422E+04    0.71941E-05   -0.12597E-05  4224   0.460E-03    0.224E-02
DAV:   4    -0.331128008125E+04    0.29667E-05   -0.31170E-05  3808   0.667E-03    0.523E-03
DAV:   5    -0.331128008163E+04   -0.38312E-06   -0.67967E-06  3616   0.281E-03
 129 F= -.33253311E+04 E0= -.33253311E+04  d E =-.202786E-03
 BRION: g(F)=  0.452E-03 g(S)=  0.000E+00 retain N=  2 mean eig= 0.24
 eig:   0.186  0.298
 bond charge predicted
       N       E                     dE             d eps       ncg     rms          rms(c)
DAV:   1    -0.331128015088E+04   -0.69630E-04   -0.34292E-03  3776   0.688E-02    0.111E-02
DAV:   2    -0.331128015624E+04   -0.53562E-05   -0.77197E-05  4224   0.933E-03    0.112E-02
DAV:   3    -0.331128015553E+04    0.70850E-06   -0.24690E-06  3168   0.177E-03
 soft stop encountered!  aborting job ...
 130 F= -.33253311E+04 E0= -.33253311E+04  d E =-.768612E-04
 BRION: g(F)=  0.260E-03 g(S)=  0.000E+00 retain N=  1 mean eig= 0.21
 eig:   0.211
 deleting file STOPCAR
 PROFILE, used timers:     329
