 running  256 mpi-ranks, with    1 threads/rank, on    7 nodes
 distrk:  each k-point on  128 cores,    2 groups
 distr:  one band on    4 cores,   32 groups
 vasp.6.4.1 05Apr23 (build May 18 2023 13:19:41) complex                         
 POSCAR found type information on POSCAR C S 
 POSCAR found :  2 types and     365 ions
 Reading from existing POTCAR
 scaLAPACK will be used
 Reading from existing POTCAR
 -----------------------------------------------------------------------------
|                                                                             |
|               ----> ADVICE to this user running VASP <----                  |
|                                                                             |
|     You have a (more or less) 'large supercell' and for larger cells it     |
|     might be more efficient to use real-space projection operators.         |
|     Therefore, try LREAL= Auto in the INCAR file.                           |
|     Mind: If you want to do very accurate calculations, keep the            |
|     reciprocal projection scheme (i.e. LREAL=.FALSE.).                      |
|                                                                             |
 -----------------------------------------------------------------------------

 LDA part: xc-table for Pade appr. of Perdew
 POSCAR, INCAR and KPOINTS ok, starting setup
 FFT: planning ... GRIDC
 FFT: planning ... GRID_SOFT
 FFT: planning ... GRID
 WAVECAR not read
 charge-density read from file: 01_AOPT                                 
 WARNING: random wavefunctions but no delay for mixing, default for NELMDL
 entering main loop
       N       E                     dE             d eps       ncg     rms          rms(c)
DAV:   1     0.111703411761E+05    0.11170E+05   -0.41293E+05  4288   0.930E+02
DAV:   2     0.368865484959E+03   -0.10801E+05   -0.10033E+05  5600   0.210E+02
DAV:   3    -0.301135169753E+04   -0.33802E+04   -0.32321E+04  4672   0.114E+02
DAV:   4    -0.330111770269E+04   -0.28977E+03   -0.28290E+03  4608   0.379E+01
DAV:   5    -0.331103552485E+04   -0.99178E+01   -0.97683E+01  5056   0.661E+00    0.136E-01
DAV:   6    -0.331127319404E+04   -0.23767E+00   -0.23540E+00  4736   0.104E+00    0.328E-02
DAV:   7    -0.331127996550E+04   -0.67715E-02   -0.66980E-02  4832   0.189E-01    0.311E-02
DAV:   8    -0.331128020697E+04   -0.24148E-03   -0.26740E-03  4736   0.361E-02    0.263E-02
DAV:   9    -0.331128019386E+04    0.13111E-04   -0.10562E-04  4544   0.845E-03    0.195E-02
DAV:  10    -0.331128018095E+04    0.12917E-04   -0.12516E-05  4448   0.366E-03    0.129E-02
DAV:  11    -0.331128016952E+04    0.11428E-04   -0.32669E-06  3648   0.225E-03    0.707E-03
DAV:  12    -0.331128015870E+04    0.10818E-04   -0.20894E-06  3008   0.181E-03    0.192E-03
DAV:  13    -0.331128015585E+04    0.28510E-05   -0.54367E-07  2752   0.927E-04    0.937E-04
DAV:  14    -0.331128015515E+04    0.69698E-06   -0.63282E-08  2528   0.483E-04
   1 F= -.33253311E+04 E0= -.33253311E+04  d E =-.332533E+04
 BRION: g(F)=  0.252E-03 g(S)=  0.000E+00
 bond charge predicted
       N       E                     dE             d eps       ncg     rms          rms(c)
DAV:   1    -0.331128031481E+04   -0.15897E-03   -0.30370E-02  4064   0.198E-01    0.283E-02
DAV:   2    -0.331128035287E+04   -0.38056E-04   -0.53088E-04  4448   0.237E-02    0.281E-02
DAV:   3    -0.331128034696E+04    0.59137E-05   -0.14469E-05  4448   0.437E-03    0.243E-02
DAV:   4    -0.331128034014E+04    0.68123E-05   -0.32781E-05  4000   0.705E-03    0.684E-03
DAV:   5    -0.331128034092E+04   -0.77172E-06   -0.77676E-06  3968   0.303E-03
   2 F= -.33253313E+04 E0= -.33253313E+04  d E =-.184528E-03
 BRION: g(F)=  0.662E-03 g(S)=  0.000E+00 retain N=  1 mean eig= 0.20
 eig:   0.203
 bond charge predicted
       N       E                     dE             d eps       ncg     rms          rms(c)
DAV:   1    -0.331128042162E+04   -0.81474E-04   -0.33623E-03  3872   0.694E-02    0.109E-02
DAV:   2    -0.331128042735E+04   -0.57296E-05   -0.80461E-05  4320   0.961E-03    0.111E-02
DAV:   3    -0.331128042676E+04    0.58603E-06   -0.24756E-06  3008   0.177E-03
   3 F= -.33253314E+04 E0= -.33253314E+04  d E =-.871051E-04
 BRION: g(F)=  0.233E-03 g(S)=  0.000E+00 retain N=  1 mean eig= 0.20
 eig:   0.198
 bond charge predicted
       N       E                     dE             d eps       ncg     rms          rms(c)
DAV:   1    -0.331128062487E+04   -0.19752E-03   -0.27822E-02  3936   0.187E-01    0.290E-02
DAV:   2    -0.331128065462E+04   -0.29744E-04   -0.44066E-04  4384   0.214E-02    0.278E-02
DAV:   3    -0.331128064717E+04    0.74421E-05   -0.12303E-05  4192   0.490E-03    0.210E-02
DAV:   4    -0.331128064618E+04    0.99489E-06   -0.29186E-05  4064   0.629E-03    0.460E-03
DAV:   5    -0.331128064629E+04   -0.11281E-06   -0.65636E-06  3712   0.272E-03
   4 F= -.33253316E+04 E0= -.33253316E+04  d E =-.219563E-03
 BRION: g(F)=  0.242E-03 g(S)=  0.000E+00 retain N=  2 mean eig= 0.25
 eig:   0.340  0.158
 bond charge predicted
       N       E                     dE             d eps       ncg     rms          rms(c)
DAV:   1    -0.331128073993E+04   -0.93748E-04   -0.68875E-03  3904   0.945E-02    0.140E-02
DAV:   2    -0.331128074909E+04   -0.91657E-05   -0.12498E-04  4384   0.115E-02    0.139E-02
DAV:   3    -0.331128074784E+04    0.12575E-05   -0.31817E-06  3328   0.210E-03    0.122E-02
DAV:   4    -0.331128074664E+04    0.11957E-05   -0.11352E-05  3776   0.421E-03    0.274E-03
DAV:   5    -0.331128074669E+04   -0.49011E-07   -0.20401E-06  2848   0.177E-03
   5 F= -.33253317E+04 E0= -.33253317E+04  d E =-.100390E-03
 BRION: g(F)=  0.268E-03 g(S)=  0.000E+00 retain N=  1 mean eig= 0.21
 eig:   0.209
 bond charge predicted
       N       E                     dE             d eps       ncg     rms          rms(c)
DAV:   1    -0.331128087910E+04   -0.13246E-03   -0.13882E-02  3840   0.134E-01    0.192E-02
DAV:   2    -0.331128089650E+04   -0.17398E-04   -0.23860E-04  4320   0.159E-02    0.190E-02
DAV:   3    -0.331128089384E+04    0.26581E-05   -0.60351E-06  3968   0.296E-03    0.162E-02
DAV:   4    -0.331128089181E+04    0.20347E-05   -0.15119E-05  3648   0.477E-03    0.421E-03
DAV:   5    -0.331128089212E+04   -0.31455E-06   -0.32531E-06  2976   0.203E-03
   6 F= -.33253319E+04 E0= -.33253319E+04  d E =-.145036E-03
 BRION: g(F)=  0.329E-03 g(S)=  0.000E+00 retain N=  2 mean eig= 0.09
 eig:   0.163  0.014
 bond charge predicted
       N       E                     dE             d eps       ncg     rms          rms(c)
DAV:   1    -0.331128094371E+04   -0.51901E-04   -0.16624E-03  3840   0.477E-02    0.722E-03
DAV:   2    -0.331128094625E+04   -0.25403E-05   -0.34300E-05  4288   0.618E-03    0.726E-03
DAV:   3    -0.331128094596E+04    0.29115E-06   -0.77806E-07  2304   0.115E-03
   7 F= -.33253319E+04 E0= -.33253319E+04  d E =-.542402E-04
 BRION: g(F)=  0.220E-03 g(S)=  0.000E+00 retain N=  2 mean eig= 2.30
 eig:   0.252  4.344
 bond charge predicted
       N       E                     dE             d eps       ncg     rms          rms(c)
DAV:   1    -0.331128110463E+04   -0.15838E-03   -0.17981E-02  3840   0.151E-01    0.226E-02
DAV:   2    -0.331128112409E+04   -0.19457E-04   -0.28137E-04  4288   0.171E-02    0.218E-02
DAV:   3    -0.331128111970E+04    0.43857E-05   -0.71491E-06  4128   0.371E-03    0.169E-02
DAV:   4    -0.331128111897E+04    0.73237E-06   -0.18889E-05  3744   0.509E-03    0.362E-03
DAV:   5    -0.331128111903E+04   -0.58673E-07   -0.40872E-06  3008   0.220E-03
   8 F= -.33253321E+04 E0= -.33253321E+04  d E =-.172975E-03
 BRION: g(F)=  0.228E-03 g(S)=  0.000E+00 retain N=  2 mean eig= 0.50
 eig:   0.385  0.605
 bond charge predicted
       N       E                     dE             d eps       ncg     rms          rms(c)
DAV:   1    -0.331128122720E+04   -0.10824E-03   -0.10938E-02  3840   0.119E-01    0.174E-02
DAV:   2    -0.331128124137E+04   -0.14164E-04   -0.19511E-04  4352   0.144E-02    0.173E-02
DAV:   3    -0.331128123930E+04    0.20702E-05   -0.50751E-06  3712   0.264E-03    0.151E-02
DAV:   4    -0.331128123724E+04    0.20631E-05   -0.16664E-05  3776   0.507E-03    0.348E-03
DAV:   5    -0.331128123737E+04   -0.13364E-06   -0.31239E-06  2976   0.214E-03
   9 F= -.33253322E+04 E0= -.33253322E+04  d E =-.118434E-03
 BRION: g(F)=  0.323E-03 g(S)=  0.000E+00 retain N=  2 mean eig= 1.68
 eig:   0.255  3.105
 bond charge predicted
       N       E                     dE             d eps       ncg     rms          rms(c)
DAV:   1    -0.331128131901E+04   -0.81774E-04   -0.66746E-03  3840   0.949E-02    0.140E-02
DAV:   2    -0.331128132856E+04   -0.95504E-05   -0.12981E-04  4320   0.119E-02    0.140E-02
DAV:   3    -0.331128132742E+04    0.11428E-05   -0.36968E-06  3520   0.217E-03    0.124E-02
DAV:   4    -0.331128132547E+04    0.19429E-05   -0.73642E-06  3648   0.348E-03    0.414E-03
DAV:   5    -0.331128132566E+04   -0.18964E-06   -0.18553E-06  2560   0.162E-03
  10 F= -.33253323E+04 E0= -.33253323E+04  d E =-.881536E-04
 BRION: g(F)=  0.367E-03 g(S)=  0.000E+00 retain N=  2 mean eig= 0.27
 eig:   0.205  0.335
 bond charge predicted
       N       E                     dE             d eps       ncg     rms          rms(c)
DAV:   1    -0.331128139634E+04   -0.70865E-04   -0.27450E-03  3840   0.606E-02    0.900E-03
DAV:   2    -0.331128140019E+04   -0.38468E-05   -0.52579E-05  4224   0.761E-03    0.900E-03
DAV:   3    -0.331128139968E+04    0.50559E-06   -0.13351E-06  2496   0.144E-03
  11 F= -.33253324E+04 E0= -.33253324E+04  d E =-.743576E-04
 BRION: g(F)=  0.217E-03 g(S)=  0.000E+00 retain N=  2 mean eig= 1.23
 eig:   0.216  2.236
 bond charge predicted
       N       E                     dE             d eps       ncg     rms          rms(c)
DAV:   1    -0.331128156733E+04   -0.16715E-03   -0.21241E-02  3776   0.164E-01    0.248E-02
DAV:   2    -0.331128159008E+04   -0.22751E-04   -0.32939E-04  4288   0.185E-02    0.238E-02
DAV:   3    -0.331128158488E+04    0.52063E-05   -0.85954E-06  4128   0.409E-03    0.183E-02
DAV:   4    -0.331128158417E+04    0.70361E-06   -0.21943E-05  3808   0.548E-03    0.389E-03
DAV:   5    -0.331128158423E+04   -0.52620E-07   -0.48303E-06  3168   0.239E-03
  12 F= -.33253326E+04 E0= -.33253326E+04  d E =-.184103E-03
 BRION: g(F)=  0.219E-03 g(S)=  0.000E+00 retain N=  2 mean eig= 0.55
 eig:   0.444  0.647
 bond charge predicted
       N       E                     dE             d eps       ncg     rms          rms(c)
DAV:   1    -0.331128168787E+04   -0.10370E-03   -0.11299E-02  3776   0.121E-01    0.179E-02
DAV:   2    -0.331128170257E+04   -0.14700E-04   -0.20460E-04  4352   0.148E-02    0.178E-02
DAV:   3    -0.331128170032E+04    0.22457E-05   -0.54647E-06  3808   0.273E-03    0.155E-02
DAV:   4    -0.331128169792E+04    0.24060E-05   -0.18228E-05  3744   0.529E-03    0.352E-03
DAV:   5    -0.331128169805E+04   -0.13225E-06   -0.33572E-06  3040   0.221E-03
  13 F= -.33253327E+04 E0= -.33253327E+04  d E =-.114574E-03
 BRION: g(F)=  0.326E-03 g(S)=  0.000E+00 retain N=  2 mean eig= 1.26
 eig:   0.269  2.244
 bond charge predicted
       N       E                     dE             d eps       ncg     rms          rms(c)
DAV:   1    -0.331128178432E+04   -0.86404E-04   -0.72531E-03  3776   0.987E-02    0.146E-02
DAV:   2    -0.331128179451E+04   -0.10190E-04   -0.13946E-04  4320   0.124E-02    0.146E-02
DAV:   3    -0.331128179321E+04    0.13047E-05   -0.39828E-06  3520   0.227E-03    0.129E-02
DAV:   4    -0.331128179114E+04    0.20631E-05   -0.84718E-06  3648   0.370E-03    0.404E-03
DAV:   5    -0.331128179134E+04   -0.19942E-06   -0.19784E-06  2592   0.166E-03
  14 F= -.33253328E+04 E0= -.33253328E+04  d E =-.933335E-04
 BRION: g(F)=  0.351E-03 g(S)=  0.000E+00 retain N=  2 mean eig= 0.39
 eig:   0.212  0.570
 bond charge predicted
       N       E                     dE             d eps       ncg     rms          rms(c)
DAV:   1    -0.331128185052E+04   -0.59375E-04   -0.20341E-03  3776   0.526E-02    0.791E-03
DAV:   2    -0.331128185351E+04   -0.29958E-05   -0.40821E-05  4224   0.674E-03    0.793E-03
DAV:   3    -0.331128185314E+04    0.37602E-06   -0.99203E-07  2368   0.126E-03
  15 F= -.33253328E+04 E0= -.33253328E+04  d E =-.619452E-04
 BRION: g(F)=  0.206E-03 g(S)=  0.000E+00 retain N=  2 mean eig= 1.00
 eig:   0.216  1.777
 reached required accuracy - stopping structural energy minimisation
 PROFILE, used timers:     333
