 running  128 mpi-ranks, with    1 threads/rank, on    2 nodes
 distrk:  each k-point on   64 cores,    2 groups
 distr:  one band on    4 cores,   16 groups
 vasp.6.4.2 20Jul23 (build Oct 12 2023 10:31:02) complex                         
 POSCAR found type information on POSCAR GeSe
 POSCAR found :  2 types and       8 ions
 Reading from existing POTCAR
 scaLAPACK will be used
 Reading from existing POTCAR
 LDA part: xc-table for Pade appr. of Perdew
 POSCAR, INCAR and KPOINTS ok, starting setup
 FFT: planning ... GRIDC
 FFT: planning ... GRID_SOFT
 FFT: planning ... GRID
 WAVECAR not read
 entering main loop
       N       E                     dE             d eps       ncg     rms          rms(c)
DAV:   1     0.130562474041E+03    0.13056E+03   -0.12880E+04  2560   0.773E+02
DAV:   2    -0.255780643946E+02   -0.15614E+03   -0.15146E+03  3792   0.138E+02
DAV:   3    -0.341718061104E+02   -0.85937E+01   -0.85769E+01  3088   0.377E+01
DAV:   4    -0.342299991529E+02   -0.58193E-01   -0.58186E-01  3360   0.357E+00
DAV:   5    -0.342303536618E+02   -0.35451E-03   -0.35451E-03  3168   0.270E-01    0.638E+00
DAV:   6    -0.338357592396E+02    0.39459E+00   -0.80511E-01  3088   0.302E+00    0.401E+00
DAV:   7    -0.338236882346E+02    0.12071E-01   -0.23534E-01  2816   0.172E+00    0.133E+00
DAV:   8    -0.338223815818E+02    0.13067E-02   -0.22844E-02  3008   0.574E-01    0.179E-01
DAV:   9    -0.338226058672E+02   -0.22429E-03   -0.36469E-03  3264   0.259E-01    0.656E-02
DAV:  10    -0.338226937251E+02   -0.87858E-04   -0.28799E-04  2992   0.733E-02    0.237E-02
DAV:  11    -0.338227169376E+02   -0.23213E-04   -0.37117E-05  2832   0.277E-02    0.126E-02
DAV:  12    -0.338227170452E+02   -0.10760E-06   -0.53531E-06  3408   0.989E-03
   1 F= -.33822717E+02 E0= -.33822717E+02  d E =-.829214E-13
