 vasp.6.4.2 20Jul23 (build Oct 12 2023 10:31:02) complex                         
 executed on              LinuxNV date 2025.05.28  05:03:46
 running  128 mpi-ranks, with    1 threads/rank, on    2 nodes
 distrk:  each k-point on   64 cores,    2 groups
 distr:  one band on NCORE=   4 cores,   16 groups


--------------------------------------------------------------------------------------------------------


 INCAR:
   ENCUT = 360.000000
   SIGMA = 0.050000
   EDIFF = 1.00e-06
   ALGO = Normal
   GGA = PE
   PREC = Normal
   SYSTEM = ./
   ICHARG = 2
   ISMEAR = 0
   ISPIN = 1
   ISTART = 0
   ISYM = 0
   KPAR = 2
   LMAXMIX = 4
   NELM = 100
   NPAR = 16
   LASPH = .TRUE.
   LCHARG = .FALSE.
   LWAVE = .FALSE.

 POTCAR:    PAW_PBE Ge 05Jan2001                  
 POTCAR:    PAW_PBE Se 06Sep2000                  
 POTCAR:    PAW_PBE Ge 05Jan2001                  
   VRHFIN =Ge: s2p2                                                                                 
   LEXCH  = PE                                                                                      
   EATOM  =   104.9960 eV,    7.7170 Ry                                                             
                                                                                                    
   TITEL  = PAW_PBE Ge 05Jan2001                                                                    
   LULTRA =        F    use ultrasoft PP ?                                                          
   IUNSCR =        1    unscreen: 0-lin 1-nonlin 2-no                                               
   RPACOR =    2.170    partial core radius                                                         
   POMASS =   72.610; ZVAL   =    4.000    mass and valenz                                          
   RCORE  =    2.300    outmost cutoff radius                                                       
   RWIGS  =    2.300; RWIGS  =    1.217    wigner-seitz radius (au A)                               
   ENMAX  =  173.807; ENMIN  =  130.355 eV                                                          
   ICORE  =        3    local potential                                                             
   LCOR   =        T    correct aug charges                                                         
   LPAW   =        T    paw PP                                                                      
   EAUG   =  385.843                                                                                
   DEXC   =    0.000                                                                                
   RMAX   =    2.342    core radius for proj-oper                                                   
   RAUG   =    1.300    factor for augmentation sphere                                              
   RDEP   =    2.318    radius for radial grids                                                     
   RDEPT  =    2.103    core radius for aug-charge                                                  
                                                                                                    
   Atomic configuration                                                                             
   10 entries                                                                                       
     n  l   j            E        occ.                                                              
     1  0  0.50    -10959.8463   2.0000                                                             
     2  0  0.50     -1371.6056   2.0000                                                             
     2  1  1.50     -1198.4791   6.0000                                                             
     3  0  0.50      -168.4733   2.0000                                                             
     3  1  1.50      -115.6019   6.0000                                                             
     3  2  2.50       -29.3106  10.0000                                                             
     4  0  0.50       -11.7309   2.0000                                                             
     4  1  0.50        -3.8952   2.0000                                                             
     4  2  1.50        -4.0817   0.0000                                                             
     4  3  2.50        -4.0817   0.0000                                                             
   Description                                                                                      
     l       E           TYP  RCUT    TYP  RCUT                                                     
     0    -11.7309493     23  2.300                                                                 
     0     -7.4578696     23  2.300                                                                 
     1     -3.8952261     23  2.300                                                                 
     1      6.1178114     23  2.300                                                                 
     2     -4.0817478     23  2.300                                                                 
     3     -1.3605826      7  2.300                                                                 
  local pseudopotential read in
  partial core-charges read in
  partial kinetic energy density read in
  atomic valenz-charges read in
  non local Contribution for L=            0  read in
    real space projection operators read in
  non local Contribution for L=            0  read in
    real space projection operators read in
  non local Contribution for L=            1  read in
    real space projection operators read in
  non local Contribution for L=            1  read in
    real space projection operators read in
  non local Contribution for L=            2  read in
    real space projection operators read in
    PAW grid and wavefunctions read in
 
   number of l-projection  operators is LMAX  =            5
   number of lm-projection operators is LMMAX =           13
 
 POTCAR:    PAW_PBE Se 06Sep2000                  
   VRHFIN =Se: s2p4                                                                                 
   LEXCH  = PE                                                                                      
   EATOM  =   257.1286 eV,   18.8984 Ry                                                             
                                                                                                    
   TITEL  = PAW_PBE Se 06Sep2000                                                                    
   LULTRA =        F    use ultrasoft PP ?                                                          
   IUNSCR =        1    unscreen: 0-lin 1-nonlin 2-no                                               
   RPACOR =    1.900    partial core radius                                                         
   POMASS =   78.960; ZVAL   =    6.000    mass and valenz                                          
   RCORE  =    2.100    outmost cutoff radius                                                       
   RWIGS  =    2.200; RWIGS  =    1.164    wigner-seitz radius (au A)                               
   ENMAX  =  211.555; ENMIN  =  158.666 eV                                                          
   ICORE  =        3    local potential                                                             
   LCOR   =        T    correct aug charges                                                         
   LPAW   =        T    paw PP                                                                      
   EAUG   =  446.842                                                                                
   DEXC   =    0.000                                                                                
   RMAX   =    2.147    core radius for proj-oper                                                   
   RAUG   =    1.300    factor for augmentation sphere                                              
   RDEP   =    2.177    radius for radial grids                                                     
   RDEPT  =    1.928    core radius for aug-charge                                                  
                                                                                                    
   Atomic configuration                                                                             
   10 entries                                                                                       
     n  l   j            E        occ.                                                              
     1  0  0.50    -12503.4787   2.0000                                                             
     2  0  0.50     -1606.9547   2.0000                                                             
     2  1  1.50     -1413.3140   6.0000                                                             
     3  0  0.50      -213.4885   2.0000                                                             
     3  1  1.50      -152.9538   6.0000                                                             
     3  2  2.50       -53.1221  10.0000                                                             
     4  0  0.50       -17.2865   2.0000                                                             
     4  1  0.50        -6.5110   4.0000                                                             
     4  2  2.50        -6.8029   0.0000                                                             
     4  3  2.50        -6.8029   0.0000                                                             
   Description                                                                                      
     l       E           TYP  RCUT    TYP  RCUT                                                     
     0    -17.2865377     23  2.100                                                                 
     0    -15.3094411     23  2.100                                                                 
     1     -6.5110275     23  2.100                                                                 
     1     -0.0695192     23  2.100                                                                 
     2     -6.8029130     23  2.100                                                                 
     3     -1.3605826      7  2.100                                                                 
  local pseudopotential read in
  partial core-charges read in
  partial kinetic energy density read in
  atomic valenz-charges read in
  non local Contribution for L=            0  read in
    real space projection operators read in
  non local Contribution for L=            0  read in
    real space projection operators read in
  non local Contribution for L=            1  read in
    real space projection operators read in
  non local Contribution for L=            1  read in
    real space projection operators read in
  non local Contribution for L=            2  read in
    real space projection operators read in
    PAW grid and wavefunctions read in
 
   number of l-projection  operators is LMAX  =            5
   number of lm-projection operators is LMMAX =           13
 
  PAW_PBE Ge 05Jan2001                  :
 energy of atom  1       EATOM= -104.9960
 kinetic energy error for atom=    0.0005 (will be added to EATOM!!)
  PAW_PBE Se 06Sep2000                  :
 energy of atom  2       EATOM= -257.1286
 kinetic energy error for atom=    0.0030 (will be added to EATOM!!)
 
 
 POSCAR: Ge Se
  positions in cartesian coordinates
  No initial velocities read in
 exchange correlation table for  LEXCH =        8
   RHO(1)=    0.500       N(1)  =     2000
   RHO(2)=  100.500       N(2)  =     4000
 


--------------------------------------------------------------------------------------------------------


 ion  position               nearest neighbor table
   1  0.000  0.250  0.139-   5 2.50
   2  0.500  0.750  0.361-   6 2.50
   3  0.000  0.750  0.861-   7 2.50
   4  0.500  0.250  0.639-   8 2.50
   5  0.000  0.250  0.364-   1 2.50
   6  0.500  0.750  0.136-   2 2.50
   7  0.000  0.750  0.636-   3 2.50
   8  0.500  0.250  0.864-   4 2.50
 

IMPORTANT INFORMATION: All symmetrisations will be switched off!
NOSYMM: (Re-)initialisation of all symmetry stuff for point group C_1.


----------------------------------------------------------------------------------------

                                     Primitive cell                                     

  volume of cell :     191.8969

  direct lattice vectors                    reciprocal lattice vectors
     4.150000000  0.000000000  0.000000000     0.240963855  0.000000000  0.000000000
     0.000000000  4.150000000  0.000000000     0.000000000  0.240963855  0.000000000
     0.000000000  0.000000000 11.142221000     0.000000000  0.000000000  0.089748713

  length of vectors
     4.150000000  4.150000000 11.142221000     0.240963855  0.240963855  0.089748713

  position of ions in fractional coordinates (direct lattice)
     0.000000000  0.250000000  0.138947057
     0.500000000  0.750000000  0.361052943
     0.000000000  0.750000000  0.861052943
     0.500000000  0.250000000  0.638947057
     0.000000000  0.250000000  0.363715992
     0.500000000  0.750000000  0.136284008
     0.000000000  0.750000000  0.636284008
     0.500000000  0.250000000  0.863715992

  ion indices of the primitive-cell ions
   primitive index   ion index
                 1           1
                 2           2
                 3           3
                 4           4
                 5           5
                 6           6
                 7           7
                 8           8

----------------------------------------------------------------------------------------

 
 
 KPOINTS: KPOINTS created by Atomic Simulation Env

Automatic generation of k-mesh.
 Grid dimensions read from file:
 generate k-points for:    6    6    2

 Generating k-lattice:

  Cartesian coordinates                     Fractional coordinates (reciprocal lattice)
     0.040160643  0.000000000  0.000000000     0.166666667  0.000000000  0.000000000
     0.000000000  0.040160643  0.000000000     0.000000000  0.166666667  0.000000000
     0.000000000  0.000000000  0.044874357     0.000000000  0.000000000  0.500000000

  Length of vectors
     0.040160643  0.040160643  0.044874357

  Shift w.r.t. Gamma in fractional coordinates (k-lattice)
     0.000000000  0.000000000  0.000000000

 
 Subroutine IBZKPT returns following result:
 ===========================================
 
 Found     40 irreducible k-points:
 
 Following reciprocal coordinates:
            Coordinates               Weight
  0.000000  0.000000  0.000000      1.000000
  0.166667  0.000000  0.000000      2.000000
  0.000000  0.166667  0.000000      2.000000
  0.333333  0.000000  0.000000      2.000000
  0.000000  0.333333  0.000000      2.000000
  0.500000  0.000000  0.000000      1.000000
  0.000000  0.500000  0.000000      1.000000
  0.166667  0.166667  0.000000      2.000000
 -0.166667  0.166667  0.000000      2.000000
  0.333333  0.166667  0.000000      2.000000
 -0.166667  0.333333  0.000000      2.000000
 -0.333333  0.166667  0.000000      2.000000
  0.166667  0.333333  0.000000      2.000000
  0.500000  0.166667  0.000000      2.000000
 -0.166667  0.500000  0.000000      2.000000
  0.333333  0.333333  0.000000      2.000000
 -0.333333  0.333333  0.000000      2.000000
  0.500000  0.333333  0.000000      2.000000
 -0.333333  0.500000  0.000000      2.000000
  0.500000  0.500000  0.000000      1.000000
  0.000000  0.000000  0.500000      1.000000
  0.166667  0.000000  0.500000      2.000000
  0.000000  0.166667  0.500000      2.000000
  0.333333  0.000000  0.500000      2.000000
  0.000000  0.333333  0.500000      2.000000
  0.500000  0.000000  0.500000      1.000000
  0.000000  0.500000  0.500000      1.000000
  0.166667  0.166667  0.500000      2.000000
 -0.166667  0.166667  0.500000      2.000000
  0.333333  0.166667  0.500000      2.000000
 -0.166667  0.333333  0.500000      2.000000
 -0.333333  0.166667  0.500000      2.000000
  0.166667  0.333333  0.500000      2.000000
  0.500000  0.166667  0.500000      2.000000
 -0.166667  0.500000  0.500000      2.000000
  0.333333  0.333333  0.500000      2.000000
 -0.333333  0.333333  0.500000      2.000000
  0.500000  0.333333  0.500000      2.000000
 -0.333333  0.500000  0.500000      2.000000
  0.500000  0.500000  0.500000      1.000000
 
 Following cartesian coordinates:
            Coordinates               Weight
  0.000000  0.000000  0.000000      1.000000
  0.040161  0.000000  0.000000      2.000000
  0.000000  0.040161  0.000000      2.000000
  0.080321  0.000000  0.000000      2.000000
  0.000000  0.080321  0.000000      2.000000
  0.120482  0.000000  0.000000      1.000000
  0.000000  0.120482  0.000000      1.000000
  0.040161  0.040161  0.000000      2.000000
 -0.040161  0.040161  0.000000      2.000000
  0.080321  0.040161  0.000000      2.000000
 -0.040161  0.080321  0.000000      2.000000
 -0.080321  0.040161  0.000000      2.000000
  0.040161  0.080321  0.000000      2.000000
  0.120482  0.040161  0.000000      2.000000
 -0.040161  0.120482  0.000000      2.000000
  0.080321  0.080321  0.000000      2.000000
 -0.080321  0.080321  0.000000      2.000000
  0.120482  0.080321  0.000000      2.000000
 -0.080321  0.120482  0.000000      2.000000
  0.120482  0.120482  0.000000      1.000000
  0.000000  0.000000  0.044874      1.000000
  0.040161  0.000000  0.044874      2.000000
  0.000000  0.040161  0.044874      2.000000
  0.080321  0.000000  0.044874      2.000000
  0.000000  0.080321  0.044874      2.000000
  0.120482  0.000000  0.044874      1.000000
  0.000000  0.120482  0.044874      1.000000
  0.040161  0.040161  0.044874      2.000000
 -0.040161  0.040161  0.044874      2.000000
  0.080321  0.040161  0.044874      2.000000
 -0.040161  0.080321  0.044874      2.000000
 -0.080321  0.040161  0.044874      2.000000
  0.040161  0.080321  0.044874      2.000000
  0.120482  0.040161  0.044874      2.000000
 -0.040161  0.120482  0.044874      2.000000
  0.080321  0.080321  0.044874      2.000000
 -0.080321  0.080321  0.044874      2.000000
  0.120482  0.080321  0.044874      2.000000
 -0.080321  0.120482  0.044874      2.000000
  0.120482  0.120482  0.044874      1.000000
 


--------------------------------------------------------------------------------------------------------




 Dimension of arrays:
   k-points           NKPTS =     40   k-points in BZ     NKDIM =     40   number of bands    NBANDS=     32
   number of dos      NEDOS =    301   number of ions     NIONS =      8
   non local maximal  LDIM  =      5   non local SUM 2l+1 LMDIM =     13
   total plane-waves  NPLWV =  21600
   max r-space proj   IRMAX =      1   max aug-charges    IRDMAX=   6316
   dimension x,y,z NGX =    20 NGY =   20 NGZ =   54
   dimension x,y,z NGXF=    40 NGYF=   40 NGZF=  108
   support grid    NGXF=    40 NGYF=   40 NGZF=  108
   ions per type =               4   4
   NGX,Y,Z   is equivalent  to a cutoff of   8.01,  8.01,  8.06 a.u.
   NGXF,Y,Z  is equivalent  to a cutoff of  16.02, 16.02, 16.11 a.u.

 SYSTEM =  ./                                      
 POSCAR =  Ge Se                                   

 Startparameter for this run:
   NWRITE =      2    write-flag & timer
   PREC   = normal    normal or accurate (medium, high low for compatibility)
   ISTART =      0    job   : 0-new  1-cont  2-samecut
   ICHARG =      2    charge: 1-file 2-atom 10-const
   ISPIN  =      1    spin polarized calculation?
   LNONCOLLINEAR =      F non collinear calculations
   LSORBIT =      F    spin-orbit coupling
   INIWAV =      1    electr: 0-lowe 1-rand  2-diag
   LASPH  =      T    aspherical Exc in radial PAW
 Electronic Relaxation 1
   ENCUT  =  360.0 eV  26.46 Ry    5.14 a.u.   6.42  6.42 17.24*2*pi/ulx,y,z
   ENINI  =  360.0     initial cutoff
   ENAUG  =  446.8 eV  augmentation charge cutoff
   NELM   =    100;   NELMIN=  2; NELMDL= -5     # of ELM steps 
   EDIFF  = 0.1E-05   stopping-criterion for ELM
   LREAL  =      F    real-space projection
   NLSPLINE    = F    spline interpolate recip. space projectors
   LCOMPAT=      F    compatible to vasp.4.4
   GGA_COMPAT  = T    GGA compatible to vasp.4.4-vasp.4.6
   LMAXPAW     = -100 max onsite density
   LMAXMIX     =    4 max onsite mixed and CHGCAR
   VOSKOWN=      0    Vosko Wilk Nusair interpolation
   ROPT   =    0.00000   0.00000
 Ionic relaxation
   EDIFFG = 0.1E-04   stopping-criterion for IOM
   NSW    =      0    number of steps for IOM
   NBLOCK =      1;   KBLOCK =      1    inner block; outer block 
   IBRION =     -1    ionic relax: 0-MD 1-quasi-New 2-CG
   NFREE  =      0    steps in history (QN), initial steepest desc. (CG)
   ISIF   =      2    stress and relaxation
   IWAVPR =     10    prediction:  0-non 1-charg 2-wave 3-comb
   ISYM   =      0    0-nonsym 1-usesym 2-fastsym
   LCORR  =      T    Harris-Foulkes like correction to forces

   POTIM  = 0.5000    time-step for ionic-motion
   TEIN   =    0.0    initial temperature
   TEBEG  =    0.0;   TEEND  =   0.0 temperature during run
   SMASS  =  -3.00    Nose mass-parameter (am)
   estimated Nose-frequenzy (Omega)   =  0.10E-29 period in steps = 0.13E+47 mass=  -0.394E-27a.u.
   SCALEE = 1.0000    scale energy and forces
   NPACO  =    256;   APACO  = 10.0  distance and # of slots for P.C.
   PSTRESS=    0.0 pullay stress

  Mass of Ions in am
   POMASS =  72.61 78.96
  Ionic Valenz
   ZVAL   =   4.00  6.00
  Atomic Wigner-Seitz radii
   RWIGS  =  -1.00 -1.00
  virtual crystal weights 
   VCA    =   1.00  1.00
   NELECT =      40.0000    total number of electrons
   NUPDOWN=      -1.0000    fix difference up-down

 DOS related values:
   EMIN   =  10.00;   EMAX   =-10.00  energy-range for DOS
   EFERMI =   0.00;   METHOD = LEGACY      
   ISMEAR =     0;   SIGMA  =   0.05  broadening in eV -4-tet -1-fermi 0-gaus

 Electronic relaxation 2 (details)
   IALGO  =     38    algorithm
   LDIAG  =      T    sub-space diagonalisation (order eigenvalues)
   LSUBROT=      F    optimize rotation matrix (better conditioning)
   TURBO    =      0    0=normal 1=particle mesh
   IRESTART =      0    0=no restart 2=restart with 2 vectors
   NREBOOT  =      0    no. of reboots
   NMIN     =      0    reboot dimension
   EREF     =   0.00    reference energy to select bands
   IMIX   =      4    mixing-type and parameters
     AMIX     =   0.40;   BMIX     =  1.00
     AMIX_MAG =   1.60;   BMIX_MAG =  1.00
     AMIN     =   0.10
     WC   =   100.;   INIMIX=   1;  MIXPRE=   1;  MAXMIX= -45

 Intra band minimization:
   WEIMIN = 0.0000     energy-eigenvalue tresh-hold
   EBREAK =  0.78E-08  absolut break condition
   DEPER  =   0.30     relativ break condition  

   TIME   =   0.40     timestep for ELM

  volume/ion in A,a.u.               =      23.99       161.87
  Fermi-wavevector in a.u.,A,eV,Ry     =   0.970671  1.834303 12.819446  0.942203
  Thomas-Fermi vector in A             =   2.100826
 
 Write flags
   LWAVE        =      F    write WAVECAR
   LDOWNSAMPLE  =      F    k-point downsampling of WAVECAR
   LCHARG       =      F    write CHGCAR
   LVTOT        =      F    write LOCPOT, total local potential
   LVHAR        =      F    write LOCPOT, Hartree potential only
   LELF         =      F    write electronic localiz. function (ELF)
   LORBIT       =      0    0 simple, 1 ext, 2 COOP (PROOUT), +10 PAW based schemes


 Dipole corrections
   LMONO  =      F    monopole corrections only (constant potential shift)
   LDIPOL =      F    correct potential (dipole corrections)
   IDIPOL =      0    1-x, 2-y, 3-z, 4-all directions 
   EPSILON=  1.0000000 bulk dielectric constant

 Exchange correlation treatment:
   GGA     =    PE    GGA type
   LEXCH   =     8    internal setting for exchange type
   LIBXC   =     F    Libxc                    
   VOSKOWN =     0    Vosko Wilk Nusair interpolation
   LHFCALC =     F    Hartree Fock is set to
   LHFONE  =     F    Hartree Fock one center treatment
   AEXX    =    0.0000 exact exchange contribution

 Linear response parameters
   LEPSILON=     F    determine dielectric tensor
   LRPA    =     F    only Hartree local field effects (RPA)
   LNABLA  =     F    use nabla operator in PAW spheres
   LVEL    =     F    velocity operator in full k-point grid
   CSHIFT  =0.1000    complex shift for real part using Kramers Kronig
   OMEGAMAX=  -1.0    maximum frequency
   DEG_THRESHOLD= 0.2000000E-02 threshold for treating states as degnerate
   RTIME   =   -0.100 relaxation time in fs
  (WPLASMAI=    0.000 imaginary part of plasma frequency in eV, 0.658/RTIME)
   DFIELD  = 0.0000000 0.0000000 0.0000000 field for delta impulse in time
 
  Optional k-point grid parameters
   LKPOINTS_OPT  =     F    use optional k-point grid
   KPOINTS_OPT_MODE=     1    mode for optional k-point grid
 
 Orbital magnetization related:
   ORBITALMAG=     F  switch on orbital magnetization
   LCHIMAG   =     F  perturbation theory with respect to B field
   DQ        =  0.001000  dq finite difference perturbation B field
   LLRAUG    =     F  two centre corrections for induced B field
   LBONE     =     F  B-component reconstruction in AE one-centre
   LVGVCALC  =     T  calculate vGv susceptibility
   LVGVAPPL  =     F  apply vGv susceptibility instead of pGv for G=0

 Random number generation:
   RANDOM_GENERATOR = DEFAULT
   PCG_SEED         = not used


--------------------------------------------------------------------------------------------------------


 Static calculation
 charge density and potential will be updated during run
 non-spin polarized calculation
 Variant of blocked Davidson
 Davidson routine will perform the subspace rotation
 perform sub-space diagonalisation
    after iterative eigenvector-optimisation
 modified Broyden-mixing scheme, WC =      100.0
 initial mixing is a Kerker type mixing with AMIX =  0.4000 and BMIX =      1.0000
 Hartree-type preconditioning will be used
 using additional bands            12
 reciprocal scheme for non local part
 use partial core corrections
 calculate Harris-corrections to forces 
   (improved forces if not selfconsistent)
 use gradient corrections 
 use of overlap-Matrix (Vanderbilt PP)
 Gauss-broadening in eV      SIGMA  =   0.05


--------------------------------------------------------------------------------------------------------


  energy-cutoff  :      360.00
  volume of cell :      191.90
      direct lattice vectors                 reciprocal lattice vectors
     4.150000000  0.000000000  0.000000000     0.240963855  0.000000000  0.000000000
     0.000000000  4.150000000  0.000000000     0.000000000  0.240963855  0.000000000
     0.000000000  0.000000000 11.142221000     0.000000000  0.000000000  0.089748713

  length of vectors
     4.150000000  4.150000000 11.142221000     0.240963855  0.240963855  0.089748713


 
 k-points in units of 2pi/SCALE and weight: KPOINTS created by Atomic Simulation Env
   0.00000000  0.00000000  0.00000000       0.014
   0.04016064  0.00000000  0.00000000       0.028
   0.00000000  0.04016064  0.00000000       0.028
   0.08032129  0.00000000  0.00000000       0.028
   0.00000000  0.08032129  0.00000000       0.028
   0.12048193  0.00000000  0.00000000       0.014
   0.00000000  0.12048193  0.00000000       0.014
   0.04016064  0.04016064  0.00000000       0.028
  -0.04016064  0.04016064  0.00000000       0.028
   0.08032129  0.04016064  0.00000000       0.028
  -0.04016064  0.08032129  0.00000000       0.028
  -0.08032129  0.04016064  0.00000000       0.028
   0.04016064  0.08032129  0.00000000       0.028
   0.12048193  0.04016064  0.00000000       0.028
  -0.04016064  0.12048193  0.00000000       0.028
   0.08032129  0.08032129  0.00000000       0.028
  -0.08032129  0.08032129  0.00000000       0.028
   0.12048193  0.08032129  0.00000000       0.028
  -0.08032129  0.12048193  0.00000000       0.028
   0.12048193  0.12048193  0.00000000       0.014
   0.00000000  0.00000000  0.04487436       0.014
   0.04016064  0.00000000  0.04487436       0.028
   0.00000000  0.04016064  0.04487436       0.028
   0.08032129  0.00000000  0.04487436       0.028
   0.00000000  0.08032129  0.04487436       0.028
   0.12048193  0.00000000  0.04487436       0.014
   0.00000000  0.12048193  0.04487436       0.014
   0.04016064  0.04016064  0.04487436       0.028
  -0.04016064  0.04016064  0.04487436       0.028
   0.08032129  0.04016064  0.04487436       0.028
  -0.04016064  0.08032129  0.04487436       0.028
  -0.08032129  0.04016064  0.04487436       0.028
   0.04016064  0.08032129  0.04487436       0.028
   0.12048193  0.04016064  0.04487436       0.028
  -0.04016064  0.12048193  0.04487436       0.028
   0.08032129  0.08032129  0.04487436       0.028
  -0.08032129  0.08032129  0.04487436       0.028
   0.12048193  0.08032129  0.04487436       0.028
  -0.08032129  0.12048193  0.04487436       0.028
   0.12048193  0.12048193  0.04487436       0.014
 
 k-points in reciprocal lattice and weights: KPOINTS created by Atomic Simulation Env
   0.00000000  0.00000000  0.00000000       0.014
   0.16666667  0.00000000  0.00000000       0.028
   0.00000000  0.16666667  0.00000000       0.028
   0.33333333  0.00000000  0.00000000       0.028
   0.00000000  0.33333333  0.00000000       0.028
   0.50000000  0.00000000  0.00000000       0.014
   0.00000000  0.50000000  0.00000000       0.014
   0.16666667  0.16666667  0.00000000       0.028
  -0.16666667  0.16666667  0.00000000       0.028
   0.33333333  0.16666667  0.00000000       0.028
  -0.16666667  0.33333333  0.00000000       0.028
  -0.33333333  0.16666667  0.00000000       0.028
   0.16666667  0.33333333  0.00000000       0.028
   0.50000000  0.16666667  0.00000000       0.028
  -0.16666667  0.50000000  0.00000000       0.028
   0.33333333  0.33333333  0.00000000       0.028
  -0.33333333  0.33333333  0.00000000       0.028
   0.50000000  0.33333333  0.00000000       0.028
  -0.33333333  0.50000000  0.00000000       0.028
   0.50000000  0.50000000  0.00000000       0.014
   0.00000000  0.00000000  0.50000000       0.014
   0.16666667  0.00000000  0.50000000       0.028
   0.00000000  0.16666667  0.50000000       0.028
   0.33333333  0.00000000  0.50000000       0.028
   0.00000000  0.33333333  0.50000000       0.028
   0.50000000  0.00000000  0.50000000       0.014
   0.00000000  0.50000000  0.50000000       0.014
   0.16666667  0.16666667  0.50000000       0.028
  -0.16666667  0.16666667  0.50000000       0.028
   0.33333333  0.16666667  0.50000000       0.028
  -0.16666667  0.33333333  0.50000000       0.028
  -0.33333333  0.16666667  0.50000000       0.028
   0.16666667  0.33333333  0.50000000       0.028
   0.50000000  0.16666667  0.50000000       0.028
  -0.16666667  0.50000000  0.50000000       0.028
   0.33333333  0.33333333  0.50000000       0.028
  -0.33333333  0.33333333  0.50000000       0.028
   0.50000000  0.33333333  0.50000000       0.028
  -0.33333333  0.50000000  0.50000000       0.028
   0.50000000  0.50000000  0.50000000       0.014
 
 position of ions in fractional coordinates (direct lattice) 
   0.00000000  0.25000000  0.13894706
   0.50000000  0.75000000  0.36105294
   0.00000000  0.75000000  0.86105294
   0.50000000  0.25000000  0.63894706
   0.00000000  0.25000000  0.36371599
   0.50000000  0.75000000  0.13628401
   0.00000000  0.75000000  0.63628401
   0.50000000  0.25000000  0.86371599
 
 position of ions in cartesian coordinates  (Angst):
   0.00000000  1.03750000  1.54817882
   2.07500000  3.11250000  4.02293168
   0.00000000  3.11250000  9.59404218
   2.07500000  1.03750000  7.11928932
   0.00000000  1.03750000  4.05260397
   2.07500000  3.11250000  1.51850653
   0.00000000  3.11250000  7.08961703
   2.07500000  1.03750000  9.62371447
 


--------------------------------------------------------------------------------------------------------


 k-point   1 :   0.0000 0.0000 0.0000  plane waves:    3019
 k-point   2 :   0.1667 0.0000 0.0000  plane waves:    2993
 k-point   3 :   0.0000 0.1667 0.0000  plane waves:    2993
 k-point   4 :   0.3333 0.0000 0.0000  plane waves:    2969
 k-point   5 :   0.0000 0.3333 0.0000  plane waves:    2969
 k-point   6 :   0.5000 0.0000 0.0000  plane waves:    2960
 k-point   7 :   0.0000 0.5000 0.0000  plane waves:    2960
 k-point   8 :   0.1667 0.1667 0.0000  plane waves:    2963
 k-point   9 :  -0.1667 0.1667 0.0000  plane waves:    2963
 k-point  10 :   0.3333 0.1667 0.0000  plane waves:    2973
 k-point  11 :  -0.1667 0.3333 0.0000  plane waves:    2973
 k-point  12 :  -0.3333 0.1667 0.0000  plane waves:    2973
 k-point  13 :   0.1667 0.3333 0.0000  plane waves:    2973
 k-point  14 :   0.5000 0.1667 0.0000  plane waves:    2990
 k-point  15 :  -0.1667 0.5000 0.0000  plane waves:    2990
 k-point  16 :   0.3333 0.3333 0.0000  plane waves:    2979
 k-point  17 :  -0.3333 0.3333 0.0000  plane waves:    2979
 k-point  18 :   0.5000 0.3333 0.0000  plane waves:    2962
 k-point  19 :  -0.3333 0.5000 0.0000  plane waves:    2962
 k-point  20 :   0.5000 0.5000 0.0000  plane waves:    2916
 k-point  21 :   0.0000 0.0000 0.5000  plane waves:    2954
 k-point  22 :   0.1667 0.0000 0.5000  plane waves:    2992
 k-point  23 :   0.0000 0.1667 0.5000  plane waves:    2992
 k-point  24 :   0.3333 0.0000 0.5000  plane waves:    2982
 k-point  25 :   0.0000 0.3333 0.5000  plane waves:    2982
 k-point  26 :   0.5000 0.0000 0.5000  plane waves:    2980
 k-point  27 :   0.0000 0.5000 0.5000  plane waves:    2980
 k-point  28 :   0.1667 0.1667 0.5000  plane waves:    2978
 k-point  29 :  -0.1667 0.1667 0.5000  plane waves:    2978
 k-point  30 :   0.3333 0.1667 0.5000  plane waves:    2986
 k-point  31 :  -0.1667 0.3333 0.5000  plane waves:    2986
 k-point  32 :  -0.3333 0.1667 0.5000  plane waves:    2986
 k-point  33 :   0.1667 0.3333 0.5000  plane waves:    2986
 k-point  34 :   0.5000 0.1667 0.5000  plane waves:    2980
 k-point  35 :  -0.1667 0.5000 0.5000  plane waves:    2980
 k-point  36 :   0.3333 0.3333 0.5000  plane waves:    2972
 k-point  37 :  -0.3333 0.3333 0.5000  plane waves:    2972
 k-point  38 :   0.5000 0.3333 0.5000  plane waves:    2964
 k-point  39 :  -0.3333 0.5000 0.5000  plane waves:    2964
 k-point  40 :   0.5000 0.5000 0.5000  plane waves:    2944

 maximum and minimum number of plane-waves per node :       771      714

 maximum number of plane-waves:      3019
 maximum index in each direction: 
   IXMAX=    6   IYMAX=    6   IZMAX=   17
   IXMIN=   -6   IYMIN=   -6   IZMIN=  -17


 parallel 3D FFT for wavefunctions:
    minimum data exchange during FFTs selected (reduces bandwidth)
 parallel 3D FFT for charge:
    minimum data exchange during FFTs selected (reduces bandwidth)


 total amount of memory used by VASP MPI-rank0    38310. kBytes
=======================================================================

   base      :      30000. kBytes
   nonl-proj :       6488. kBytes
   fftplans  :        320. kBytes
   grid      :        462. kBytes
   one-center:         16. kBytes
   wavefun   :       1024. kBytes
 
     INWAV:  cpu time      0.0000: real time      0.0001
 Broyden mixing: mesh for mixing (old mesh)
   NGX = 13   NGY = 13   NGZ = 35
  (NGX  = 40   NGY  = 40   NGZ  =108)
  gives a total of   5915 points

 initial charge density was supplied:
 charge density of overlapping atoms calculated
 number of electron      40.0000000 magnetization 
 keeping initial charge density in first step


--------------------------------------------------------------------------------------------------------


 Maximum index for augmentation-charges           401 (set IRDMAX)


--------------------------------------------------------------------------------------------------------


 First call to EWALD:  gamma=   0.307
 Maximum number of real-space cells 4x 4x 2
 Maximum number of reciprocal cells 2x 2x 5

    FEWALD:  cpu time      0.0008: real time      0.0008


--------------------------------------- Ionic step        1  -------------------------------------------




--------------------------------------- Iteration      1(   1)  ---------------------------------------


    POTLOK:  cpu time      0.0061: real time      0.0065
    SETDIJ:  cpu time      0.1376: real time      0.1380
     EDDAV:  cpu time      0.2747: real time      0.2777
       DOS:  cpu time      0.0022: real time      0.0023
    --------------------------------------------
      LOOP:  cpu time      0.4206: real time      0.4246

 eigenvalue-minimisations  :  2560
 total energy-change (2. order) : 0.1269036E+03  (-0.1284402E+04)
 number of electron      40.0000000 magnetization 
 augmentation part       40.0000000 magnetization 

 Free energy of the ion-electron system (eV)
  ---------------------------------------------------
  alpha Z        PSCENC =        88.29973458
  Ewald energy   TEWEN  =     -1438.36723218
  -Hartree energ DENC   =      -116.24678866
  -exchange      EXHF   =         0.00000000
  -V(xc)+E(xc)   XCENC  =       -33.63048527
  PAW double counting   =      1193.78262552    -1080.73714043
  entropy T*S    EENTRO =        -0.00473518
  eigenvalues    EBANDS =        65.32304967
  atomic energy  EATOM  =      1448.48460880
  Solvation  Ediel_sol  =         0.00000000
  ---------------------------------------------------
  free energy    TOTEN  =       126.90363684 eV

  energy without entropy =      126.90837202  energy(sigma->0) =      126.90600443


--------------------------------------------------------------------------------------------------------




--------------------------------------- Iteration      1(   2)  ---------------------------------------


     EDDAV:  cpu time      0.3371: real time      0.3404
       DOS:  cpu time      0.0006: real time      0.0006
    --------------------------------------------
      LOOP:  cpu time      0.3377: real time      0.3410

 eigenvalue-minimisations  :  3760
 total energy-change (2. order) :-0.1526542E+03  (-0.1483219E+03)
 number of electron      40.0000000 magnetization 
 augmentation part       40.0000000 magnetization 

 Free energy of the ion-electron system (eV)
  ---------------------------------------------------
  alpha Z        PSCENC =        88.29973458
  Ewald energy   TEWEN  =     -1438.36723218
  -Hartree energ DENC   =      -116.24678866
  -exchange      EXHF   =         0.00000000
  -V(xc)+E(xc)   XCENC  =       -33.63048527
  PAW double counting   =      1193.78262552    -1080.73714043
  entropy T*S    EENTRO =        -0.00000000
  eigenvalues    EBANDS =       -87.33589834
  atomic energy  EATOM  =      1448.48460880
  Solvation  Ediel_sol  =         0.00000000
  ---------------------------------------------------
  free energy    TOTEN  =       -25.75057599 eV

  energy without entropy =      -25.75057599  energy(sigma->0) =      -25.75057599


--------------------------------------------------------------------------------------------------------




--------------------------------------- Iteration      1(   3)  ---------------------------------------


     EDDAV:  cpu time      0.3005: real time      0.3038
       DOS:  cpu time      0.0006: real time      0.0006
    --------------------------------------------
      LOOP:  cpu time      0.3011: real time      0.3044

 eigenvalue-minimisations  :  3232
 total energy-change (2. order) :-0.8203196E+01  (-0.8186891E+01)
 number of electron      40.0000000 magnetization 
 augmentation part       40.0000000 magnetization 

 Free energy of the ion-electron system (eV)
  ---------------------------------------------------
  alpha Z        PSCENC =        88.29973458
  Ewald energy   TEWEN  =     -1438.36723218
  -Hartree energ DENC   =      -116.24678866
  -exchange      EXHF   =         0.00000000
  -V(xc)+E(xc)   XCENC  =       -33.63048527
  PAW double counting   =      1193.78262552    -1080.73714043
  entropy T*S    EENTRO =        -0.00000000
  eigenvalues    EBANDS =       -95.53909454
  atomic energy  EATOM  =      1448.48460880
  Solvation  Ediel_sol  =         0.00000000
  ---------------------------------------------------
  free energy    TOTEN  =       -33.95377219 eV

  energy without entropy =      -33.95377219  energy(sigma->0) =      -33.95377219


--------------------------------------------------------------------------------------------------------




--------------------------------------- Iteration      1(   4)  ---------------------------------------


     EDDAV:  cpu time      0.3000: real time      0.3035
       DOS:  cpu time      0.0005: real time      0.0005
    --------------------------------------------
      LOOP:  cpu time      0.3005: real time      0.3040

 eigenvalue-minimisations  :  3120
 total energy-change (2. order) :-0.5235238E-01  (-0.5233708E-01)
 number of electron      40.0000000 magnetization 
 augmentation part       40.0000000 magnetization 

 Free energy of the ion-electron system (eV)
  ---------------------------------------------------
  alpha Z        PSCENC =        88.29973458
  Ewald energy   TEWEN  =     -1438.36723218
  -Hartree energ DENC   =      -116.24678866
  -exchange      EXHF   =         0.00000000
  -V(xc)+E(xc)   XCENC  =       -33.63048527
  PAW double counting   =      1193.78262552    -1080.73714043
  entropy T*S    EENTRO =        -0.00000000
  eigenvalues    EBANDS =       -95.59144692
  atomic energy  EATOM  =      1448.48460880
  Solvation  Ediel_sol  =         0.00000000
  ---------------------------------------------------
  free energy    TOTEN  =       -34.00612457 eV

  energy without entropy =      -34.00612457  energy(sigma->0) =      -34.00612457


--------------------------------------------------------------------------------------------------------




--------------------------------------- Iteration      1(   5)  ---------------------------------------


     EDDAV:  cpu time      0.3001: real time      0.3034
       DOS:  cpu time      0.0006: real time      0.0006
    CHARGE:  cpu time      0.0046: real time      0.0046
    MIXING:  cpu time      0.0007: real time      0.0007
    --------------------------------------------
      LOOP:  cpu time      0.3060: real time      0.3093

 eigenvalue-minimisations  :  3232
 total energy-change (2. order) :-0.3249587E-03  (-0.3249408E-03)
 number of electron      39.9999948 magnetization 
 augmentation part       -7.4284860 magnetization 

 Broyden mixing:
  rms(total) = 0.61885E+00    rms(broyden)= 0.61884E+00
  rms(prec ) = 0.72290E+00
  weight for this iteration     100.00

 Free energy of the ion-electron system (eV)
  ---------------------------------------------------
  alpha Z        PSCENC =        88.29973458
  Ewald energy   TEWEN  =     -1438.36723218
  -Hartree energ DENC   =      -116.24678866
  -exchange      EXHF   =         0.00000000
  -V(xc)+E(xc)   XCENC  =       -33.63048527
  PAW double counting   =      1193.78262552    -1080.73714043
  entropy T*S    EENTRO =        -0.00000000
  eigenvalues    EBANDS =       -95.59177188
  atomic energy  EATOM  =      1448.48460880
  Solvation  Ediel_sol  =         0.00000000
  ---------------------------------------------------
  free energy    TOTEN  =       -34.00644953 eV

  energy without entropy =      -34.00644953  energy(sigma->0) =      -34.00644953


--------------------------------------------------------------------------------------------------------




--------------------------------------- Iteration      1(   6)  ---------------------------------------


    POTLOK:  cpu time      0.0054: real time      0.0056
    SETDIJ:  cpu time      0.1379: real time      0.1386
     EDDAV:  cpu time      0.3044: real time      0.3079
       DOS:  cpu time      0.0009: real time      0.0009
    CHARGE:  cpu time      0.0054: real time      0.0055
    MIXING:  cpu time      0.0013: real time      0.0013
    --------------------------------------------
      LOOP:  cpu time      0.4552: real time      0.4597

 eigenvalue-minimisations  :  3056
 total energy-change (2. order) : 0.5262800E+00  (-0.1051806E+00)
 number of electron      39.9999948 magnetization 
 augmentation part       -7.3685281 magnetization 

 Broyden mixing:
  rms(total) = 0.38265E+00    rms(broyden)= 0.38265E+00
  rms(prec ) = 0.40164E+00
  weight for this iteration     100.00

 eigenvalues of (default mixing * dielectric matrix)
  average eigenvalue GAMMA=   1.9970
  1.9970

 Free energy of the ion-electron system (eV)
  ---------------------------------------------------
  alpha Z        PSCENC =        88.29973458
  Ewald energy   TEWEN  =     -1438.36723218
  -Hartree energ DENC   =      -122.38909239
  -exchange      EXHF   =         0.00000000
  -V(xc)+E(xc)   XCENC  =       -33.05314472
  PAW double counting   =      1428.61574778    -1315.84699631
  entropy T*S    EENTRO =        -0.00000000
  eigenvalues    EBANDS =       -89.22379511
  atomic energy  EATOM  =      1448.48460880
  Solvation  Ediel_sol  =         0.00000000
  ---------------------------------------------------
  free energy    TOTEN  =       -33.48016957 eV

  energy without entropy =      -33.48016957  energy(sigma->0) =      -33.48016957


--------------------------------------------------------------------------------------------------------




--------------------------------------- Iteration      1(   7)  ---------------------------------------


    POTLOK:  cpu time      0.0061: real time      0.0063
    SETDIJ:  cpu time      0.1389: real time      0.1396
     EDDAV:  cpu time      0.3004: real time      0.3038
       DOS:  cpu time      0.0006: real time      0.0006
    CHARGE:  cpu time      0.0043: real time      0.0044
    MIXING:  cpu time      0.0005: real time      0.0005
    --------------------------------------------
      LOOP:  cpu time      0.4507: real time      0.4552

 eigenvalue-minimisations  :  3264
 total energy-change (2. order) :-0.2560453E-03  (-0.2947211E-01)
 number of electron      39.9999948 magnetization 
 augmentation part       -7.3604244 magnetization 

 Broyden mixing:
  rms(total) = 0.14488E+00    rms(broyden)= 0.14488E+00
  rms(prec ) = 0.15315E+00
  weight for this iteration     100.00

 eigenvalues of (default mixing * dielectric matrix)
  average eigenvalue GAMMA=   1.7701
  1.2410  2.2991

 Free energy of the ion-electron system (eV)
  ---------------------------------------------------
  alpha Z        PSCENC =        88.29973458
  Ewald energy   TEWEN  =     -1438.36723218
  -Hartree energ DENC   =      -124.39017274
  -exchange      EXHF   =         0.00000000
  -V(xc)+E(xc)   XCENC  =       -32.71404697
  PAW double counting   =      1686.10191759    -1573.49294708
  entropy T*S    EENTRO =        -0.00000000
  eigenvalues    EBANDS =       -87.40228760
  atomic energy  EATOM  =      1448.48460880
  Solvation  Ediel_sol  =         0.00000000
  ---------------------------------------------------
  free energy    TOTEN  =       -33.48042561 eV

  energy without entropy =      -33.48042561  energy(sigma->0) =      -33.48042561


--------------------------------------------------------------------------------------------------------




--------------------------------------- Iteration      1(   8)  ---------------------------------------


    POTLOK:  cpu time      0.0052: real time      0.0055
    SETDIJ:  cpu time      0.1375: real time      0.1382
     EDDAV:  cpu time      0.2915: real time      0.2943
       DOS:  cpu time      0.0004: real time      0.0004
    CHARGE:  cpu time      0.0042: real time      0.0042
    MIXING:  cpu time      0.0005: real time      0.0005
    --------------------------------------------
      LOOP:  cpu time      0.4393: real time      0.4431

 eigenvalue-minimisations  :  3040
 total energy-change (2. order) : 0.4201589E-03  (-0.3074524E-02)
 number of electron      39.9999948 magnetization 
 augmentation part       -7.3744324 magnetization 

 Broyden mixing:
  rms(total) = 0.18758E-01    rms(broyden)= 0.18758E-01
  rms(prec ) = 0.23790E-01
  weight for this iteration     100.00

 eigenvalues of (default mixing * dielectric matrix)
  average eigenvalue GAMMA=   1.6484
  2.4923  1.2264  1.2264

 Free energy of the ion-electron system (eV)
  ---------------------------------------------------
  alpha Z        PSCENC =        88.29973458
  Ewald energy   TEWEN  =     -1438.36723218
  -Hartree energ DENC   =      -123.90765698
  -exchange      EXHF   =         0.00000000
  -V(xc)+E(xc)   XCENC  =       -32.62656956
  PAW double counting   =      1823.20130520    -1710.63447206
  entropy T*S    EENTRO =        -0.00000000
  eigenvalues    EBANDS =       -87.92972325
  atomic energy  EATOM  =      1448.48460880
  Solvation  Ediel_sol  =         0.00000000
  ---------------------------------------------------
  free energy    TOTEN  =       -33.48000546 eV

  energy without entropy =      -33.48000546  energy(sigma->0) =      -33.48000546


--------------------------------------------------------------------------------------------------------




--------------------------------------- Iteration      1(   9)  ---------------------------------------


    POTLOK:  cpu time      0.0052: real time      0.0055
    SETDIJ:  cpu time      0.1375: real time      0.1382
     EDDAV:  cpu time      0.2902: real time      0.2935
       DOS:  cpu time      0.0005: real time      0.0005
    CHARGE:  cpu time      0.0041: real time      0.0041
    MIXING:  cpu time      0.0005: real time      0.0005
    --------------------------------------------
      LOOP:  cpu time      0.4381: real time      0.4424

 eigenvalue-minimisations  :  3104
 total energy-change (2. order) :-0.3677324E-04  (-0.3674834E-03)
 number of electron      39.9999948 magnetization 
 augmentation part       -7.3727961 magnetization 

 Broyden mixing:
  rms(total) = 0.72789E-02    rms(broyden)= 0.72789E-02
  rms(prec ) = 0.82010E-02
  weight for this iteration     100.00

 eigenvalues of (default mixing * dielectric matrix)
  average eigenvalue GAMMA=   1.8654
  2.5612  2.5612  1.1696  1.1696

 Free energy of the ion-electron system (eV)
  ---------------------------------------------------
  alpha Z        PSCENC =        88.29973458
  Ewald energy   TEWEN  =     -1438.36723218
  -Hartree energ DENC   =      -124.31974090
  -exchange      EXHF   =         0.00000000
  -V(xc)+E(xc)   XCENC  =       -32.58286378
  PAW double counting   =      1839.93052620    -1727.37737446
  entropy T*S    EENTRO =        -0.00000000
  eigenvalues    EBANDS =       -87.54770048
  atomic energy  EATOM  =      1448.48460880
  Solvation  Ediel_sol  =         0.00000000
  ---------------------------------------------------
  free energy    TOTEN  =       -33.48004223 eV

  energy without entropy =      -33.48004223  energy(sigma->0) =      -33.48004223


--------------------------------------------------------------------------------------------------------




--------------------------------------- Iteration      1(  10)  ---------------------------------------


    POTLOK:  cpu time      0.0048: real time      0.0050
    SETDIJ:  cpu time      0.1360: real time      0.1365
     EDDAV:  cpu time      0.1974: real time      0.1984
       DOS:  cpu time      0.0003: real time      0.0003
    CHARGE:  cpu time      0.0034: real time      0.0035
    MIXING:  cpu time      0.0003: real time      0.0003
    --------------------------------------------
      LOOP:  cpu time      0.3424: real time      0.3441

 eigenvalue-minimisations  :  3088
 total energy-change (2. order) :-0.7269541E-04  (-0.3680655E-04)
 number of electron      39.9999948 magnetization 
 augmentation part       -7.3728846 magnetization 

 Broyden mixing:
  rms(total) = 0.25903E-02    rms(broyden)= 0.25902E-02
  rms(prec ) = 0.29481E-02
  weight for this iteration     100.00

 eigenvalues of (default mixing * dielectric matrix)
  average eigenvalue GAMMA=   1.7559
  2.8932  2.5876  1.1707  1.1707  0.9574

 Free energy of the ion-electron system (eV)
  ---------------------------------------------------
  alpha Z        PSCENC =        88.29973458
  Ewald energy   TEWEN  =     -1438.36723218
  -Hartree energ DENC   =      -124.35957720
  -exchange      EXHF   =         0.00000000
  -V(xc)+E(xc)   XCENC  =       -32.58226461
  PAW double counting   =      1831.10444641    -1718.54591312
  entropy T*S    EENTRO =        -0.00000000
  eigenvalues    EBANDS =       -87.51391760
  atomic energy  EATOM  =      1448.48460880
  Solvation  Ediel_sol  =         0.00000000
  ---------------------------------------------------
  free energy    TOTEN  =       -33.48011492 eV

  energy without entropy =      -33.48011492  energy(sigma->0) =      -33.48011492


--------------------------------------------------------------------------------------------------------




--------------------------------------- Iteration      1(  11)  ---------------------------------------


    POTLOK:  cpu time      0.0035: real time      0.0037
    SETDIJ:  cpu time      0.1369: real time      0.1373
     EDDAV:  cpu time      0.1996: real time      0.2007
       DOS:  cpu time      0.0003: real time      0.0003
    CHARGE:  cpu time      0.0034: real time      0.0034
    MIXING:  cpu time      0.0003: real time      0.0003
    --------------------------------------------
      LOOP:  cpu time      0.3440: real time      0.3456

 eigenvalue-minimisations  :  3136
 total energy-change (2. order) :-0.1704310E-04  (-0.2902661E-05)
 number of electron      39.9999948 magnetization 
 augmentation part       -7.3729925 magnetization 

 Broyden mixing:
  rms(total) = 0.99329E-03    rms(broyden)= 0.99328E-03
  rms(prec ) = 0.11219E-02
  weight for this iteration     100.00

 eigenvalues of (default mixing * dielectric matrix)
  average eigenvalue GAMMA=   1.7324
  2.6512  2.6512  1.8275  1.1540  1.1540  0.9563

 Free energy of the ion-electron system (eV)
  ---------------------------------------------------
  alpha Z        PSCENC =        88.29973458
  Ewald energy   TEWEN  =     -1438.36723218
  -Hartree energ DENC   =      -124.38269967
  -exchange      EXHF   =         0.00000000
  -V(xc)+E(xc)   XCENC  =       -32.57789768
  PAW double counting   =      1832.93901822    -1720.38083538
  entropy T*S    EENTRO =        -0.00000000
  eigenvalues    EBANDS =       -87.49482865
  atomic energy  EATOM  =      1448.48460880
  Solvation  Ediel_sol  =         0.00000000
  ---------------------------------------------------
  free energy    TOTEN  =       -33.48013197 eV

  energy without entropy =      -33.48013197  energy(sigma->0) =      -33.48013197


--------------------------------------------------------------------------------------------------------




--------------------------------------- Iteration      1(  12)  ---------------------------------------


    POTLOK:  cpu time      0.0035: real time      0.0036
    SETDIJ:  cpu time      0.1167: real time      0.1173
     EDDAV:  cpu time      0.1868: real time      0.1878
       DOS:  cpu time      0.0003: real time      0.0003
    --------------------------------------------
      LOOP:  cpu time      0.3073: real time      0.3090

 eigenvalue-minimisations  :  2976
 total energy-change (2. order) : 0.2313715E-06  (-0.3846475E-06)
 number of electron      39.9999948 magnetization 
 augmentation part       -7.3729925 magnetization 

 Free energy of the ion-electron system (eV)
  ---------------------------------------------------
  alpha Z        PSCENC =        88.29973458
  Ewald energy   TEWEN  =     -1438.36723218
  -Hartree energ DENC   =      -124.38768753
  -exchange      EXHF   =         0.00000000
  -V(xc)+E(xc)   XCENC  =       -32.57755004
  PAW double counting   =      1832.63523651    -1720.07687632
  entropy T*S    EENTRO =        -0.00000000
  eigenvalues    EBANDS =       -87.49036555
  atomic energy  EATOM  =      1448.48460880
  Solvation  Ediel_sol  =         0.00000000
  ---------------------------------------------------
  free energy    TOTEN  =       -33.48013174 eV

  energy without entropy =      -33.48013174  energy(sigma->0) =      -33.48013174


--------------------------------------------------------------------------------------------------------




 average (electrostatic) potential at core
  the test charge radii are     1.1631  1.0808
  (the norm of the test charge is              1.0000)
       1 -33.6045       2 -33.6045       3 -33.6045       4 -33.6045       5 -54.7801
       6 -54.7801       7 -54.7801       8 -54.7801
 
 
 
 E-fermi :   3.4423     XC(G=0):  -9.3965     alpha+bet : -8.7967

 Fermi energy:         3.4423058099

 k-point     1 :       0.0000    0.0000    0.0000
  band No.  band energies     occupation 
      1     -10.7054      2.00000
      2     -10.3595      2.00000
      3      -9.3816      2.00000
      4      -8.8547      2.00000
      5      -4.4322      2.00000
      6      -3.8048      2.00000
      7      -2.6879      2.00000
      8      -2.6582      2.00000
      9      -1.5654      2.00000
     10      -0.2176      2.00000
     11      -0.2159      2.00000
     12       0.2259      2.00000
     13       0.2397      2.00000
     14       1.2133      2.00000
     15       1.2223      2.00000
     16       1.2976      2.00000
     17       1.9481      2.00000
     18       1.9877      2.00000
     19       2.3616      2.00000
     20       2.6164      2.00000
     21       4.1902      0.00000
     22       6.8391      0.00000
     23       7.0747      0.00000
     24       7.1706      0.00000
     25       7.2046      0.00000
     26       7.2364      0.00000
     27       7.4103      0.00000
     28       7.7872      0.00000
     29       7.8115      0.00000
     30       8.1841      0.00000
     31       8.1889      0.00000
     32       8.4928      0.00000

 k-point     2 :       0.1667    0.0000    0.0000
  band No.  band energies     occupation 
      1     -10.5546      2.00000
      2     -10.2156      2.00000
      3      -9.3379      2.00000
      4      -8.8555      2.00000
      5      -4.8017      2.00000
      6      -4.0919      2.00000
      7      -3.2497      2.00000
      8      -2.9904      2.00000
      9      -1.5102      2.00000
     10      -0.0018      2.00000
     11       0.0473      2.00000
     12       0.4534      2.00000
     13       0.5012      2.00000
     14       1.1915      2.00000
     15       1.3800      2.00000
     16       1.9016      2.00000
     17       2.1271      2.00000
     18       2.2684      2.00000
     19       2.3260      2.00000
     20       2.5473      2.00000
     21       4.1709      0.00000
     22       5.8559      0.00000
     23       5.9852      0.00000
     24       6.0320      0.00000
     25       6.4598      0.00000
     26       7.1937      0.00000
     27       7.1976      0.00000
     28       7.5387      0.00000
     29       7.8397      0.00000
     30       7.9553      0.00000
     31       8.0084      0.00000
     32       8.2566      0.00000

 k-point     3 :       0.0000    0.1667    0.0000
  band No.  band energies     occupation 
      1     -10.5497      2.00000
      2     -10.2218      2.00000
      3      -9.3217      2.00000
      4      -8.8791      2.00000
      5      -4.7262      2.00000
      6      -4.1663      2.00000
      7      -3.2550      2.00000
      8      -2.9830      2.00000
      9      -1.4889      2.00000
     10       0.0021      2.00000
     11       0.1059      2.00000
     12       0.4355      2.00000
     13       0.4725      2.00000
     14       1.0991      2.00000
     15       1.3985      2.00000
     16       2.0673      2.00000
     17       2.1196      2.00000
     18       2.2061      2.00000
     19       2.3605      2.00000
     20       2.3767      2.00000
     21       4.3020      0.00000
     22       5.6732      0.00000
     23       6.1050      0.00000
     24       6.2496      0.00000
     25       6.3477      0.00000
     26       6.9697      0.00000
     27       7.2120      0.00000
     28       7.7539      0.00000
     29       7.8265      0.00000
     30       7.9513      0.00000
     31       8.0835      0.00000
     32       8.2235      0.00000

 k-point     4 :       0.3333    0.0000    0.0000
  band No.  band energies     occupation 
      1     -10.1451      2.00000
      2      -9.8235      2.00000
      3      -9.3396      2.00000
      4      -8.9621      2.00000
      5      -5.3218      2.00000
      6      -4.4854      2.00000
      7      -4.3660      2.00000
      8      -3.7355      2.00000
      9      -1.0337      2.00000
     10       0.2993      2.00000
     11       0.6120      2.00000
     12       1.0622      2.00000
     13       1.2100      2.00000
     14       1.3332      2.00000
     15       1.7080      2.00000
     16       2.0987      2.00000
     17       2.3078      2.00000
     18       2.3307      2.00000
     19       2.9234      2.00000
     20       3.0920      2.00000
     21       4.4229      0.00000
     22       4.4325      0.00000
     23       4.4895      0.00000
     24       4.5010      0.00000
     25       5.2201      0.00000
     26       5.5705      0.00000
     27       5.7605      0.00000
     28       6.4261      0.00000
     29       6.4555      0.00000
     30       6.8449      0.00000
     31       8.7800      0.00000
     32       8.7982      0.00000

 k-point     5 :       0.0000    0.3333    0.0000
  band No.  band energies     occupation 
      1     -10.1178      2.00000
      2      -9.8572      2.00000
      3      -9.2578      2.00000
      4      -9.0660      2.00000
      5      -5.1836      2.00000
      6      -4.6041      2.00000
      7      -4.3337      2.00000
      8      -3.7499      2.00000
      9      -1.0364      2.00000
     10       0.3702      2.00000
     11       0.6295      2.00000
     12       1.0218      2.00000
     13       1.1330      2.00000
     14       1.3965      2.00000
     15       1.7941      2.00000
     16       2.1033      2.00000
     17       2.1543      2.00000
     18       2.3033      2.00000
     19       2.7866      2.00000
     20       3.1638      2.00000
     21       4.1230      0.00000
     22       4.6282      0.00000
     23       4.7089      0.00000
     24       4.8460      0.00000
     25       4.9518      0.00000
     26       5.5304      0.00000
     27       5.6210      0.00000
     28       6.3981      0.00000
     29       6.6368      0.00000
     30       6.8973      0.00000
     31       8.5165      0.00000
     32       8.7336      0.00000

 k-point     6 :       0.5000    0.0000    0.0000
  band No.  band energies     occupation 
      1      -9.6399      2.00000
      2      -9.6399      2.00000
      3      -9.3245      2.00000
      4      -9.3245      2.00000
      5      -5.2039      2.00000
      6      -5.2039      2.00000
      7      -4.3721      2.00000
      8      -4.3721      2.00000
      9      -0.2693      2.00000
     10      -0.2693      2.00000
     11       1.4290      2.00000
     12       1.4290      2.00000
     13       1.6904      2.00000
     14       1.6904      2.00000
     15       1.8951      2.00000
     16       1.8951      2.00000
     17       2.4466      2.00000
     18       2.4466      2.00000
     19       2.7917      2.00000
     20       2.7917      2.00000
     21       4.3753      0.00000
     22       4.3753      0.00000
     23       4.5047      0.00000
     24       4.5047      0.00000
     25       4.6105      0.00000
     26       4.6105      0.00000
     27       5.2515      0.00000
     28       5.2515      0.00000
     29       5.7641      0.00000
     30       5.7641      0.00000
     31       8.8980      0.00000
     32       8.8980      0.00000

 k-point     7 :       0.0000    0.5000    0.0000
  band No.  band energies     occupation 
      1      -9.5391      2.00000
      2      -9.5391      2.00000
      3      -9.4430      2.00000
      4      -9.4430      2.00000
      5      -5.1075      2.00000
      6      -5.1075      2.00000
      7      -4.4448      2.00000
      8      -4.4448      2.00000
      9      -0.2685      2.00000
     10      -0.2685      2.00000
     11       1.5280      2.00000
     12       1.5280      2.00000
     13       1.7326      2.00000
     14       1.7326      2.00000
     15       1.7636      2.00000
     16       1.7636      2.00000
     17       2.4030      2.00000
     18       2.4030      2.00000
     19       2.8076      2.00000
     20       2.8076      2.00000
     21       4.2724      0.00000
     22       4.2724      0.00000
     23       4.5280      0.00000
     24       4.5280      0.00000
     25       4.6365      0.00000
     26       4.6365      0.00000
     27       5.1609      0.00000
     28       5.1609      0.00000
     29       5.9828      0.00000
     30       5.9828      0.00000
     31       8.7450      0.00000
     32       8.7450      0.00000

 k-point     8 :       0.1667    0.1667    0.0000
  band No.  band energies     occupation 
      1     -10.4059      2.00000
      2     -10.0861      2.00000
      3      -9.2832      2.00000
      4      -8.8778      2.00000
      5      -4.8980      2.00000
      6      -4.2328      2.00000
      7      -3.3816      2.00000
      8      -3.3772      2.00000
      9      -1.3545      2.00000
     10      -0.6495      2.00000
     11      -0.6482      2.00000
     12       1.0529      2.00000
     13       1.0808      2.00000
     14       1.3047      2.00000
     15       1.3682      2.00000
     16       1.4068      2.00000
     17       2.3923      2.00000
     18       2.4306      2.00000
     19       2.6607      2.00000
     20       2.7906      2.00000
     21       4.3030      0.00000
     22       4.6653      0.00000
     23       4.8644      0.00000
     24       5.3676      0.00000
     25       6.2812      0.00000
     26       6.9440      0.00000
     27       7.1942      0.00000
     28       7.9779      0.00000
     29       8.1193      0.00000
     30       8.1572      0.00000
     31       8.2455      0.00000
     32       8.4893      0.00000

 k-point     9 :      -0.1667    0.1667    0.0000
  band No.  band energies     occupation 
      1     -10.4059      2.00000
      2     -10.0861      2.00000
      3      -9.2832      2.00000
      4      -8.8778      2.00000
      5      -4.8980      2.00000
      6      -4.2328      2.00000
      7      -3.3816      2.00000
      8      -3.3772      2.00000
      9      -1.3545      2.00000
     10      -0.6495      2.00000
     11      -0.6482      2.00000
     12       1.0529      2.00000
     13       1.0808      2.00000
     14       1.3047      2.00000
     15       1.3682      2.00000
     16       1.4068      2.00000
     17       2.3923      2.00000
     18       2.4306      2.00000
     19       2.6607      2.00000
     20       2.7906      2.00000
     21       4.3030      0.00000
     22       4.6653      0.00000
     23       4.8644      0.00000
     24       5.3676      0.00000
     25       6.2812      0.00000
     26       6.9440      0.00000
     27       7.1942      0.00000
     28       7.9779      0.00000
     29       8.1193      0.00000
     30       8.1572      0.00000
     31       8.2455      0.00000
     32       8.4893      0.00000

 k-point    10 :       0.3333    0.1667    0.0000
  band No.  band energies     occupation 
      1     -10.0199      2.00000
      2      -9.7220      2.00000
      3      -9.2865      2.00000
      4      -8.9635      2.00000
      5      -5.1838      2.00000
      6      -4.3663      2.00000
      7      -4.2725      2.00000
      8      -3.7875      2.00000
      9      -0.9038      2.00000
     10      -0.7214      2.00000
     11      -0.6907      2.00000
     12       0.7948      2.00000
     13       1.1990      2.00000
     14       1.2047      2.00000
     15       1.2728      2.00000
     16       1.7431      2.00000
     17       1.8179      2.00000
     18       2.0963      2.00000
     19       2.6978      2.00000
     20       2.9454      2.00000
     21       4.2361      0.00000
     22       4.3045      0.00000
     23       5.2685      0.00000
     24       5.2933      0.00000
     25       5.4325      0.00000
     26       6.3525      0.00000
     27       6.3776      0.00000
     28       7.3468      0.00000
     29       7.6714      0.00000
     30       8.2523      0.00000
     31       8.3875      0.00000
     32       8.7448      0.00000

 k-point    11 :      -0.1667    0.3333    0.0000
  band No.  band energies     occupation 
      1      -9.9978      2.00000
      2      -9.7489      2.00000
      3      -9.2226      2.00000
      4      -9.0423      2.00000
      5      -5.0815      2.00000
      6      -4.4574      2.00000
      7      -4.2364      2.00000
      8      -3.8096      2.00000
      9      -0.9077      2.00000
     10      -0.7336      2.00000
     11      -0.6642      2.00000
     12       0.8552      2.00000
     13       1.0307      2.00000
     14       1.1446      2.00000
     15       1.3528      2.00000
     16       1.8721      2.00000
     17       1.9622      2.00000
     18       1.9760      2.00000
     19       2.6455      2.00000
     20       2.8462      2.00000
     21       4.2791      0.00000
     22       4.3197      0.00000
     23       5.1891      0.00000
     24       5.3792      0.00000
     25       5.4049      0.00000
     26       6.2573      0.00000
     27       6.7144      0.00000
     28       7.2542      0.00000
     29       7.6042      0.00000
     30       8.2809      0.00000
     31       8.3201      0.00000
     32       8.4928      0.00000

 k-point    12 :      -0.3333    0.1667    0.0000
  band No.  band energies     occupation 
      1     -10.0199      2.00000
      2      -9.7220      2.00000
      3      -9.2865      2.00000
      4      -8.9635      2.00000
      5      -5.1838      2.00000
      6      -4.3663      2.00000
      7      -4.2725      2.00000
      8      -3.7875      2.00000
      9      -0.9038      2.00000
     10      -0.7214      2.00000
     11      -0.6907      2.00000
     12       0.7948      2.00000
     13       1.1990      2.00000
     14       1.2047      2.00000
     15       1.2728      2.00000
     16       1.7431      2.00000
     17       1.8179      2.00000
     18       2.0963      2.00000
     19       2.6978      2.00000
     20       2.9454      2.00000
     21       4.2361      0.00000
     22       4.3045      0.00000
     23       5.2685      0.00000
     24       5.2933      0.00000
     25       5.4325      0.00000
     26       6.3525      0.00000
     27       6.3776      0.00000
     28       7.3468      0.00000
     29       7.6714      0.00000
     30       8.2523      0.00000
     31       8.3875      0.00000
     32       8.7448      0.00000

 k-point    13 :       0.1667    0.3333    0.0000
  band No.  band energies     occupation 
      1      -9.9978      2.00000
      2      -9.7489      2.00000
      3      -9.2226      2.00000
      4      -9.0423      2.00000
      5      -5.0815      2.00000
      6      -4.4574      2.00000
      7      -4.2364      2.00000
      8      -3.8096      2.00000
      9      -0.9077      2.00000
     10      -0.7336      2.00000
     11      -0.6642      2.00000
     12       0.8552      2.00000
     13       1.0307      2.00000
     14       1.1446      2.00000
     15       1.3528      2.00000
     16       1.8721      2.00000
     17       1.9622      2.00000
     18       1.9760      2.00000
     19       2.6455      2.00000
     20       2.8462      2.00000
     21       4.2791      0.00000
     22       4.3197      0.00000
     23       5.1891      0.00000
     24       5.3792      0.00000
     25       5.4049      0.00000
     26       6.2573      0.00000
     27       6.7144      0.00000
     28       7.2542      0.00000
     29       7.6042      0.00000
     30       8.2809      0.00000
     31       8.3201      0.00000
     32       8.4928      0.00000

 k-point    14 :       0.5000    0.1667    0.0000
  band No.  band energies     occupation 
      1      -9.5554      2.00000
      2      -9.5554      2.00000
      3      -9.2735      2.00000
      4      -9.2735      2.00000
      5      -5.0199      2.00000
      6      -5.0199      2.00000
      7      -4.2405      2.00000
      8      -4.2405      2.00000
      9      -0.4271      2.00000
     10      -0.4271      2.00000
     11       0.0309      2.00000
     12       0.0309      2.00000
     13       0.7947      2.00000
     14       0.7947      2.00000
     15       1.2833      2.00000
     16       1.2833      2.00000
     17       2.2042      2.00000
     18       2.2042      2.00000
     19       2.4042      2.00000
     20       2.4042      2.00000
     21       4.9038      0.00000
     22       4.9038      0.00000
     23       4.9784      0.00000
     24       4.9784      0.00000
     25       6.0756      0.00000
     26       6.0756      0.00000
     27       6.5225      0.00000
     28       6.5225      0.00000
     29       7.0694      0.00000
     30       7.0694      0.00000
     31       8.6784      0.00000
     32       8.6784      0.00000

 k-point    15 :      -0.1667    0.5000    0.0000
  band No.  band energies     occupation 
      1      -9.4641      2.00000
      2      -9.4641      2.00000
      3      -9.3790      2.00000
      4      -9.3790      2.00000
      5      -4.9276      2.00000
      6      -4.9276      2.00000
      7      -4.3141      2.00000
      8      -4.3141      2.00000
      9      -0.4081      2.00000
     10      -0.4081      2.00000
     11      -0.0155      2.00000
     12      -0.0155      2.00000
     13       0.7241      2.00000
     14       0.7241      2.00000
     15       1.7032      2.00000
     16       1.7032      2.00000
     17       1.7825      2.00000
     18       1.7825      2.00000
     19       2.4766      2.00000
     20       2.4766      2.00000
     21       4.7009      0.00000
     22       4.7009      0.00000
     23       5.2460      0.00000
     24       5.2460      0.00000
     25       6.0939      0.00000
     26       6.0939      0.00000
     27       6.4548      0.00000
     28       6.4548      0.00000
     29       7.1361      0.00000
     30       7.1361      0.00000
     31       8.5221      0.00000
     32       8.5221      0.00000

 k-point    16 :       0.3333    0.3333    0.0000
  band No.  band energies     occupation 
      1      -9.6899      2.00000
      2      -9.4746      2.00000
      3      -9.2004      2.00000
      4      -9.0381      2.00000
      5      -4.8423      2.00000
      6      -4.1294      2.00000
      7      -4.0891      2.00000
      8      -4.0377      2.00000
      9      -1.5529      2.00000
     10      -1.5521      2.00000
     11      -0.7701      2.00000
     12      -0.2704      2.00000
     13       0.2914      2.00000
     14       0.3251      2.00000
     15       0.7039      2.00000
     16       0.9439      2.00000
     17       1.3619      2.00000
     18       1.7133      2.00000
     19       1.8397      2.00000
     20       2.1385      2.00000
     21       5.0176      0.00000
     22       5.6824      0.00000
     23       6.1315      0.00000
     24       7.0367      0.00000
     25       7.0897      0.00000
     26       7.2238      0.00000
     27       7.2448      0.00000
     28       8.0847      0.00000
     29       8.2358      0.00000
     30       8.3528      0.00000
     31       8.7633      0.00000
     32       8.9298      0.00000

 k-point    17 :      -0.3333    0.3333    0.0000
  band No.  band energies     occupation 
      1      -9.6899      2.00000
      2      -9.4746      2.00000
      3      -9.2004      2.00000
      4      -9.0381      2.00000
      5      -4.8423      2.00000
      6      -4.1294      2.00000
      7      -4.0891      2.00000
      8      -4.0377      2.00000
      9      -1.5529      2.00000
     10      -1.5521      2.00000
     11      -0.7701      2.00000
     12      -0.2704      2.00000
     13       0.2914      2.00000
     14       0.3251      2.00000
     15       0.7039      2.00000
     16       0.9439      2.00000
     17       1.3619      2.00000
     18       1.7133      2.00000
     19       1.8397      2.00000
     20       2.1385      2.00000
     21       5.0176      0.00000
     22       5.6824      0.00000
     23       6.1315      0.00000
     24       7.0367      0.00000
     25       7.0897      0.00000
     26       7.2238      0.00000
     27       7.2448      0.00000
     28       8.0847      0.00000
     29       8.2358      0.00000
     30       8.3528      0.00000
     31       8.7633      0.00000
     32       8.9298      0.00000

 k-point    18 :       0.5000    0.3333    0.0000
  band No.  band energies     occupation 
      1      -9.3574      2.00000
      2      -9.3574      2.00000
      3      -9.1829      2.00000
      4      -9.1829      2.00000
      5      -4.5169      2.00000
      6      -4.5169      2.00000
      7      -3.9522      2.00000
      8      -3.9522      2.00000
      9      -1.3612      2.00000
     10      -1.3612      2.00000
     11      -1.3472      2.00000
     12      -1.3472      2.00000
     13       0.2220      2.00000
     14       0.2220      2.00000
     15       0.5979      2.00000
     16       0.5979      2.00000
     17       1.0266      2.00000
     18       1.0266      2.00000
     19       1.7546      2.00000
     20       1.7546      2.00000
     21       6.0130      0.00000
     22       6.0130      0.00000
     23       7.0659      0.00000
     24       7.0659      0.00000
     25       7.5715      0.00000
     26       7.5715      0.00000
     27       8.1177      0.00000
     28       8.1177      0.00000
     29       8.3629      0.00000
     30       8.3629      0.00000
     31       8.7881      0.00000
     32       8.7881      0.00000

 k-point    19 :      -0.3333    0.5000    0.0000
  band No.  band energies     occupation 
      1      -9.2987      2.00000
      2      -9.2987      2.00000
      3      -9.2471      2.00000
      4      -9.2471      2.00000
      5      -4.4445      2.00000
      6      -4.4445      2.00000
      7      -4.0200      2.00000
      8      -4.0200      2.00000
      9      -1.3936      2.00000
     10      -1.3936      2.00000
     11      -1.3212      2.00000
     12      -1.3212      2.00000
     13       0.1798      2.00000
     14       0.1798      2.00000
     15       0.7808      2.00000
     16       0.7808      2.00000
     17       0.9117      2.00000
     18       0.9117      2.00000
     19       1.7254      2.00000
     20       1.7254      2.00000
     21       6.0703      0.00000
     22       6.0703      0.00000
     23       7.1910      0.00000
     24       7.1910      0.00000
     25       7.4359      0.00000
     26       7.4359      0.00000
     27       7.9816      0.00000
     28       7.9816      0.00000
     29       8.5139      0.00000
     30       8.5139      0.00000
     31       8.5356      0.00000
     32       8.5356      0.00000

 k-point    20 :       0.5000    0.5000    0.0000
  band No.  band energies     occupation 
      1      -9.1930      2.00000
      2      -9.1930      2.00000
      3      -9.1930      2.00000
      4      -9.1930      2.00000
      5      -3.9637      2.00000
      6      -3.9637      2.00000
      7      -3.9637      2.00000
      8      -3.9637      2.00000
      9      -1.9136      2.00000
     10      -1.9136      2.00000
     11      -1.9136      2.00000
     12      -1.9136      2.00000
     13      -0.0230      2.00000
     14      -0.0230      2.00000
     15      -0.0230      2.00000
     16      -0.0230      2.00000
     17       1.2737      2.00000
     18       1.2737      2.00000
     19       1.2737      2.00000
     20       1.2737      2.00000
     21       6.9235      0.00000
     22       6.9235      0.00000
     23       6.9235      0.00000
[...]
     32       8.0291      0.00000

 k-point    32 :      -0.3333    0.1667    0.5000
  band No.  band energies     occupation 
      1      -9.9022      2.00000
      2      -9.9022      2.00000
      3      -9.0941      2.00000
      4      -9.0941      2.00000
      5      -4.8652      2.00000
      6      -4.8652      2.00000
      7      -3.9955      2.00000
      8      -3.9955      2.00000
      9      -0.6332      2.00000
     10      -0.6332      2.00000
     11       0.1264      2.00000
     12       0.1264      2.00000
     13       0.6475      2.00000
     14       0.6475      2.00000
     15       1.7222      2.00000
     16       1.7222      2.00000
     17       1.8558      2.00000
     18       1.8558      2.00000
     19       2.8491      2.00000
     20       2.8491      2.00000
     21       4.5758      0.00000
     22       4.5758      0.00000
     23       5.3443      0.00000
     24       5.3443      0.00000
     25       6.3364      0.00000
     26       6.3364      0.00000
     27       6.6103      0.00000
     28       6.6103      0.00000
     29       7.4933      0.00000
     30       7.4933      0.00000
     31       8.0080      0.00000
     32       8.0080      0.00000

 k-point    33 :       0.1667    0.3333    0.5000
  band No.  band energies     occupation 
      1      -9.8922      2.00000
      2      -9.8922      2.00000
      3      -9.1125      2.00000
      4      -9.1125      2.00000
      5      -4.8143      2.00000
      6      -4.8143      2.00000
      7      -4.0353      2.00000
      8      -4.0353      2.00000
      9      -0.6273      2.00000
     10      -0.6273      2.00000
     11       0.0948      2.00000
     12       0.0948      2.00000
     13       0.7118      2.00000
     14       0.7118      2.00000
     15       1.5438      2.00000
     16       1.5438      2.00000
     17       2.0189      2.00000
     18       2.0189      2.00000
     19       2.8149      2.00000
     20       2.8149      2.00000
     21       4.5772      0.00000
     22       4.5772      0.00000
     23       5.2822      0.00000
     24       5.2822      0.00000
     25       6.5169      0.00000
     26       6.5169      0.00000
     27       6.7224      0.00000
     28       6.7224      0.00000
     29       7.1869      0.00000
     30       7.1869      0.00000
     31       8.0291      0.00000
     32       8.0291      0.00000

 k-point    34 :       0.5000    0.1667    0.5000
  band No.  band energies     occupation 
      1      -9.5499      2.00000
      2      -9.5499      2.00000
      3      -9.2809      2.00000
      4      -9.2809      2.00000
      5      -4.9038      2.00000
      6      -4.9038      2.00000
      7      -4.4068      2.00000
      8      -4.4068      2.00000
      9      -0.0976      2.00000
     10      -0.0976      2.00000
     11       0.1489      2.00000
     12       0.1489      2.00000
     13       0.5827      2.00000
     14       0.5827      2.00000
     15       1.0865      2.00000
     16       1.0865      2.00000
     17       1.8709      2.00000
     18       1.8709      2.00000
     19       2.5370      2.00000
     20       2.5370      2.00000
     21       5.1568      0.00000
     22       5.1568      0.00000
     23       5.1899      0.00000
     24       5.1899      0.00000
     25       6.1919      0.00000
     26       6.1919      0.00000
     27       6.6897      0.00000
     28       6.6897      0.00000
     29       7.0153      0.00000
     30       7.0153      0.00000
     31       7.5893      0.00000
     32       7.5893      0.00000

 k-point    35 :      -0.1667    0.5000    0.5000
  band No.  band energies     occupation 
      1      -9.4226      2.00000
      2      -9.4226      2.00000
      3      -9.4226      2.00000
      4      -9.4226      2.00000
      5      -4.6476      2.00000
      6      -4.6476      2.00000
      7      -4.6476      2.00000
      8      -4.6476      2.00000
      9       0.0491      2.00000
     10       0.0491      2.00000
     11       0.0491      2.00000
     12       0.0491      2.00000
     13       0.7389      2.00000
     14       0.7389      2.00000
     15       0.7389      2.00000
     16       0.7389      2.00000
     17       2.2753      2.00000
     18       2.2753      2.00000
     19       2.2753      2.00000
     20       2.2753      2.00000
     21       5.1149      0.00000
     22       5.1149      0.00000
     23       5.1149      0.00000
     24       5.1149      0.00000
     25       6.6548      0.00000
     26       6.6548      0.00000
     27       6.6548      0.00000
     28       6.6548      0.00000
     29       7.0889      0.00000
     30       7.0889      0.00000
     31       7.0889      0.00000
     32       7.0889      0.00000

 k-point    36 :       0.3333    0.3333    0.5000
  band No.  band energies     occupation 
      1      -9.6024      2.00000
      2      -9.6024      2.00000
      3      -9.0993      2.00000
      4      -9.0993      2.00000
      5      -4.5497      2.00000
      6      -4.5497      2.00000
      7      -4.0429      2.00000
      8      -4.0429      2.00000
      9      -1.4557      2.00000
     10      -1.4557      2.00000
     11      -0.2224      2.00000
     12      -0.2224      2.00000
     13      -0.0358      2.00000
     14      -0.0358      2.00000
     15       0.5588      2.00000
     16       0.5588      2.00000
     17       1.5442      2.00000
     18       1.5442      2.00000
     19       2.2633      2.00000
     20       2.2633      2.00000
     21       5.7291      0.00000
     22       5.7291      0.00000
     23       6.3744      0.00000
     24       6.3744      0.00000
     25       6.8482      0.00000
     26       6.8482      0.00000
     27       7.3004      0.00000
     28       7.3004      0.00000
     29       7.8708      0.00000
     30       7.8708      0.00000
     31       9.0298      0.00000
     32       9.0298      0.00000

 k-point    37 :      -0.3333    0.3333    0.5000
  band No.  band energies     occupation 
      1      -9.6024      2.00000
      2      -9.6024      2.00000
      3      -9.0993      2.00000
      4      -9.0993      2.00000
      5      -4.5497      2.00000
      6      -4.5497      2.00000
      7      -4.0429      2.00000
      8      -4.0429      2.00000
      9      -1.4557      2.00000
     10      -1.4557      2.00000
     11      -0.2224      2.00000
     12      -0.2224      2.00000
     13      -0.0358      2.00000
     14      -0.0358      2.00000
     15       0.5588      2.00000
     16       0.5588      2.00000
     17       1.5442      2.00000
     18       1.5442      2.00000
     19       2.2633      2.00000
     20       2.2633      2.00000
     21       5.7291      0.00000
     22       5.7291      0.00000
     23       6.3744      0.00000
     24       6.3744      0.00000
     25       6.8482      0.00000
     26       6.8482      0.00000
     27       7.3004      0.00000
     28       7.3004      0.00000
     29       7.8708      0.00000
     30       7.8708      0.00000
     31       9.0298      0.00000
     32       9.0298      0.00000

 k-point    38 :       0.5000    0.3333    0.5000
  band No.  band energies     occupation 
      1      -9.3540      2.00000
      2      -9.3540      2.00000
      3      -9.1869      2.00000
      4      -9.1869      2.00000
      5      -4.4495      2.00000
      6      -4.4495      2.00000
      7      -4.0502      2.00000
      8      -4.0502      2.00000
      9      -1.3554      2.00000
     10      -1.3554      2.00000
     11      -1.1561      2.00000
     12      -1.1561      2.00000
     13      -0.0134      2.00000
     14      -0.0134      2.00000
     15       0.2750      2.00000
     16       0.2750      2.00000
     17       1.3761      2.00000
     18       1.3761      2.00000
     19       1.8981      2.00000
     20       1.8981      2.00000
     21       6.1558      0.00000
     22       6.1558      0.00000
     23       6.9572      0.00000
     24       6.9572      0.00000
     25       7.2486      0.00000
     26       7.2486      0.00000
     27       7.2884      0.00000
     28       7.2884      0.00000
     29       8.5856      0.00000
     30       8.5856      0.00000
     31       8.6885      0.00000
     32       8.6885      0.00000

 k-point    39 :      -0.3333    0.5000    0.5000
  band No.  band energies     occupation 
      1      -9.2732      2.00000
      2      -9.2732      2.00000
      3      -9.2732      2.00000
      4      -9.2732      2.00000
      5      -4.2503      2.00000
      6      -4.2503      2.00000
      7      -4.2503      2.00000
      8      -4.2503      2.00000
      9      -1.2497      2.00000
     10      -1.2497      2.00000
     11      -1.2497      2.00000
     12      -1.2497      2.00000
     13       0.1007      2.00000
     14       0.1007      2.00000
     15       0.1007      2.00000
     16       0.1007      2.00000
     17       1.6602      2.00000
     18       1.6602      2.00000
     19       1.6602      2.00000
     20       1.6602      2.00000
     21       6.5313      0.00000
     22       6.5313      0.00000
     23       6.5313      0.00000
     24       6.5313      0.00000
     25       7.2553      0.00000
     26       7.2553      0.00000
     27       7.2553      0.00000
     28       7.2553      0.00000
     29       8.6545      0.00000
     30       8.6545      0.00000
     31       8.6545      0.00000
     32       8.6545      0.00000

 k-point    40 :       0.5000    0.5000    0.5000
  band No.  band energies     occupation 
      1      -9.1930      2.00000
      2      -9.1930      2.00000
      3      -9.1930      2.00000
      4      -9.1930      2.00000
      5      -3.9754      2.00000
      6      -3.9754      2.00000
      7      -3.9754      2.00000
      8      -3.9754      2.00000
      9      -1.7919      2.00000
     10      -1.7919      2.00000
     11      -1.7919      2.00000
     12      -1.7919      2.00000
     13      -0.3778      2.00000
     14      -0.3778      2.00000
     15      -0.3778      2.00000
     16      -0.3778      2.00000
     17       1.6511      2.00000
     18       1.6511      2.00000
     19       1.6511      2.00000
     20       1.6511      2.00000
     21       6.3262      0.00000
     22       6.3262      0.00000
     23       6.3262      0.00000
     24       6.3262      0.00000
     25       8.3104      0.00000
     26       8.3104      0.00000
     27       8.3104      0.00000
     28       8.3104      0.00000
     29       9.3495      0.00000
     30       9.3495      0.00000
     31       9.3495      0.00000
     32       9.3495      0.00000


--------------------------------------------------------------------------------------------------------


 soft charge-density along one line, spin component            1
         0         1         2         3         4         5         6         7         8         9
 total charge-density along one line
 
 pseudopotential strength for first ion, spin component:            1
 14.533  18.131  -0.000   0.045   0.000  -0.000   0.082   0.000
 18.131  22.636  -0.000   0.057   0.000  -0.000   0.103   0.000
 -0.000  -0.000   3.227  -0.000   0.000   5.493  -0.000   0.000
  0.045   0.057  -0.000   3.220  -0.000  -0.000   5.481  -0.000
  0.000   0.000   0.000  -0.000   3.227   0.000  -0.000   5.493
 -0.000  -0.000   5.493  -0.000   0.000   9.408  -0.000   0.000
  0.082   0.103  -0.000   5.481  -0.000  -0.000   9.387  -0.000
  0.000   0.000   0.000  -0.000   5.493   0.000  -0.000   9.408
  0.000   0.000   0.000   0.000  -0.000   0.000   0.000  -0.000
 -0.000  -0.000   0.013  -0.000   0.000   0.023  -0.000   0.000
 -0.009  -0.011   0.000   0.010  -0.000   0.000   0.019  -0.000
 -0.000  -0.000   0.000   0.000   0.013   0.000   0.000   0.023
 -0.000  -0.000   0.000   0.000   0.000   0.000   0.000   0.000
 total augmentation occupancy for first ion, spin component:            1
  2.540  -0.604  -0.000   0.429   0.000   0.000  -0.084  -0.000  -0.000  -0.000   0.027  -0.000  -0.001
 -0.604   0.659   0.000  -0.517  -0.000   0.000   0.082  -0.000   0.000  -0.000  -0.014   0.000  -0.000
 -0.000   0.000   0.951   0.000   0.000  -0.150  -0.000  -0.000  -0.000   0.020  -0.000   0.000  -0.000
  0.429  -0.517   0.000   1.436   0.000  -0.000  -0.231  -0.000   0.000   0.000   0.161  -0.000   0.001
  0.000  -0.000   0.000   0.000   0.946  -0.000  -0.000  -0.148  -0.000  -0.000   0.000   0.021  -0.000
  0.000   0.000  -0.150  -0.000  -0.000   0.026   0.000   0.000   0.000  -0.003  -0.000  -0.000   0.000
 -0.084   0.082  -0.000  -0.231  -0.000   0.000   0.043   0.000  -0.000   0.000  -0.027   0.000  -0.000
 -0.000  -0.000  -0.000  -0.000  -0.148   0.000   0.000   0.026   0.000   0.000   0.000  -0.003   0.000
 -0.000   0.000  -0.000   0.000  -0.000   0.000  -0.000   0.000   0.027   0.000   0.000   0.000   0.000
 -0.000  -0.000   0.020   0.000  -0.000  -0.003   0.000   0.000   0.000   0.010  -0.000   0.000   0.000
  0.027  -0.014  -0.000   0.161   0.000  -0.000  -0.027   0.000   0.000  -0.000   0.034  -0.000   0.000
 -0.000   0.000   0.000  -0.000   0.021  -0.000   0.000  -0.003   0.000   0.000  -0.000   0.010   0.000
 -0.001  -0.000  -0.000   0.001  -0.000   0.000  -0.000   0.000   0.000   0.000   0.000   0.000   0.006


------------------------ aborting loop because EDIFF is reached ----------------------------------------


    CHARGE:  cpu time      0.0035: real time      0.0036
    FORLOC:  cpu time      0.0002: real time      0.0002
    FORNL :  cpu time      0.0211: real time      0.0212
    STRESS:  cpu time      0.1869: real time      0.1876
    FORCOR:  cpu time      0.0033: real time      0.0033
    FORHAR:  cpu time      0.0009: real time      0.0009
    MIXING:  cpu time      0.0009: real time      0.0009
    OFIELD:  cpu time      0.0000: real time      0.0000

  FORCE on cell =-STRESS in cart. coord.  units (eV):
  Direction    XX          YY          ZZ          XY          YZ          ZX
  --------------------------------------------------------------------------------------
  Alpha Z    88.29973    88.29973    88.29973
  Ewald    -486.07523  -479.35178  -472.94184     0.00000    -0.00000    -0.00000
  Hartree    43.63998    49.97716    30.76971     0.00000     0.00000    -0.00000
  E(xc)    -139.79739  -139.82780  -141.26252    -0.00000     0.00000     0.00000
  Local    -125.59698  -138.91882  -127.25771    -0.00000    -0.00000     0.00000
  n-local   235.24487   235.31979   244.33956     0.00000    -0.00000    -0.00000
  augment   -11.61564   -11.65122   -12.09693     0.00000    -0.00000    -0.00000
  Kinetic   392.32780   393.14445   392.74263    -0.00000     0.00000     0.00000
  Fock        0.00000     0.00000     0.00000     0.00000     0.00000     0.00000
  -------------------------------------------------------------------------------------
  Total      -3.57286    -3.00847     2.59264    -0.00000     0.00000     0.00000
  in kB     -29.83036   -25.11821    21.64637    -0.00001     0.00000     0.00000
  external pressure =      -11.10 kB  Pullay stress =        0.00 kB


 VOLUME and BASIS-vectors are now :
 -----------------------------------------------------------------------------
  energy-cutoff  :      360.00
  volume of cell :      191.90
      direct lattice vectors                 reciprocal lattice vectors
     4.150000000  0.000000000  0.000000000     0.240963855  0.000000000  0.000000000
     0.000000000  4.150000000  0.000000000     0.000000000  0.240963855  0.000000000
     0.000000000  0.000000000 11.142221000     0.000000000  0.000000000  0.089748713

  length of vectors
     4.150000000  4.150000000 11.142221000     0.240963855  0.240963855  0.089748713


 FORCES acting on ions
    electron-ion (+dipol)            ewald-force                    non-local-force                 convergence-correction
 -----------------------------------------------------------------------------------------------
   -.595E-07 -.905E-06 0.276E+02   0.341E-14 0.333E-14 -.302E+02   0.481E-07 0.363E-06 0.257E+01   0.197E-07 0.560E-06 -.339E-03
   0.557E-07 0.425E-06 -.276E+02   -.754E-16 -.557E-14 0.302E+02   -.116E-07 -.116E-06 -.257E+01   0.323E-07 -.375E-06 0.344E-03
   -.302E-06 0.427E-06 -.276E+02   -.717E-15 -.550E-14 0.302E+02   0.727E-07 -.202E-06 -.257E+01   0.280E-06 -.284E-06 0.341E-03
   -.454E-07 -.788E-06 0.276E+02   0.423E-14 0.346E-14 -.302E+02   0.633E-07 0.320E-06 0.257E+01   -.117E-06 0.515E-06 -.344E-03
   0.681E-06 -.158E-05 -.318E+02   -.496E-14 0.639E-14 0.339E+02   -.376E-06 0.449E-06 -.210E+01   -.138E-06 0.981E-06 0.145E-02
   -.286E-06 0.137E-05 0.318E+02   -.172E-17 -.410E-14 -.339E+02   0.311E-06 -.140E-06 0.210E+01   -.187E-07 -.121E-05 -.144E-02
   -.536E-06 0.157E-05 0.318E+02   -.253E-14 -.339E-14 -.339E+02   0.175E-06 -.240E-06 0.210E+01   0.263E-06 -.123E-05 -.145E-02
   0.775E-06 -.451E-06 -.318E+02   -.255E-14 0.758E-14 0.339E+02   -.217E-06 0.160E-06 -.210E+01   -.615E-06 0.357E-06 0.144E-02
 -----------------------------------------------------------------------------------------------
   0.282E-06 0.657E-07 -.485E-05   -.320E-14 0.219E-14 0.000E+00   0.647E-07 0.594E-06 -.372E-06   -.294E-06 -.686E-06 0.472E-05
 
 
 POSITION                                       TOTAL-FORCE (eV/Angst)
 -----------------------------------------------------------------------------------
      0.00000      1.03750      1.54818         0.000000      0.000000     -0.001098
      2.07500      3.11250      4.02293         0.000000     -0.000000      0.001098
      0.00000      3.11250      9.59404         0.000000     -0.000000      0.001099
      2.07500      1.03750      7.11929        -0.000000      0.000000     -0.001098
      0.00000      1.03750      4.05260         0.000000     -0.000000      0.015240
      2.07500      3.11250      1.51851        -0.000000      0.000000     -0.015241
      0.00000      3.11250      7.08962        -0.000000      0.000000     -0.015241
      2.07500      1.03750      9.62371        -0.000000      0.000000      0.015240
 -----------------------------------------------------------------------------------
    total drift:                                0.000000     -0.000000     -0.000001


--------------------------------------------------------------------------------------------------------



  FREE ENERGIE OF THE ION-ELECTRON SYSTEM (eV)
  ---------------------------------------------------
  free  energy   TOTEN  =       -33.48013174 eV

  energy  without entropy=      -33.48013174  energy(sigma->0) =      -33.48013174
 


--------------------------------------------------------------------------------------------------------


    POTLOK:  cpu time      0.1141: real time      0.1144


--------------------------------------------------------------------------------------------------------


     LOOP+:  cpu time      4.8856: real time      4.9277
    4ORBIT:  cpu time      0.0000: real time      0.0000

 total amount of memory used by VASP MPI-rank0    38310. kBytes
=======================================================================

   base      :      30000. kBytes
   nonl-proj :       6488. kBytes
   fftplans  :        320. kBytes
   grid      :        462. kBytes
   one-center:         16. kBytes
   wavefun   :       1024. kBytes
 
  
  
 General timing and accounting informations for this job:
 ========================================================
  
                  Total CPU time used (sec):        5.609
                            User time (sec):        5.409
                          System time (sec):        0.200
                         Elapsed time (sec):        7.144
  
                   Maximum memory used (kb):      191944.
                   Average memory used (kb):          N/A
  
                          Minor page faults:        21617
                          Major page faults:           40
                 Voluntary context switches:         4007
