 vasp.6.4.2 20Jul23 (build Oct 12 2023 10:31:02) complex                         
 executed on              LinuxNV date 2024.11.02  00:46:07
 running  128 mpi-ranks, with    1 threads/rank, on    2 nodes
 distrk:  each k-point on   64 cores,    2 groups
 distr:  one band on NCORE=   8 cores,    8 groups


--------------------------------------------------------------------------------------------------------


 INCAR:
   ENCUT = 520.000000
   SIGMA = 0.050000
   EDIFF = 1.00e-06
   ALGO = N
   GGA = PE
   PREC = Accurate
   SYSTEM = 01_AOPT
   ICHARG = 0
   ISMEAR = 0
   ISPIN = 2
   ISTART = 1
   ISYM = -1
   KPAR = 2
   LORBIT = 11
   NBANDS = 220
   NELM = 100
   NELMIN = 5
   NPAR = 8
   LASPH = .TRUE.
   LCHARG = .FALSE.
   LWAVE = .FALSE.
   LREAL = .FALSE.

 POTCAR:    PAW_PBE Ge 05Jan2001                  
 POTCAR:    PAW_PBE Se 06Sep2000                  
 -----------------------------------------------------------------------------
|                                                                             |
|           W    W    AA    RRRRR   N    N  II  N    N   GGGG   !!!           |
|           W    W   A  A   R    R  NN   N  II  NN   N  G    G  !!!           |
|           W    W  A    A  R    R  N N  N  II  N N  N  G       !!!           |
|           W WW W  AAAAAA  RRRRR   N  N N  II  N  N N  G  GGG   !            |
|           WW  WW  A    A  R   R   N   NN  II  N   NN  G    G                |
|           W    W  A    A  R    R  N    N  II  N    N   GGGG   !!!           |
|                                                                             |
|     You use a magnetic or noncollinear calculation, but did not specify     |
|     the initial magnetic moment with the MAGMOM tag. Note that a            |
|     default of 1 will be used for all atoms. This ferromagnetic setup       |
|     may break the symmetry of the crystal, in particular it may rule        |
|     out finding an antiferromagnetic solution. Thence, we recommend         |
|     setting the initial magnetic moment manually or verifying carefully     |
|     that this magnetic setup is desired.                                    |
|                                                                             |
 -----------------------------------------------------------------------------

 POTCAR:    PAW_PBE Ge 05Jan2001                  
   VRHFIN =Ge: s2p2                                                                                 
   LEXCH  = PE                                                                                      
   EATOM  =   104.9960 eV,    7.7170 Ry                                                             
                                                                                                    
   TITEL  = PAW_PBE Ge 05Jan2001                                                                    
   LULTRA =        F    use ultrasoft PP ?                                                          
   IUNSCR =        1    unscreen: 0-lin 1-nonlin 2-no                                               
   RPACOR =    2.170    partial core radius                                                         
   POMASS =   72.610; ZVAL   =    4.000    mass and valenz                                          
   RCORE  =    2.300    outmost cutoff radius                                                       
   RWIGS  =    2.300; RWIGS  =    1.217    wigner-seitz radius (au A)                               
   ENMAX  =  173.807; ENMIN  =  130.355 eV                                                          
   ICORE  =        3    local potential                                                             
   LCOR   =        T    correct aug charges                                                         
   LPAW   =        T    paw PP                                                                      
   EAUG   =  385.843                                                                                
   DEXC   =    0.000                                                                                
   RMAX   =    2.342    core radius for proj-oper                                                   
   RAUG   =    1.300    factor for augmentation sphere                                              
   RDEP   =    2.318    radius for radial grids                                                     
   RDEPT  =    2.103    core radius for aug-charge                                                  
                                                                                                    
   Atomic configuration                                                                             
   10 entries                                                                                       
     n  l   j            E        occ.                                                              
     1  0  0.50    -10959.8463   2.0000                                                             
     2  0  0.50     -1371.6056   2.0000                                                             
     2  1  1.50     -1198.4791   6.0000                                                             
     3  0  0.50      -168.4733   2.0000                                                             
     3  1  1.50      -115.6019   6.0000                                                             
     3  2  2.50       -29.3106  10.0000                                                             
     4  0  0.50       -11.7309   2.0000                                                             
     4  1  0.50        -3.8952   2.0000                                                             
     4  2  1.50        -4.0817   0.0000                                                             
     4  3  2.50        -4.0817   0.0000                                                             
   Description                                                                                      
     l       E           TYP  RCUT    TYP  RCUT                                                     
     0    -11.7309493     23  2.300                                                                 
     0     -7.4578696     23  2.300                                                                 
     1     -3.8952261     23  2.300                                                                 
     1      6.1178114     23  2.300                                                                 
     2     -4.0817478     23  2.300                                                                 
     3     -1.3605826      7  2.300                                                                 
  local pseudopotential read in
  partial core-charges read in
  partial kinetic energy density read in
  atomic valenz-charges read in
  non local Contribution for L=            0  read in
    real space projection operators read in
  non local Contribution for L=            0  read in
    real space projection operators read in
  non local Contribution for L=            1  read in
    real space projection operators read in
  non local Contribution for L=            1  read in
    real space projection operators read in
  non local Contribution for L=            2  read in
    real space projection operators read in
    PAW grid and wavefunctions read in
 
   number of l-projection  operators is LMAX  =            5
   number of lm-projection operators is LMMAX =           13
 
 POTCAR:    PAW_PBE Se 06Sep2000                  
   VRHFIN =Se: s2p4                                                                                 
   LEXCH  = PE                                                                                      
   EATOM  =   257.1286 eV,   18.8984 Ry                                                             
                                                                                                    
   TITEL  = PAW_PBE Se 06Sep2000                                                                    
   LULTRA =        F    use ultrasoft PP ?                                                          
   IUNSCR =        1    unscreen: 0-lin 1-nonlin 2-no                                               
   RPACOR =    1.900    partial core radius                                                         
   POMASS =   78.960; ZVAL   =    6.000    mass and valenz                                          
   RCORE  =    2.100    outmost cutoff radius                                                       
   RWIGS  =    2.200; RWIGS  =    1.164    wigner-seitz radius (au A)                               
   ENMAX  =  211.555; ENMIN  =  158.666 eV                                                          
   ICORE  =        3    local potential                                                             
   LCOR   =        T    correct aug charges                                                         
   LPAW   =        T    paw PP                                                                      
   EAUG   =  446.842                                                                                
   DEXC   =    0.000                                                                                
   RMAX   =    2.147    core radius for proj-oper                                                   
   RAUG   =    1.300    factor for augmentation sphere                                              
   RDEP   =    2.177    radius for radial grids                                                     
   RDEPT  =    1.928    core radius for aug-charge                                                  
                                                                                                    
   Atomic configuration                                                                             
   10 entries                                                                                       
     n  l   j            E        occ.                                                              
     1  0  0.50    -12503.4787   2.0000                                                             
     2  0  0.50     -1606.9547   2.0000                                                             
     2  1  1.50     -1413.3140   6.0000                                                             
     3  0  0.50      -213.4885   2.0000                                                             
     3  1  1.50      -152.9538   6.0000                                                             
     3  2  2.50       -53.1221  10.0000                                                             
     4  0  0.50       -17.2865   2.0000                                                             
     4  1  0.50        -6.5110   4.0000                                                             
     4  2  2.50        -6.8029   0.0000                                                             
     4  3  2.50        -6.8029   0.0000                                                             
   Description                                                                                      
     l       E           TYP  RCUT    TYP  RCUT                                                     
     0    -17.2865377     23  2.100                                                                 
     0    -15.3094411     23  2.100                                                                 
     1     -6.5110275     23  2.100                                                                 
     1     -0.0695192     23  2.100                                                                 
     2     -6.8029130     23  2.100                                                                 
     3     -1.3605826      7  2.100                                                                 
  local pseudopotential read in
  partial core-charges read in
  partial kinetic energy density read in
  atomic valenz-charges read in
  non local Contribution for L=            0  read in
    real space projection operators read in
  non local Contribution for L=            0  read in
    real space projection operators read in
  non local Contribution for L=            1  read in
    real space projection operators read in
  non local Contribution for L=            1  read in
    real space projection operators read in
  non local Contribution for L=            2  read in
    real space projection operators read in
    PAW grid and wavefunctions read in
 
   number of l-projection  operators is LMAX  =            5
   number of lm-projection operators is LMMAX =           13
 
 -----------------------------------------------------------------------------
|                                                                             |
|               ----> ADVICE to this user running VASP <----                  |
|                                                                             |
|     You have a (more or less) 'large supercell' and for larger cells it     |
|     might be more efficient to use real-space projection operators.         |
|     Therefore, try LREAL= Auto in the INCAR file.                           |
|     Mind: For very accurate calculation, you might also keep the            |
|     reciprocal projection scheme (i.e. LREAL=.FALSE.).                      |
|                                                                             |
 -----------------------------------------------------------------------------

  PAW_PBE Ge 05Jan2001                  :
 energy of atom  1       EATOM= -104.9960
 kinetic energy error for atom=    0.0002 (will be added to EATOM!!)
  PAW_PBE Se 06Sep2000                  :
 energy of atom  2       EATOM= -257.1286
 kinetic energy error for atom=    0.0007 (will be added to EATOM!!)
 
 
 POSCAR: Ge Se
  positions in cartesian coordinates
  No initial velocities read in
 exchange correlation table for  LEXCH =        8
   RHO(1)=    0.500       N(1)  =     2000
   RHO(2)=  100.500       N(2)  =     4000
 


--------------------------------------------------------------------------------------------------------


 ion  position               nearest neighbor table
   1  0.067  0.066  0.104-  54 2.62  45 2.64  55 2.69
   2  0.231  0.878  0.368-  67 2.51  48 2.62  45 2.75
   3  0.546  0.192  0.371-  68 2.44  49 2.70
   4  0.573  0.542  0.372-  69 2.45  72 2.65  50 2.82
   5  0.583  0.887  0.380-  44 2.52  70 2.69
   6  0.920  0.209  0.363-  55 2.48  46 2.60
   7  0.894  0.538  0.361-  71 2.60  47 2.67  72 2.69
   8  0.912  0.890  0.380-  45 2.53  53 2.68  44 2.72
   9  0.076  0.145  0.627-  57 2.51  51 2.53  37 2.68
  10  0.118  0.490  0.605-  38 2.47  39 2.73  58 2.73
  11  0.062  0.800  0.628-  39 2.66  59 2.69  52 2.76
  12  0.399  0.133  0.634-  51 2.50  60 2.59  40 2.67
  13  0.407  0.489  0.636-  61 2.57  41 2.60  38 2.63
  14  0.422  0.839  0.644-  62 2.45  40 2.61  42 2.81
  15  0.754  0.177  0.631-  43 2.61  37 2.65  63 2.66
  16  0.737  0.474  0.618-  43 2.56  64 2.61  41 2.75
  17  0.248  0.547  0.368-  66 2.53  50 2.66  47 2.85
  18  0.236  0.215  0.382-  46 2.57  49 2.59  54 2.66
  19  0.746  0.803  0.628-  65 2.52  52 2.54  42 2.63
  20  0.908  0.621  0.873-  58 2.58  52 2.61  64 2.61
  21  0.904  0.993  0.864-  37 2.50  65 2.65  59 2.82
  22  0.073  0.380  0.127-  46 2.50  66 2.55  71 2.75
  23  0.054  0.718  0.128-  53 2.57  47 2.65  67 2.75
  24  0.396  0.039  0.136-  48 2.49  54 2.58  68 2.67
  25  0.405  0.394  0.106-  69 2.55  66 2.68  49 2.77
  26  0.737  0.052  0.147-  44 2.61  68 2.69  55 2.78
  27  0.722  0.368  0.149-  56 2.49  69 2.74  71 2.76
  28  0.400  0.722  0.132-  67 2.56  70 2.63  50 2.63
  29  0.254  0.333  0.869-  60 2.58  38 2.62
  30  0.241  0.689  0.863-  39 2.45  62 2.64  59 2.85
  31  0.241  0.976  0.895-  62 2.55  51 2.67
  32  0.579  0.314  0.860-  41 2.44  63 2.82  60 2.84
  33  0.600  0.649  0.860-  42 2.52  61 2.52  64 2.58
  34  0.596  0.006  0.874-  40 2.53  63 2.67  65 2.69
  35  0.921  0.340  0.878-  58 2.57  43 2.68  57 2.75
  36  0.726  0.714  0.124-  72 2.58  70 2.65  53 2.79
  37  0.899  0.022  0.640-  21 2.50  15 2.65   9 2.68
  38  0.252  0.346  0.633-  10 2.47  29 2.62  13 2.63
  39  0.233  0.673  0.643-  30 2.45  11 2.66  10 2.73
  40  0.562  0.995  0.649-  34 2.53  14 2.61  12 2.67
  41  0.558  0.346  0.644-  32 2.44  13 2.60  16 2.75
  42  0.577  0.676  0.636-  33 2.52  19 2.63  14 2.81
  43  0.890  0.337  0.640-  16 2.56  15 2.61  35 2.68
  44  0.736  0.020  0.380-   5 2.52  26 2.61   8 2.72
  45  0.064  0.019  0.336-   8 2.53   1 2.64   2 2.75
  46  0.079  0.345  0.348-  22 2.50  18 2.57   6 2.60
  47  0.058  0.676  0.363-  23 2.65   7 2.67  17 2.85
  48  0.392  0.014  0.359-  24 2.49   2 2.62
  49  0.395  0.346  0.350-  18 2.59   3 2.70  25 2.77
  50  0.404  0.693  0.368-  28 2.63  17 2.66   4 2.82
  51  0.234  0.021  0.660-  12 2.50   9 2.53  31 2.67
  52  0.891  0.660  0.643-  19 2.54  20 2.61  11 2.76
  53  0.900  0.855  0.142-  23 2.57   8 2.68  36 2.79
  54  0.242  0.178  0.145-  24 2.58   1 2.62  18 2.66
  55  0.902  0.202  0.140-   6 2.48   1 2.69  26 2.78
  56  0.720  0.346  0.372-  27 2.49
  57  0.074  0.183  0.849-   9 2.51  35 2.75
  58  0.063  0.486  0.843-  35 2.57  20 2.58  10 2.73
  59  0.062  0.832  0.868-  11 2.69  21 2.82  30 2.85
  60  0.394  0.181  0.862-  29 2.58  12 2.59  32 2.84
  61  0.442  0.522  0.861-  33 2.52  13 2.57
  62  0.390  0.840  0.861-  14 2.45  31 2.55  30 2.64
  63  0.745  0.161  0.870-  15 2.66  34 2.67  32 2.82
  64  0.740  0.496  0.852-  33 2.58  16 2.61  20 2.61
  65  0.745  0.852  0.849-  19 2.52  21 2.65  34 2.69
  66  0.228  0.513  0.144-  17 2.53  22 2.55  25 2.68
  67  0.236  0.844  0.145-   2 2.51  28 2.56  23 2.75
  68  0.560  0.176  0.152-   3 2.44  24 2.67  26 2.69
  69  0.561  0.519  0.154-   4 2.45  25 2.55  27 2.74
  70  0.566  0.853  0.142-  28 2.63  36 2.65   5 2.69
  71  0.892  0.509  0.128-   7 2.60  22 2.75  27 2.76
  72  0.733  0.682  0.354-  36 2.58   4 2.65   7 2.69
 

IMPORTANT INFORMATION: All symmetrisations will be switched off!
NOSYMM: (Re-)initialisation of all symmetry stuff for point group C_1.


----------------------------------------------------------------------------------------

                                     Primitive cell                                     

  volume of cell :    1720.8091

  direct lattice vectors                    reciprocal lattice vectors
    12.402731250 -0.000001644 -0.000003398     0.080627402  0.000000011  0.000000028
    -0.000001659 12.519506923  0.000001404     0.000000011  0.079875350 -0.000000012
    -0.000003908  0.000001600 11.082255023     0.000000025 -0.000000010  0.090234343

  length of vectors
    12.402731250 12.519506923 11.082255023     0.080627402  0.079875350  0.090234343

  position of ions in fractional coordinates (direct lattice)
     0.067132482  0.065877325  0.104269370
     0.231336736  0.878035243  0.367899192
     0.546117881  0.191628273  0.370692460
     0.572976545  0.542282095  0.372482556
     0.582792124  0.887411054  0.380198598
     0.920220749  0.208927312  0.362929330
     0.894471764  0.538143510  0.360902302
     0.911823671  0.889889591  0.379713201
     0.075737165  0.145072195  0.626588147
     0.118083653  0.490292832  0.604907513
     0.062222516  0.800165610  0.628045848
     0.399321766  0.133094885  0.634328215
     0.406982557  0.488844986  0.635897939
     0.422211864  0.839170029  0.643545720
     0.754151369  0.177263113  0.631089847
     0.737113286  0.474077627  0.617861316
     0.247562893  0.546973233  0.367899665
     0.236055619  0.214921966  0.381887396
     0.746422673  0.803274328  0.628249467
     0.907872928  0.620759846  0.873100154
     0.903685105  0.993238160  0.863783383
     0.072649622  0.380414606  0.126524174
     0.054303794  0.718100640  0.128085040
     0.395793644  0.039068902  0.135779142
     0.404674234  0.393748728  0.106201429
     0.736910448  0.052326933  0.147454256
     0.721911997  0.368370741  0.148923097
     0.400322384  0.721972853  0.132198880
     0.254471901  0.332845295  0.869162672
     0.240868435  0.689171298  0.862877244
     0.240612150  0.976331353  0.895240864
     0.578792480  0.314411726  0.859674940
     0.600432701  0.648691546  0.860019649
     0.596298445  0.006288361  0.873759014
     0.921171264  0.340077402  0.878468834
     0.726073140  0.713643423  0.124423967
     0.899160246  0.022048312  0.640299272
     0.251716422  0.345650675  0.632772348
     0.233482578  0.672863962  0.642684100
     0.562412902  0.995077027  0.648839398
     0.558434713  0.345897528  0.643608549
     0.577402554  0.676041837  0.636373329
     0.889507747  0.337101217  0.639524677
     0.736282977  0.019728980  0.380081085
     0.064160712  0.019263061  0.336254468
     0.078589727  0.344500383  0.348259934
     0.058439467  0.676111380  0.362733451
     0.392069319  0.014179000  0.359085249
     0.395142006  0.345931020  0.350244014
     0.403806162  0.692949684  0.367601057
     0.234064118  0.020671598  0.659735493
     0.890819254  0.660315310  0.642841918
     0.900085801  0.854504185  0.141876919
     0.241935074  0.177602669  0.145329406
     0.902289449  0.202072431  0.139918013
     0.719591501  0.346154646  0.371759252
     0.074222235  0.183127692  0.849019909
     0.062931161  0.486068147  0.843461309
     0.062050860  0.831917141  0.868043083
     0.394142180  0.180785001  0.861847281
     0.442192250  0.522155355  0.861333629
     0.389889242  0.839633945  0.861337695
     0.744911933  0.161043933  0.869937866
     0.740197963  0.495768528  0.851643151
     0.745342563  0.851707361  0.848888573
     0.228424574  0.512765464  0.144113459
     0.235553339  0.844287081  0.144530981
     0.559763243  0.176199046  0.151874711
     0.560990190  0.518570639  0.153808478
     0.566021881  0.852748590  0.141683481
     0.892435541  0.508778357  0.128332523
     0.732729624  0.681752860  0.354439487

  ion indices of the primitive-cell ions
   primitive index   ion index
                 1           1
                 2           2
                 3           3
                 4           4
                 5           5
                 6           6
                 7           7
                 8           8
                 9           9
                10          10
                11          11
                12          12
                13          13
                14          14
                15          15
                16          16
                17          17
                18          18
                19          19
                20          20
                21          21
                22          22
                23          23
                24          24
                25          25
                26          26
                27          27
                28          28
                29          29
                30          30
                31          31
                32          32
                33          33
                34          34
                35          35
                36          36
                37          37
                38          38
                39          39
                40          40
                41          41
                42          42
                43          43
                44          44
                45          45
                46          46
                47          47
                48          48
                49          49
                50          50
                51          51
                52          52
                53          53
                54          54
                55          55
                56          56
                57          57
                58          58
                59          59
                60          60
                61          61
                62          62
                63          63
                64          64
                65          65
                66          66
                67          67
                68          68
                69          69
                70          70
                71          71
                72          72

----------------------------------------------------------------------------------------

 
 
 KPOINTS: KPOINTS created by Atomic Simulation Env

Automatic generation of k-mesh.
 Grid dimensions read from file:
 generate k-points for:    2    2    2

 Generating k-lattice:

  Cartesian coordinates                     Fractional coordinates (reciprocal lattice)
     0.040313701  0.000000005  0.000000014     0.500000000  0.000000000  0.000000000
     0.000000005  0.039937675 -0.000000006    -0.000000000  0.500000000  0.000000000
     0.000000012 -0.000000005  0.045117171    -0.000000000  0.000000000  0.500000000

  Length of vectors
     0.040313701  0.039937675  0.045117171

  Shift w.r.t. Gamma in fractional coordinates (k-lattice)
     0.000000000  0.000000000  0.000000000

 
 Subroutine IBZKPT returns following result:
 ===========================================
 
 Found      8 irreducible k-points:
 
 Following reciprocal coordinates:
            Coordinates               Weight
  0.000000  0.000000  0.000000      1.000000
  0.500000  0.000000  0.000000      1.000000
  0.000000  0.500000  0.000000      1.000000
  0.500000  0.500000  0.000000      1.000000
  0.000000  0.000000  0.500000      1.000000
  0.500000  0.000000  0.500000      1.000000
  0.000000  0.500000  0.500000      1.000000
  0.500000  0.500000  0.500000      1.000000
 
 Following cartesian coordinates:
            Coordinates               Weight
  0.000000  0.000000  0.000000      1.000000
  0.040314  0.000000  0.000000      1.000000
  0.000000  0.039938 -0.000000      1.000000
  0.040314  0.039938  0.000000      1.000000
  0.000000 -0.000000  0.045117      1.000000
  0.040314  0.000000  0.045117      1.000000
  0.000000  0.039938  0.045117      1.000000
  0.040314  0.039938  0.045117      1.000000
 
 -----------------------------------------------------------------------------
|                                                                             |
|           W    W    AA    RRRRR   N    N  II  N    N   GGGG   !!!           |
|           W    W   A  A   R    R  NN   N  II  NN   N  G    G  !!!           |
|           W    W  A    A  R    R  N N  N  II  N N  N  G       !!!           |
|           W WW W  AAAAAA  RRRRR   N  N N  II  N  N N  G  GGG   !            |
|           WW  WW  A    A  R   R   N   NN  II  N   NN  G    G                |
|           W    W  A    A  R    R  N    N  II  N    N   GGGG   !!!           |
|                                                                             |
|     The number of bands has been changed from the values supplied in        |
|     the INCAR file. This is a result of running the parallel version.       |
|     The orbitals not found in the WAVECAR file will be initialized with     |
|     random numbers, which is usually adequate. For correlated               |
|     calculations, however, you should redo the groundstate calculation.     |
|     I found NBANDS = 220. Now, NBANDS = 224.                                |
|                                                                             |
 -----------------------------------------------------------------------------



--------------------------------------------------------------------------------------------------------




 Dimension of arrays:
   k-points           NKPTS =      8   k-points in BZ     NKDIM =      8   number of bands    NBANDS=    224
   number of dos      NEDOS =    301   number of ions     NIONS =     72
   non local maximal  LDIM  =      5   non local SUM 2l+1 LMDIM =     13
   total plane-waves  NPLWV = 774144
   max r-space proj   IRMAX =      1   max aug-charges    IRDMAX=  24647
   dimension x,y,z NGX =    96 NGY =   96 NGZ =   84
   dimension x,y,z NGXF=   192 NGYF=  192 NGZF=  168
   support grid    NGXF=   192 NGYF=  192 NGZF=  168
   ions per type =              36  36
   NGX,Y,Z   is equivalent  to a cutoff of  12.87, 12.75, 12.60 a.u.
   NGXF,Y,Z  is equivalent  to a cutoff of  25.74, 25.50, 25.20 a.u.

 SYSTEM =  01_AOPT                                 
 POSCAR =  Ge Se                                   

 Startparameter for this run:
   NWRITE =      2    write-flag & timer
   PREC   = accura    normal or accurate (medium, high low for compatibility)
   ISTART =      0    job   : 0-new  1-cont  2-samecut
   ICHARG =      2    charge: 1-file 2-atom 10-const
   ISPIN  =      2    spin polarized calculation?
   LNONCOLLINEAR =      F non collinear calculations
   LSORBIT =      F    spin-orbit coupling
   INIWAV =      1    electr: 0-lowe 1-rand  2-diag
   LASPH  =      T    aspherical Exc in radial PAW
 Electronic Relaxation 1
   ENCUT  =  520.0 eV  38.22 Ry    6.18 a.u.  23.06 23.28 20.61*2*pi/ulx,y,z
   ENINI  =  520.0     initial cutoff
   ENAUG  =  446.8 eV  augmentation charge cutoff
   NELM   =    100;   NELMIN=  5; NELMDL=  0     # of ELM steps 
   EDIFF  = 0.1E-05   stopping-criterion for ELM
   LREAL  =      F    real-space projection
   NLSPLINE    = F    spline interpolate recip. space projectors
   LCOMPAT=      F    compatible to vasp.4.4
   GGA_COMPAT  = T    GGA compatible to vasp.4.4-vasp.4.6
   LMAXPAW     = -100 max onsite density
   LMAXMIX     =    2 max onsite mixed and CHGCAR
   VOSKOWN=      0    Vosko Wilk Nusair interpolation
   ROPT   =    0.00000   0.00000
 Ionic relaxation
   EDIFFG = 0.1E-04   stopping-criterion for IOM
   NSW    =      0    number of steps for IOM
   NBLOCK =      1;   KBLOCK =      1    inner block; outer block 
   IBRION =     -1    ionic relax: 0-MD 1-quasi-New 2-CG
   NFREE  =      0    steps in history (QN), initial steepest desc. (CG)
   ISIF   =      2    stress and relaxation
   IWAVPR =     10    prediction:  0-non 1-charg 2-wave 3-comb
   ISYM   =     -1    0-nonsym 1-usesym 2-fastsym
   LCORR  =      T    Harris-Foulkes like correction to forces

   POTIM  = 0.5000    time-step for ionic-motion
   TEIN   =    0.0    initial temperature
   TEBEG  =    0.0;   TEEND  =   0.0 temperature during run
   SMASS  =  -3.00    Nose mass-parameter (am)
   estimated Nose-frequenzy (Omega)   =  0.10E-29 period in steps = 0.13E+47 mass=  -0.352E-26a.u.
   SCALEE = 1.0000    scale energy and forces
   NPACO  =    256;   APACO  = 10.0  distance and # of slots for P.C.
   PSTRESS=    0.0 pullay stress

  Mass of Ions in am
   POMASS =  72.61 78.96
  Ionic Valenz
   ZVAL   =   4.00  6.00
  Atomic Wigner-Seitz radii
   RWIGS  =  -1.00 -1.00
  virtual crystal weights 
   VCA    =   1.00  1.00
   NELECT =     360.0000    total number of electrons
   NUPDOWN=      -1.0000    fix difference up-down

 DOS related values:
   EMIN   =  10.00;   EMAX   =-10.00  energy-range for DOS
   EFERMI =   0.00;   METHOD = LEGACY      
   ISMEAR =     0;   SIGMA  =   0.05  broadening in eV -4-tet -1-fermi 0-gaus

 Electronic relaxation 2 (details)
   IALGO  =     38    algorithm
   LDIAG  =      T    sub-space diagonalisation (order eigenvalues)
   LSUBROT=      F    optimize rotation matrix (better conditioning)
   TURBO    =      0    0=normal 1=particle mesh
   IRESTART =      0    0=no restart 2=restart with 2 vectors
   NREBOOT  =      0    no. of reboots
   NMIN     =      0    reboot dimension
   EREF     =   0.00    reference energy to select bands
   IMIX   =      4    mixing-type and parameters
     AMIX     =   0.40;   BMIX     =  1.00
     AMIX_MAG =   1.60;   BMIX_MAG =  1.00
     AMIN     =   0.10
     WC   =   100.;   INIMIX=   1;  MIXPRE=   1;  MAXMIX= -45

 Intra band minimization:
   WEIMIN = 0.0000     energy-eigenvalue tresh-hold
   EBREAK =  0.11E-08  absolut break condition
   DEPER  =   0.30     relativ break condition  

   TIME   =   0.40     timestep for ELM

  volume/ion in A,a.u.               =      23.90       161.29
  Fermi-wavevector in a.u.,A,eV,Ry     =   0.971847  1.836525 12.850532  0.944487
  Thomas-Fermi vector in A             =   2.102098
 
 Write flags
   LWAVE        =      F    write WAVECAR
   LDOWNSAMPLE  =      F    k-point downsampling of WAVECAR
   LCHARG       =      F    write CHGCAR
   LVTOT        =      F    write LOCPOT, total local potential
   LVHAR        =      F    write LOCPOT, Hartree potential only
   LELF         =      F    write electronic localiz. function (ELF)
   LORBIT       =     11    0 simple, 1 ext, 2 COOP (PROOUT), +10 PAW based schemes


 Dipole corrections
   LMONO  =      F    monopole corrections only (constant potential shift)
   LDIPOL =      F    correct potential (dipole corrections)
   IDIPOL =      0    1-x, 2-y, 3-z, 4-all directions 
   EPSILON=  1.0000000 bulk dielectric constant

 Exchange correlation treatment:
   GGA     =    PE    GGA type
   LEXCH   =     8    internal setting for exchange type
   LIBXC   =     F    Libxc                    
   VOSKOWN =     0    Vosko Wilk Nusair interpolation
   LHFCALC =     F    Hartree Fock is set to
   LHFONE  =     F    Hartree Fock one center treatment
   AEXX    =    0.0000 exact exchange contribution

 Linear response parameters
   LEPSILON=     F    determine dielectric tensor
   LRPA    =     F    only Hartree local field effects (RPA)
   LNABLA  =     F    use nabla operator in PAW spheres
   LVEL    =     F    velocity operator in full k-point grid
   CSHIFT  =0.1000    complex shift for real part using Kramers Kronig
   OMEGAMAX=  -1.0    maximum frequency
   DEG_THRESHOLD= 0.2000000E-02 threshold for treating states as degnerate
   RTIME   =   -0.100 relaxation time in fs
  (WPLASMAI=    0.000 imaginary part of plasma frequency in eV, 0.658/RTIME)
   DFIELD  = 0.0000000 0.0000000 0.0000000 field for delta impulse in time
 
  Optional k-point grid parameters
   LKPOINTS_OPT  =     F    use optional k-point grid
   KPOINTS_OPT_MODE=     1    mode for optional k-point grid
 
 Orbital magnetization related:
   ORBITALMAG=     F  switch on orbital magnetization
   LCHIMAG   =     F  perturbation theory with respect to B field
   DQ        =  0.001000  dq finite difference perturbation B field
   LLRAUG    =     F  two centre corrections for induced B field
   LBONE     =     F  B-component reconstruction in AE one-centre
   LVGVCALC  =     T  calculate vGv susceptibility
   LVGVAPPL  =     F  apply vGv susceptibility instead of pGv for G=0

 Random number generation:
   RANDOM_GENERATOR = DEFAULT
   PCG_SEED         = not used


--------------------------------------------------------------------------------------------------------


 Static calculation
 charge density and potential will be updated during run
 spin polarized calculation
 Variant of blocked Davidson
 Davidson routine will perform the subspace rotation
 perform sub-space diagonalisation
    after iterative eigenvector-optimisation
 modified Broyden-mixing scheme, WC =      100.0
 initial mixing is a Kerker type mixing with AMIX =  0.4000 and BMIX =      1.0000
 Hartree-type preconditioning will be used
 using additional bands            44
 reciprocal scheme for non local part
 use partial core corrections
 calculate Harris-corrections to forces 
   (improved forces if not selfconsistent)
 use gradient corrections 
 use of overlap-Matrix (Vanderbilt PP)
 Gauss-broadening in eV      SIGMA  =   0.05


--------------------------------------------------------------------------------------------------------


  energy-cutoff  :      520.00
  volume of cell :     1720.81
      direct lattice vectors                 reciprocal lattice vectors
    12.402731250 -0.000001644 -0.000003398     0.080627402  0.000000011  0.000000028
    -0.000001659 12.519506923  0.000001404     0.000000011  0.079875350 -0.000000012
    -0.000003908  0.000001600 11.082255023     0.000000025 -0.000000010  0.090234343

  length of vectors
    12.402731250 12.519506923 11.082255023     0.080627402  0.079875350  0.090234343


 
 k-points in units of 2pi/SCALE and weight: KPOINTS created by Atomic Simulation Env
   0.00000000  0.00000000  0.00000000       0.125
   0.04031370  0.00000001  0.00000001       0.125
   0.00000001  0.03993768 -0.00000001       0.125
   0.04031371  0.03993768  0.00000001       0.125
   0.00000001 -0.00000001  0.04511717       0.125
   0.04031371  0.00000000  0.04511719       0.125
   0.00000002  0.03993767  0.04511717       0.125
   0.04031372  0.03993768  0.04511718       0.125
 
 k-points in reciprocal lattice and weights: KPOINTS created by Atomic Simulation Env
   0.00000000  0.00000000  0.00000000       0.125
   0.50000000  0.00000000  0.00000000       0.125
   0.00000000  0.50000000  0.00000000       0.125
   0.50000000  0.50000000  0.00000000       0.125
   0.00000000  0.00000000  0.50000000       0.125
   0.50000000  0.00000000  0.50000000       0.125
   0.00000000  0.50000000  0.50000000       0.125
   0.50000000  0.50000000  0.50000000       0.125
 
 position of ions in fractional coordinates (direct lattice) 
   0.06713248  0.06587732  0.10426937
   0.23133674  0.87803524  0.36789919
   0.54611788  0.19162827  0.37069246
   0.57297654  0.54228209  0.37248256
   0.58279212  0.88741105  0.38019860
   0.92022075  0.20892731  0.36292933
   0.89447176  0.53814351  0.36090230
   0.91182367  0.88988959  0.37971320
   0.07573717  0.14507220  0.62658815
   0.11808365  0.49029283  0.60490751
   0.06222252  0.80016561  0.62804585
   0.39932177  0.13309488  0.63432821
   0.40698256  0.48884499  0.63589794
   0.42221186  0.83917003  0.64354572
   0.75415137  0.17726311  0.63108985
   0.73711329  0.47407763  0.61786132
   0.24756289  0.54697323  0.36789967
   0.23605562  0.21492197  0.38188740
   0.74642267  0.80327433  0.62824947
   0.90787293  0.62075985  0.87310015
   0.90368511  0.99323816  0.86378338
   0.07264962  0.38041461  0.12652417
   0.05430379  0.71810064  0.12808504
   0.39579364  0.03906890  0.13577914
   0.40467423  0.39374873  0.10620143
   0.73691045  0.05232693  0.14745426
   0.72191200  0.36837074  0.14892310
   0.40032238  0.72197285  0.13219888
   0.25447190  0.33284529  0.86916267
   0.24086844  0.68917130  0.86287724
   0.24061215  0.97633135  0.89524086
   0.57879248  0.31441173  0.85967494
   0.60043270  0.64869155  0.86001965
   0.59629845  0.00628836  0.87375901
   0.92117126  0.34007740  0.87846883
   0.72607314  0.71364342  0.12442397
   0.89916025  0.02204831  0.64029927
   0.25171642  0.34565067  0.63277235
   0.23348258  0.67286396  0.64268410
   0.56241290  0.99507703  0.64883940
   0.55843471  0.34589753  0.64360855
   0.57740255  0.67604184  0.63637333
   0.88950775  0.33710122  0.63952468
   0.73628298  0.01972898  0.38008109
   0.06416071  0.01926306  0.33625447
   0.07858973  0.34450038  0.34825993
   0.05843947  0.67611138  0.36273345
   0.39206932  0.01417900  0.35908525
   0.39514201  0.34593102  0.35024401
   0.40380616  0.69294968  0.36760106
   0.23406412  0.02067160  0.65973549
   0.89081925  0.66031531  0.64284192
   0.90008580  0.85450419  0.14187692
   0.24193507  0.17760267  0.14532941
   0.90228945  0.20207243  0.13991801
   0.71959150  0.34615465  0.37175925
   0.07422223  0.18312769  0.84901991
   0.06293116  0.48606815  0.84346131
   0.06205086  0.83191714  0.86804308
   0.39414218  0.18078500  0.86184728
   0.44219225  0.52215536  0.86133363
   0.38988924  0.83963395  0.86133770
   0.74491193  0.16104393  0.86993787
   0.74019796  0.49576853  0.85164315
   0.74534256  0.85170736  0.84888857
   0.22842457  0.51276546  0.14411346
   0.23555334  0.84428708  0.14453098
   0.55976324  0.17619905  0.15187471
   0.56099019  0.51857064  0.15380848
   0.56602188  0.85274859  0.14168348
   0.89243554  0.50877836  0.12833252
   0.73272962  0.68175286  0.35443949
 
 position of ions in cartesian coordinates  (Angst):
   0.83262562  0.82475168  1.15553961
   2.86920447 10.99256852  4.07715312
   6.77335154  2.39909119  4.10810680
   7.10647174  6.78910409  4.12794549
   7.22821113 11.10994848  4.21345709
  11.41324888  2.61566600  4.02207256
  11.09389059  6.73729051  3.99960907
  11.30910098 11.14097800  4.20807668
   0.93934502  1.81623323  6.94400959
   1.46455663  6.13822528  6.70373961
   0.77172536 10.01767980  6.96016516
   4.95267784  1.66628269  7.02978588
   5.04769198  6.12009854  7.04718243
   5.23657637 10.50599533  7.13193753
   9.35353399  2.21924654  6.99389631
   9.14221479  5.93521791  6.84729483
   3.07045369  6.84783536  4.07715784
   2.92773255  2.69071726  4.23217301
   9.25767602 10.05659829  6.96241940
  11.26009949  7.77160710  9.67591636
  11.20815847 12.43485191  9.57266605
   0.90105261  4.76260338  1.40217345
   0.67351367  8.99026605  1.41947190
   4.90892160  0.48912295  1.50473779
   5.01906470  4.92953943  1.17695050
   9.13970158  0.65510642  1.63412324
   8.95367930  4.61181909  1.65040180
   4.96508923  9.03874369  1.46506135
   3.15614265  4.16705994  9.63228199
   2.98742195  8.62808582  9.56262582
   2.98424271 12.22318816  9.92128811
   7.17860370  3.93628021  9.52713539
   7.44700099  8.12129869  9.53095595
   7.39572594  0.07872760  9.68321820
  11.42503562  4.25760128  9.73541299
   9.00528835  8.93446278  1.37889667
  11.15204034  0.27603354  7.09595680
   3.12196808  4.32737662  7.01254416
   2.89581804  8.42392568  7.12238925
   6.97545189 12.45787384  7.19060316
   6.92611257  4.33046661  7.13263267
   7.16136509  8.46371053  7.05245051
  11.03232247  4.22034059  7.08737301
   9.13191837  0.24699650  4.21215304
   0.79576672  0.24116446  3.72645757
   0.97472534  4.31297536  3.85950562
   0.72480646  8.46458159  4.01990536
   4.86272896  0.17751402  3.97947299
   4.90083817  4.33088571  3.88149262
   5.00829671  8.67538829  4.07384826
   2.90303174  0.25879889  7.31135621
  11.04858819  8.26682166  7.12413598
  11.16352032 10.69796981  1.57231434
   3.00065485  2.22349768  1.61057697
  11.19085267  2.52984595  1.55060432
   8.92489797  4.33368490  4.11992887
   0.92055481  2.29266965  9.40905516
   0.78051417  6.08533478  9.34745380
   0.76959536 10.41519369  9.61987577
   4.88843587  2.26333981  9.55121027
   5.48438740  6.53712823  9.54551817
   4.83568672 10.51180373  9.54556385
   9.23893885  2.01619081  9.64087098
   9.18047225  6.20677766  9.43812477
   9.24427876 10.66295633  9.40759832
   2.83308719  6.41957064  1.59710205
   2.92150279 10.57005780  1.60172958
   6.94259218  2.20592449  1.68311262
   6.95780909  6.49224803  1.70454359
   7.02021530 10.67599118  1.57017174
  11.06863683  6.36965290  1.42221143
   9.08784608  8.53520901  3.92798726
 


--------------------------------------------------------------------------------------------------------


 k-point   1 :   0.0000 0.0000 0.0000  plane waves:   46317
 k-point   2 :   0.5000 0.0000 0.0000  plane waves:   46362
 k-point   3 :   0.0000 0.5000 0.0000  plane waves:   46314
 k-point   4 :   0.5000 0.5000 0.0000  plane waves:   46404
 k-point   5 :   0.0000 0.0000 0.5000  plane waves:   46346
 k-point   6 :   0.5000 0.0000 0.5000  plane waves:   46324
 k-point   7 :   0.0000 0.5000 0.5000  plane waves:   46308
 k-point   8 :   0.5000 0.5000 0.5000  plane waves:   46320

 maximum and minimum number of plane-waves per node :      5824     5731

 maximum number of plane-waves:     46404
 maximum index in each direction: 
   IXMAX=   23   IYMAX=   23   IZMAX=   20
   IXMIN=  -23   IYMIN=  -23   IZMIN=  -21


 parallel 3D FFT for wavefunctions:
    minimum data exchange during FFTs selected (reduces bandwidth)
 parallel 3D FFT for charge:
    minimum data exchange during FFTs selected (reduces bandwidth)


 total amount of memory used by VASP MPI-rank0   110685. kBytes
=======================================================================

   base      :      30000. kBytes
   nonl-proj :      16332. kBytes
   fftplans  :       6180. kBytes
   grid      :      15593. kBytes
   one-center:        146. kBytes
   wavefun   :      42434. kBytes
 
     INWAV:  cpu time      0.0000: real time      0.0001
 Broyden mixing: mesh for mixing (old mesh)
   NGX = 47   NGY = 47   NGZ = 41
  (NGX  =192   NGY  =192   NGZ  =168)
  gives a total of  90569 points

 initial charge density was supplied:
 charge density of overlapping atoms calculated
 number of electron     360.0000000 magnetization      72.0000000
 keeping initial charge density in first step


--------------------------------------------------------------------------------------------------------


 Maximum index for augmentation-charges           654 (set IRDMAX)


--------------------------------------------------------------------------------------------------------


 First call to EWALD:  gamma=   0.148
 Maximum number of real-space cells 3x 3x 3
 Maximum number of reciprocal cells 3x 3x 3

    FEWALD:  cpu time      0.0079: real time      0.0079


--------------------------------------- Ionic step        1  -------------------------------------------




--------------------------------------- Iteration      1(   1)  ---------------------------------------


    POTLOK:  cpu time      0.1397: real time      0.1406
    SETDIJ:  cpu time      0.5944: real time      0.5960
     EDDAV:  cpu time      8.6689: real time      8.7153
       DOS:  cpu time      0.0014: real time      0.0015
    --------------------------------------------
      LOOP:  cpu time      9.4044: real time      9.4533

 eigenvalue-minimisations  :  7168
 total energy-change (2. order) : 0.1814801E+04  (-0.1418371E+05)
 number of electron     360.0000000 magnetization      72.0000000
 augmentation part      360.0000000 magnetization      72.0000000

 Free energy of the ion-electron system (eV)
  ---------------------------------------------------
  alpha Z        PSCENC =       797.58996446
  Ewald energy   TEWEN  =    -12860.23278106
  -Hartree energ DENC   =     -1117.00323278
  -exchange      EXHF   =         0.00000000
  -V(xc)+E(xc)   XCENC  =      -293.53999839
  PAW double counting   =     10738.42099860    -9719.93139476
  entropy T*S    EENTRO =        -0.02250402
  eigenvalues    EBANDS =      1233.06828954
  atomic energy  EATOM  =     13036.45147835
  Solvation  Ediel_sol  =         0.00000000
  ---------------------------------------------------
  free energy    TOTEN  =      1814.80081993 eV

  energy without entropy =     1814.82332394  energy(sigma->0) =     1814.81207193


--------------------------------------------------------------------------------------------------------




--------------------------------------- Iteration      1(   2)  ---------------------------------------


     EDDAV:  cpu time      9.7777: real time      9.8279
       DOS:  cpu time      0.0013: real time      0.0013
    --------------------------------------------
      LOOP:  cpu time      9.7790: real time      9.8292

 eigenvalue-minimisations  :  8464
 total energy-change (2. order) :-0.1879223E+04  (-0.1805360E+04)
 number of electron     360.0000000 magnetization      72.0000000
 augmentation part      360.0000000 magnetization      72.0000000

 Free energy of the ion-electron system (eV)
  ---------------------------------------------------
  alpha Z        PSCENC =       797.58996446
  Ewald energy   TEWEN  =    -12860.23278106
  -Hartree energ DENC   =     -1117.00323278
  -exchange      EXHF   =         0.00000000
  -V(xc)+E(xc)   XCENC  =      -293.53999839
  PAW double counting   =     10738.42099860    -9719.93139476
  entropy T*S    EENTRO =        -0.01506229
  eigenvalues    EBANDS =      -646.16186076
  atomic energy  EATOM  =     13036.45147835
  Solvation  Ediel_sol  =         0.00000000
  ---------------------------------------------------
  free energy    TOTEN  =       -64.42188864 eV

  energy without entropy =      -64.40682635  energy(sigma->0) =      -64.41435749


--------------------------------------------------------------------------------------------------------




--------------------------------------- Iteration      1(   3)  ---------------------------------------


     EDDAV:  cpu time      9.8201: real time      9.8719
       DOS:  cpu time      0.0012: real time      0.0012
    --------------------------------------------
      LOOP:  cpu time      9.8213: real time      9.8731

 eigenvalue-minimisations  :  8576
 total energy-change (2. order) :-0.2172748E+03  (-0.2112191E+03)
 number of electron     360.0000000 magnetization      72.0000000
 augmentation part      360.0000000 magnetization      72.0000000

 Free energy of the ion-electron system (eV)
  ---------------------------------------------------
  alpha Z        PSCENC =       797.58996446
  Ewald energy   TEWEN  =    -12860.23278106
  -Hartree energ DENC   =     -1117.00323278
  -exchange      EXHF   =         0.00000000
  -V(xc)+E(xc)   XCENC  =      -293.53999839
  PAW double counting   =     10738.42099860    -9719.93139476
  entropy T*S    EENTRO =        -0.00013642
  eigenvalues    EBANDS =      -863.45159263
  atomic energy  EATOM  =     13036.45147835
  Solvation  Ediel_sol  =         0.00000000
  ---------------------------------------------------
  free energy    TOTEN  =      -281.69669464 eV

  energy without entropy =     -281.69655822  energy(sigma->0) =     -281.69662643


--------------------------------------------------------------------------------------------------------




--------------------------------------- Iteration      1(   4)  ---------------------------------------


     EDDAV:  cpu time      9.9961: real time     10.0438
       DOS:  cpu time      0.0011: real time      0.0011
    --------------------------------------------
      LOOP:  cpu time      9.9973: real time     10.0450

 eigenvalue-minimisations  :  8712
 total energy-change (2. order) :-0.7928666E+01  (-0.7834038E+01)
 number of electron     360.0000000 magnetization      72.0000000
 augmentation part      360.0000000 magnetization      72.0000000

 Free energy of the ion-electron system (eV)
  ---------------------------------------------------
  alpha Z        PSCENC =       797.58996446
  Ewald energy   TEWEN  =    -12860.23278106
  -Hartree energ DENC   =     -1117.00323278
  -exchange      EXHF   =         0.00000000
  -V(xc)+E(xc)   XCENC  =      -293.53999839
  PAW double counting   =     10738.42099860    -9719.93139476
  entropy T*S    EENTRO =        -0.00001607
  eigenvalues    EBANDS =      -871.38037926
  atomic energy  EATOM  =     13036.45147835
  Solvation  Ediel_sol  =         0.00000000
  ---------------------------------------------------
  free energy    TOTEN  =      -289.62536091 eV

  energy without entropy =     -289.62534485  energy(sigma->0) =     -289.62535288


--------------------------------------------------------------------------------------------------------




--------------------------------------- Iteration      1(   5)  ---------------------------------------


     EDDAV:  cpu time     10.2824: real time     10.3314
       DOS:  cpu time      0.0012: real time      0.0012
    CHARGE:  cpu time      0.4205: real time      0.4221
    MIXING:  cpu time      0.0068: real time      0.0072
    --------------------------------------------
      LOOP:  cpu time     10.7110: real time     10.7620

 eigenvalue-minimisations  :  9088
 total energy-change (2. order) :-0.3051932E+00  (-0.3043472E+00)
 number of electron     360.0000003 magnetization      48.8220073
 augmentation part      -66.8422616 magnetization      49.0346644

 Broyden mixing:
  rms(total) = 0.29160E+01    rms(broyden)= 0.29160E+01
  rms(prec ) = 0.30703E+01
  weight for this iteration     100.00

 Free energy of the ion-electron system (eV)
  ---------------------------------------------------
  alpha Z        PSCENC =       797.58996446
  Ewald energy   TEWEN  =    -12860.23278106
  -Hartree energ DENC   =     -1117.00323278
  -exchange      EXHF   =         0.00000000
  -V(xc)+E(xc)   XCENC  =      -293.53999839
  PAW double counting   =     10738.42099860    -9719.93139476
  entropy T*S    EENTRO =        -0.00001958
  eigenvalues    EBANDS =      -871.68556896
  atomic energy  EATOM  =     13036.45147835
  Solvation  Ediel_sol  =         0.00000000
  ---------------------------------------------------
  free energy    TOTEN  =      -289.93055413 eV

  energy without entropy =     -289.93053456  energy(sigma->0) =     -289.93054435


--------------------------------------------------------------------------------------------------------




--------------------------------------- Iteration      1(   6)  ---------------------------------------


    POTLOK:  cpu time      0.1358: real time      0.1369
    SETDIJ:  cpu time      0.5926: real time      0.5951
     EDDAV:  cpu time      9.2761: real time      9.3209
       DOS:  cpu time      0.0011: real time      0.0011
    CHARGE:  cpu time      0.4146: real time      0.4162
    MIXING:  cpu time      0.0071: real time      0.0071
    --------------------------------------------
      LOOP:  cpu time     10.4272: real time     10.4773

 eigenvalue-minimisations  :  7904
 total energy-change (2. order) : 0.3118029E+00  (-0.2656132E+01)
 number of electron     360.0000003 magnetization      27.9401049
 augmentation part      -66.2246711 magnetization      29.1186057

 Broyden mixing:
  rms(total) = 0.17274E+01    rms(broyden)= 0.17274E+01
  rms(prec ) = 0.17638E+01
  weight for this iteration     100.00

 eigenvalues of (default mixing * dielectric matrix)
  average eigenvalue GAMMA=   1.0081
  1.0081

 Free energy of the ion-electron system (eV)
  ---------------------------------------------------
  alpha Z        PSCENC =       797.58996446
  Ewald energy   TEWEN  =    -12860.23278106
  -Hartree energ DENC   =     -1170.60025111
  -exchange      EXHF   =         0.00000000
  -V(xc)+E(xc)   XCENC  =      -287.00588530
  PAW double counting   =     13027.17950626   -12012.21768624
  entropy T*S    EENTRO =        -0.00000637
  eigenvalues    EBANDS =      -820.78309024
  atomic energy  EATOM  =     13036.45147835
  Solvation  Ediel_sol  =         0.00000000
  ---------------------------------------------------
  free energy    TOTEN  =      -289.61875125 eV

  energy without entropy =     -289.61874487  energy(sigma->0) =     -289.61874806


--------------------------------------------------------------------------------------------------------




--------------------------------------- Iteration      1(   7)  ---------------------------------------


    POTLOK:  cpu time      0.1324: real time      0.1333
    SETDIJ:  cpu time      0.5920: real time      0.5942
     EDDAV:  cpu time      9.3671: real time      9.4134
       DOS:  cpu time      0.0009: real time      0.0009
    CHARGE:  cpu time      0.4148: real time      0.4164
    MIXING:  cpu time      0.0088: real time      0.0088
    --------------------------------------------
      LOOP:  cpu time     10.5161: real time     10.5669

 eigenvalue-minimisations  :  8008
 total energy-change (2. order) :-0.7255852E+01  (-0.8649204E+00)
 number of electron     360.0000003 magnetization       9.1587725
 augmentation part      -66.2145181 magnetization       9.8320835

 Broyden mixing:
  rms(total) = 0.90971E+00    rms(broyden)= 0.90971E+00
  rms(prec ) = 0.92538E+00
  weight for this iteration     100.00

 eigenvalues of (default mixing * dielectric matrix)
  average eigenvalue GAMMA=   1.4570
  0.8620  2.0519

 Free energy of the ion-electron system (eV)
  ---------------------------------------------------
  alpha Z        PSCENC =       797.58996446
  Ewald energy   TEWEN  =    -12860.23278106
  -Hartree energ DENC   =     -1187.45434959
  -exchange      EXHF   =         0.00000000
  -V(xc)+E(xc)   XCENC  =      -289.95450602
  PAW double counting   =     15124.46076030   -14111.13121690
  entropy T*S    EENTRO =        -0.00000000
  eigenvalues    EBANDS =      -806.60395316
  atomic energy  EATOM  =     13036.45147835
  Solvation  Ediel_sol  =         0.00000000
  ---------------------------------------------------
  free energy    TOTEN  =      -296.87460362 eV

  energy without entropy =     -296.87460362  energy(sigma->0) =     -296.87460362


--------------------------------------------------------------------------------------------------------




--------------------------------------- Iteration      1(   8)  ---------------------------------------


    POTLOK:  cpu time      0.1329: real time      0.1336
    SETDIJ:  cpu time      0.5921: real time      0.5945
     EDDAV:  cpu time      9.5061: real time      9.5605
       DOS:  cpu time      0.0008: real time      0.0008
    CHARGE:  cpu time      0.4164: real time      0.4182
    MIXING:  cpu time      0.0074: real time      0.0074
    --------------------------------------------
      LOOP:  cpu time     10.6557: real time     10.7151

 eigenvalue-minimisations  :  8160
 total energy-change (2. order) :-0.3224229E+01  (-0.1722475E+00)
 number of electron     360.0000003 magnetization       4.3612288
 augmentation part      -66.2227671 magnetization       4.6657521

 Broyden mixing:
  rms(total) = 0.32787E+00    rms(broyden)= 0.32787E+00
  rms(prec ) = 0.33335E+00
  weight for this iteration     100.00

 eigenvalues of (default mixing * dielectric matrix)
  average eigenvalue GAMMA=   1.3618
  2.5050  0.9255  0.6551

 Free energy of the ion-electron system (eV)
  ---------------------------------------------------
  alpha Z        PSCENC =       797.58996446
  Ewald energy   TEWEN  =    -12860.23278106
  -Hartree energ DENC   =     -1192.14402664
  -exchange      EXHF   =         0.00000000
  -V(xc)+E(xc)   XCENC  =      -289.64459089
  PAW double counting   =     16913.00147252   -15900.62370653
  entropy T*S    EENTRO =        -0.00000000
  eigenvalues    EBANDS =      -804.49664263
  atomic energy  EATOM  =     13036.45147835
  Solvation  Ediel_sol  =         0.00000000
  ---------------------------------------------------
  free energy    TOTEN  =      -300.09883243 eV

  energy without entropy =     -300.09883243  energy(sigma->0) =     -300.09883243


--------------------------------------------------------------------------------------------------------




--------------------------------------- Iteration      1(   9)  ---------------------------------------


    POTLOK:  cpu time      0.1327: real time      0.1334
    SETDIJ:  cpu time      0.5907: real time      0.5931
     EDDAV:  cpu time     10.2646: real time     10.3150
       DOS:  cpu time      0.0008: real time      0.0008
    CHARGE:  cpu time      0.4171: real time      0.4201
    MIXING:  cpu time      0.0074: real time      0.0075
    --------------------------------------------
      LOOP:  cpu time     11.4134: real time     11.4699

 eigenvalue-minimisations  :  9024
 total energy-change (2. order) :-0.3766245E+00  (-0.4197313E-01)
 number of electron     360.0000003 magnetization       2.2751069
 augmentation part      -66.2612484 magnetization       2.4277690

 Broyden mixing:
  rms(total) = 0.14757E+00    rms(broyden)= 0.14757E+00
  rms(prec ) = 0.14914E+00
  weight for this iteration     100.00

 eigenvalues of (default mixing * dielectric matrix)
  average eigenvalue GAMMA=   1.3309
  2.6351  1.2352  0.8327  0.6205

 Free energy of the ion-electron system (eV)
  ---------------------------------------------------
  alpha Z        PSCENC =       797.58996446
  Ewald energy   TEWEN  =    -12860.23278106
  -Hartree energ DENC   =     -1191.06664065
  -exchange      EXHF   =         0.00000000
  -V(xc)+E(xc)   XCENC  =      -289.69165106
  PAW double counting   =     17197.25878734   -16185.21743462
  entropy T*S    EENTRO =        -0.00000000
  eigenvalues    EBANDS =      -805.56717964
  atomic energy  EATOM  =     13036.45147835
  Solvation  Ediel_sol  =         0.00000000
  ---------------------------------------------------
  free energy    TOTEN  =      -300.47545689 eV

  energy without entropy =     -300.47545689  energy(sigma->0) =     -300.47545689


--------------------------------------------------------------------------------------------------------




--------------------------------------- Iteration      1(  10)  ---------------------------------------


    POTLOK:  cpu time      0.1322: real time      0.1329
    SETDIJ:  cpu time      0.6006: real time      0.6032
     EDDAV:  cpu time      9.4777: real time      9.5336
       DOS:  cpu time      0.0008: real time      0.0008
    CHARGE:  cpu time      0.4167: real time      0.4186
    MIXING:  cpu time      0.0075: real time      0.0075
    --------------------------------------------
      LOOP:  cpu time     10.6354: real time     10.6966

 eigenvalue-minimisations  :  8120
 total energy-change (2. order) :-0.1047546E+00  (-0.9748341E-02)
 number of electron     360.0000003 magnetization       0.7475866
 augmentation part      -66.2635160 magnetization       0.8145652

 Broyden mixing:
  rms(total) = 0.73010E-01    rms(broyden)= 0.73010E-01
  rms(prec ) = 0.74090E-01
  weight for this iteration     100.00

 eigenvalues of (default mixing * dielectric matrix)
  average eigenvalue GAMMA=   1.3758
  2.7004  1.7635  0.9666  0.8220  0.6265

 Free energy of the ion-electron system (eV)
  ---------------------------------------------------
  alpha Z        PSCENC =       797.58996446
  Ewald energy   TEWEN  =    -12860.23278106
  -Hartree energ DENC   =     -1191.24206237
  -exchange      EXHF   =         0.00000000
  -V(xc)+E(xc)   XCENC  =      -289.69097903
  PAW double counting   =     17204.67170115   -16192.64158115
  entropy T*S    EENTRO =        -0.00000000
  eigenvalues    EBANDS =      -805.48595187
  atomic energy  EATOM  =     13036.45147835
  Solvation  Ediel_sol  =         0.00000000
  ---------------------------------------------------
  free energy    TOTEN  =      -300.58021152 eV

  energy without entropy =     -300.58021152  energy(sigma->0) =     -300.58021152


--------------------------------------------------------------------------------------------------------




--------------------------------------- Iteration      1(  11)  ---------------------------------------


    POTLOK:  cpu time      0.1316: real time      0.1323
    SETDIJ:  cpu time      0.5905: real time      0.5932
     EDDAV:  cpu time     10.1500: real time     10.1991
       DOS:  cpu time      0.0007: real time      0.0007
    CHARGE:  cpu time      0.4137: real time      0.4153
    MIXING:  cpu time      0.0074: real time      0.0074
    --------------------------------------------
      LOOP:  cpu time     11.2939: real time     11.3480

 eigenvalue-minimisations  :  8928
 total energy-change (2. order) :-0.3088985E-01  (-0.3461562E-02)
 number of electron     360.0000003 magnetization       0.1765237
 augmentation part      -66.2483843 magnetization       0.1956767

 Broyden mixing:
  rms(total) = 0.28624E-01    rms(broyden)= 0.28624E-01
  rms(prec ) = 0.28983E-01
  weight for this iteration     100.00

 eigenvalues of (default mixing * dielectric matrix)
  average eigenvalue GAMMA=   1.4058
  2.9069  2.1757  1.1741  0.8552  0.6982  0.6246

 Free energy of the ion-electron system (eV)
  ---------------------------------------------------
  alpha Z        PSCENC =       797.58996446
  Ewald energy   TEWEN  =    -12860.23278106
  -Hartree energ DENC   =     -1192.39690155
  -exchange      EXHF   =         0.00000000
  -V(xc)+E(xc)   XCENC  =      -289.64734298
  PAW double counting   =     17127.94751595   -16115.89040891
  entropy T*S    EENTRO =        -0.00000000
  eigenvalues    EBANDS =      -804.43262562
  atomic energy  EATOM  =     13036.45147835
  Solvation  Ediel_sol  =         0.00000000
  ---------------------------------------------------
  free energy    TOTEN  =      -300.61110137 eV

  energy without entropy =     -300.61110137  energy(sigma->0) =     -300.61110137


--------------------------------------------------------------------------------------------------------




--------------------------------------- Iteration      1(  12)  ---------------------------------------


    POTLOK:  cpu time      0.1321: real time      0.1340
    SETDIJ:  cpu time      0.5908: real time      0.5933
     EDDAV:  cpu time      9.8847: real time      9.9315
       DOS:  cpu time      0.0010: real time      0.0010
    CHARGE:  cpu time      0.4215: real time      0.4230
    MIXING:  cpu time      0.0078: real time      0.0078
    --------------------------------------------
      LOOP:  cpu time     11.0379: real time     11.0907

 eigenvalue-minimisations  :  8496
 total energy-change (2. order) :-0.3433743E-02  (-0.4626263E-03)
 number of electron     360.0000003 magnetization       0.0567114
 augmentation part      -66.2477660 magnetization       0.0609252

 Broyden mixing:
  rms(total) = 0.10267E-01    rms(broyden)= 0.10267E-01
  rms(prec ) = 0.10837E-01
  weight for this iteration     100.00

 eigenvalues of (default mixing * dielectric matrix)
  average eigenvalue GAMMA=   1.3717
  3.0146  2.3279  1.2198  0.8877  0.8877  0.6092  0.6552

 Free energy of the ion-electron system (eV)
  ---------------------------------------------------
  alpha Z        PSCENC =       797.58996446
  Ewald energy   TEWEN  =    -12860.23278106
  -Hartree energ DENC   =     -1192.51404519
  -exchange      EXHF   =         0.00000000
  -V(xc)+E(xc)   XCENC  =      -289.64767501
  PAW double counting   =     17092.48241710   -16080.40293240
  entropy T*S    EENTRO =        -0.00000000
  eigenvalues    EBANDS =      -804.34096134
  atomic energy  EATOM  =     13036.45147835
  Solvation  Ediel_sol  =         0.00000000
  ---------------------------------------------------
  free energy    TOTEN  =      -300.61453511 eV

  energy without entropy =     -300.61453511  energy(sigma->0) =     -300.61453511


--------------------------------------------------------------------------------------------------------




--------------------------------------- Iteration      1(  13)  ---------------------------------------


    POTLOK:  cpu time      0.1317: real time      0.1324
    SETDIJ:  cpu time      0.5915: real time      0.5939
     EDDAV:  cpu time     11.0566: real time     11.1087
       DOS:  cpu time      0.0008: real time      0.0008
    CHARGE:  cpu time      0.4113: real time      0.4131
    MIXING:  cpu time      0.0080: real time      0.0080
    --------------------------------------------
      LOOP:  cpu time     12.1999: real time     12.2569

 eigenvalue-minimisations  :  9816
 total energy-change (2. order) :-0.1157927E-03  (-0.5409813E-04)
 number of electron     360.0000003 magnetization       0.0141400
 augmentation part      -66.2495081 magnetization       0.0149995

 Broyden mixing:
  rms(total) = 0.41741E-02    rms(broyden)= 0.41741E-02
  rms(prec ) = 0.43600E-02
  weight for this iteration     100.00

 eigenvalues of (default mixing * dielectric matrix)
  average eigenvalue GAMMA=   1.3515
  3.0617  2.4291  1.1447  1.1447  0.9072  0.8680  0.6496  0.6072

 Free energy of the ion-electron system (eV)
  ---------------------------------------------------
  alpha Z        PSCENC =       797.58996446
  Ewald energy   TEWEN  =    -12860.23278106
  -Hartree energ DENC   =     -1192.39792890
  -exchange      EXHF   =         0.00000000
  -V(xc)+E(xc)   XCENC  =      -289.65839083
  PAW double counting   =     17079.20752297   -16067.11671537
  entropy T*S    EENTRO =        -0.00000000
  eigenvalues    EBANDS =      -804.45780052
  atomic energy  EATOM  =     13036.45147835
  Solvation  Ediel_sol  =         0.00000000
  ---------------------------------------------------
  free energy    TOTEN  =      -300.61465090 eV

  energy without entropy =     -300.61465090  energy(sigma->0) =     -300.61465090


--------------------------------------------------------------------------------------------------------




--------------------------------------- Iteration      1(  14)  ---------------------------------------


    POTLOK:  cpu time      0.1317: real time      0.1324
    SETDIJ:  cpu time      0.5909: real time      0.5940
     EDDAV:  cpu time      9.5838: real time      9.6287
       DOS:  cpu time      0.0008: real time      0.0008
    CHARGE:  cpu time      0.4183: real time      0.4197
    MIXING:  cpu time      0.0078: real time      0.0079
    --------------------------------------------
      LOOP:  cpu time     10.7333: real time     10.7834

 eigenvalue-minimisations  :  8224
 total energy-change (2. order) :-0.1522497E-04  (-0.8411313E-05)
 number of electron     360.0000003 magnetization       0.0042938
 augmentation part      -66.2491760 magnetization       0.0046466

 Broyden mixing:
  rms(total) = 0.15444E-02    rms(broyden)= 0.15444E-02
  rms(prec ) = 0.16470E-02
  weight for this iteration     100.00

 eigenvalues of (default mixing * dielectric matrix)
  average eigenvalue GAMMA=   1.3381
  3.0869  2.4592  1.5118  1.1925  0.8816  0.8816  0.7783  0.6088  0.6423

 Free energy of the ion-electron system (eV)
  ---------------------------------------------------
  alpha Z        PSCENC =       797.58996446
  Ewald energy   TEWEN  =    -12860.23278106
  -Hartree energ DENC   =     -1192.39814806
  -exchange      EXHF   =         0.00000000
  -V(xc)+E(xc)   XCENC  =      -289.65924863
  PAW double counting   =     17074.58747678   -16062.49359595
  entropy T*S    EENTRO =        -0.00000000
  eigenvalues    EBANDS =      -804.45981200
  atomic energy  EATOM  =     13036.45147835
  Solvation  Ediel_sol  =         0.00000000
  ---------------------------------------------------
  free energy    TOTEN  =      -300.61466613 eV

  energy without entropy =     -300.61466613  energy(sigma->0) =     -300.61466613


--------------------------------------------------------------------------------------------------------




--------------------------------------- Iteration      1(  15)  ---------------------------------------


    POTLOK:  cpu time      0.1314: real time      0.1323
    SETDIJ:  cpu time      0.5912: real time      0.5934
     EDDAV:  cpu time      9.8799: real time      9.9260
       DOS:  cpu time      0.0008: real time      0.0008
    CHARGE:  cpu time      0.4172: real time      0.4186
    MIXING:  cpu time      0.0080: real time      0.0081
    --------------------------------------------
      LOOP:  cpu time     11.0285: real time     11.0792

 eigenvalue-minimisations  :  8528
 total energy-change (2. order) :-0.3055166E-05  (-0.1339054E-05)
 number of electron     360.0000003 magnetization       0.0016920
 augmentation part      -66.2492583 magnetization       0.0018977

 Broyden mixing:
  rms(total) = 0.71253E-03    rms(broyden)= 0.71253E-03
  rms(prec ) = 0.75798E-03
  weight for this iteration     100.00

 eigenvalues of (default mixing * dielectric matrix)
  average eigenvalue GAMMA=   1.3032
  3.0959  2.4282  1.6933  1.1108  0.9649  0.9649  0.8159  0.7184  0.6198  0.6198

 Free energy of the ion-electron system (eV)
  ---------------------------------------------------
  alpha Z        PSCENC =       797.58996446
  Ewald energy   TEWEN  =    -12860.23278106
  -Hartree energ DENC   =     -1192.39062158
  -exchange      EXHF   =         0.00000000
  -V(xc)+E(xc)   XCENC  =      -289.65921720
  PAW double counting   =     17074.32812875   -16062.23369828
  entropy T*S    EENTRO =        -0.00000000
  eigenvalues    EBANDS =      -804.46792261
  atomic energy  EATOM  =     13036.45147835
  Solvation  Ediel_sol  =         0.00000000
  ---------------------------------------------------
  free energy    TOTEN  =      -300.61466918 eV

  energy without entropy =     -300.61466918  energy(sigma->0) =     -300.61466918


--------------------------------------------------------------------------------------------------------




--------------------------------------- Iteration      1(  16)  ---------------------------------------


    POTLOK:  cpu time      0.1311: real time      0.1320
    SETDIJ:  cpu time      0.5926: real time      0.5949
     EDDAV:  cpu time      6.5858: real time      6.6171
       DOS:  cpu time      0.0008: real time      0.0008
    --------------------------------------------
      LOOP:  cpu time      7.3103: real time      7.3447

 eigenvalue-minimisations  :  4776
 total energy-change (2. order) :-0.6834034E-06  (-0.1487525E-06)
 number of electron     360.0000003 magnetization       0.0016920
 augmentation part      -66.2492583 magnetization       0.0018977

 Free energy of the ion-electron system (eV)
  ---------------------------------------------------
  alpha Z        PSCENC =       797.58996446
  Ewald energy   TEWEN  =    -12860.23278106
  -Hartree energ DENC   =     -1192.38620006
  -exchange      EXHF   =         0.00000000
  -V(xc)+E(xc)   XCENC  =      -289.65934291
  PAW double counting   =     17074.35251476   -16062.25791368
  entropy T*S    EENTRO =        -0.00000000
  eigenvalues    EBANDS =      -804.47238972
  atomic energy  EATOM  =     13036.45147835
  Solvation  Ediel_sol  =         0.00000000
  ---------------------------------------------------
  free energy    TOTEN  =      -300.61466987 eV

  energy without entropy =     -300.61466987  energy(sigma->0) =     -300.61466987


--------------------------------------------------------------------------------------------------------




 average (electrostatic) potential at core
  the test charge radii are     1.1631  1.0808
  (the norm of the test charge is              1.0000)
       1 -33.5294       2 -33.5683       3 -33.4196       4 -33.3292       5 -33.6074
       6 -33.4989       7 -33.4886       8 -33.4619       9 -33.3462      10 -33.5624
      11 -33.7153      12 -33.3412      13 -33.4310      14 -33.4535      15 -33.4814
      16 -33.3903      17 -33.5150      18 -33.3954      19 -33.2026      20 -33.3524
      21 -33.4164      22 -33.4374      23 -33.4860      24 -33.3897      25 -33.5564
      26 -33.6335      27 -33.4160      28 -33.3602      29 -33.6814      30 -33.5591
      31 -33.6433      32 -33.4168      33 -33.2417      34 -33.4851      35 -33.4456
      36 -33.4854      37 -54.8189      38 -55.0790      39 -55.0287      40 -54.9186
      41 -54.7921      42 -54.7950      43 -54.7553      44 -54.9895      45 -54.8686
      46 -54.9802      47 -54.6697      48 -54.9385      49 -54.6701      50 -54.6995
      51 -54.8619      52 -54.8533      53 -54.7208      54 -54.7768      55 -54.9960
      56 -54.6074      57 -54.6251      58 -54.7948      59 -54.7670      60 -54.7537
      61 -54.6210      62 -55.0480      63 -54.8256      64 -54.9041      65 -54.7165
      66 -54.9084      67 -54.9531      68 -54.9038      69 -54.9135      70 -54.8106
      71 -54.7926      72 -54.8123
 
 
 
 E-fermi :   3.5415     XC(G=0):  -9.3762     alpha+bet : -8.8287

 Fermi energy:         3.5415303387

 spin component 1

 k-point     1 :       0.0000    0.0000    0.0000
  band No.  band energies     occupation 
      1     -10.9037      1.00000
      2     -10.5745      1.00000
      3     -10.4739      1.00000
      4     -10.3605      1.00000
      5     -10.3210      1.00000
      6     -10.2530      1.00000
      7     -10.1400      1.00000
      8     -10.0674      1.00000
      9     -10.0302      1.00000
     10      -9.9795      1.00000
     11      -9.9470      1.00000
     12      -9.8796      1.00000
     13      -9.8133      1.00000
     14      -9.7278      1.00000
     15      -9.6916      1.00000
     16      -9.6376      1.00000
     17      -9.6227      1.00000
     18      -9.6009      1.00000
     19      -9.5134      1.00000
     20      -9.4945      1.00000
     21      -9.4414      1.00000
     22      -9.3959      1.00000
     23      -9.3533      1.00000
     24      -9.3306      1.00000
     25      -9.2745      1.00000
     26      -9.2481      1.00000
     27      -9.2200      1.00000
     28      -9.1601      1.00000
     29      -9.1474      1.00000
     30      -9.1204      1.00000
     31      -9.0702      1.00000
     32      -9.0431      1.00000
     33      -8.9930      1.00000
     34      -8.9692      1.00000
     35      -8.9368      1.00000
     36      -8.9212      1.00000
     37      -5.4109      1.00000
     38      -5.3626      1.00000
     39      -5.2938      1.00000
     40      -5.2723      1.00000
     41      -5.1082      1.00000
     42      -5.0652      1.00000
     43      -5.0008      1.00000
     44      -4.9492      1.00000
     45      -4.8441      1.00000
     46      -4.7480      1.00000
     47      -4.6238      1.00000
     48      -4.5296      1.00000
     49      -4.5015      1.00000
     50      -4.4608      1.00000
     51      -4.4328      1.00000
     52      -4.3847      1.00000
     53      -4.3625      1.00000
     54      -4.3423      1.00000
     55      -4.3027      1.00000
     56      -4.2620      1.00000
     57      -4.2558      1.00000
     58      -4.2465      1.00000
     59      -4.1967      1.00000
     60      -4.1184      1.00000
     61      -4.0812      1.00000
     62      -4.0384      1.00000
     63      -3.9779      1.00000
     64      -3.9202      1.00000
     65      -3.8745      1.00000
     66      -3.8636      1.00000
     67      -3.6994      1.00000
     68      -3.6560      1.00000
     69      -3.4880      1.00000
     70      -3.4309      1.00000
     71      -2.4509      1.00000
     72      -2.3767      1.00000
     73      -1.8554      1.00000
     74      -1.6242      1.00000
     75      -1.5771      1.00000
     76      -1.5646      1.00000
     77      -1.4278      1.00000
     78      -1.3848      1.00000
     79      -1.3163      1.00000
     80      -1.2839      1.00000
     81      -1.2547      1.00000
     82      -1.1988      1.00000
     83      -1.1255      1.00000
     84      -1.0982      1.00000
     85      -1.0085      1.00000
     86      -0.8391      1.00000
     87      -0.7553      1.00000
     88      -0.7012      1.00000
     89      -0.6737      1.00000
     90      -0.6246      1.00000
     91      -0.5448      1.00000
     92      -0.4711      1.00000
     93      -0.4536      1.00000
     94      -0.3368      1.00000
     95      -0.1724      1.00000
     96      -0.1229      1.00000
     97      -0.1096      1.00000
     98      -0.0404      1.00000
     99       0.0153      1.00000
    100       0.0785      1.00000
    101       0.1170      1.00000
    102       0.1297      1.00000
    103       0.1841      1.00000
    104       0.2232      1.00000
    105       0.2681      1.00000
    106       0.2835      1.00000
    107       0.3195      1.00000
    108       0.3429      1.00000
    109       0.3723      1.00000
    110       0.4196      1.00000
    111       0.4462      1.00000
    112       0.5152      1.00000
    113       0.5570      1.00000
    114       0.6192      1.00000
    115       0.6324      1.00000
    116       0.6703      1.00000
    117       0.6943      1.00000
    118       0.7077      1.00000
    119       0.7310      1.00000
    120       0.7817      1.00000
    121       0.8243      1.00000
    122       0.8745      1.00000
    123       0.9045      1.00000
    124       0.9543      1.00000
    125       0.9742      1.00000
    126       1.0075      1.00000
    127       1.0429      1.00000
    128       1.0766      1.00000
    129       1.0897      1.00000
    130       1.1375      1.00000
    131       1.1742      1.00000
    132       1.2015      1.00000
    133       1.2385      1.00000
    134       1.2812      1.00000
    135       1.3293      1.00000
    136       1.3649      1.00000
    137       1.3912      1.00000
    138       1.4570      1.00000
    139       1.4796      1.00000
    140       1.5214      1.00000
    141       1.5945      1.00000
    142       1.6473      1.00000
    143       1.6844      1.00000
    144       1.7127      1.00000
    145       1.7197      1.00000
    146       1.7794      1.00000
    147       1.8112      1.00000
    148       1.8213      1.00000
    149       1.8643      1.00000
[...]
   0.763E+01 0.902E+01 -.209E+02   -.919E+01 -.939E+01 0.232E+02   0.184E+01 -.201E+00 -.287E+01   0.758E-04 0.121E-03 -.160E-04
   -.503E+01 0.466E+01 0.258E+02   0.539E+01 -.661E+01 -.285E+02   -.860E-01 0.216E+01 0.275E+01   -.503E-06 -.557E-04 -.128E-03
   -.874E+01 0.222E+02 0.294E+02   0.865E+01 -.235E+02 -.313E+02   0.660E+00 0.121E+01 0.154E+01   0.340E-03 -.192E-03 0.913E-04
   0.443E+01 0.149E+02 0.152E+02   -.402E+01 -.164E+02 -.164E+02   -.913E-01 0.124E+01 0.171E+01   0.123E-05 0.216E-04 0.356E-04
   -.786E+01 -.724E+01 0.257E+02   0.907E+01 0.765E+01 -.278E+02   -.140E+01 -.519E+00 0.159E+01   0.143E-03 -.892E-04 -.139E-03
   -.146E+02 -.653E+01 0.226E+02   0.158E+02 0.683E+01 -.244E+02   -.143E+01 -.358E-01 0.168E+01   -.208E-03 0.225E-04 0.109E-03
   0.383E+01 0.197E+02 0.312E+02   -.391E+01 -.212E+02 -.334E+02   0.523E+00 0.111E+01 0.150E+01   -.582E-04 0.536E-04 0.279E-04
   0.146E+02 -.791E+00 0.273E+02   -.152E+02 -.652E-01 -.292E+02   0.473E+00 0.132E+01 0.193E+01   0.358E-03 0.172E-04 0.230E-03
   -.297E+02 -.194E+01 0.308E+02   0.315E+02 0.214E+01 -.320E+02   -.157E+01 -.440E+00 0.146E+01   0.555E-04 0.333E-03 -.952E-04
   -.667E+01 -.807E+01 -.197E+02   0.696E+01 0.931E+01 0.216E+02   -.408E-02 -.913E+00 -.234E+01   0.155E-03 -.150E-03 0.176E-03
   -.606E+01 0.346E+01 -.283E+02   0.672E+01 -.258E+01 0.294E+02   -.448E+00 -.666E+00 -.905E+00   -.141E-03 0.978E-04 0.105E-03
   0.100E+02 -.200E+02 -.332E+02   -.104E+02 0.214E+02 0.351E+02   -.995E-01 -.115E+01 -.137E+01   -.827E-04 -.163E-04 0.219E-03
   -.264E+01 -.994E+01 -.202E+02   0.281E+01 0.105E+02 0.217E+02   0.253E-01 -.525E+00 -.169E+01   -.256E-04 -.143E-03 0.174E-03
   0.148E+01 0.633E+01 -.343E+02   -.135E+01 -.580E+01 0.362E+02   0.184E+00 -.686E+00 -.143E+01   -.449E-04 0.240E-03 0.107E-03
   -.782E+01 -.165E+02 -.166E+02   0.821E+01 0.176E+02 0.176E+02   -.253E+00 -.110E+01 -.127E+01   -.168E-05 0.708E-04 0.197E-03
   0.183E+01 -.986E+01 -.256E+02   -.160E+01 0.106E+02 0.273E+02   -.505E+00 -.114E+01 -.209E+01   -.305E-04 -.428E-03 0.191E-03
   0.134E+02 0.292E+02 0.275E+02   -.138E+02 -.311E+02 -.286E+02   0.154E+00 0.762E+00 0.115E+01   -.124E-03 0.545E-04 0.530E-04
   -.198E+02 0.215E+01 0.261E+02   0.202E+02 -.342E+01 -.275E+02   0.203E+00 0.138E+01 0.149E+01   -.492E-03 0.966E-04 0.184E-03
   0.818E+01 -.630E+01 0.221E+02   -.852E+01 0.748E+01 -.235E+02   -.112E+00 -.128E+01 0.181E+01   -.485E-04 -.512E-04 -.102E-03
   -.320E+00 -.140E+02 0.277E+02   0.440E+00 0.156E+02 -.289E+02   -.520E+00 -.120E+01 0.134E+01   -.143E-03 -.124E-03 -.228E-03
   0.105E+02 0.109E+00 0.270E+02   -.110E+02 0.666E+00 -.289E+02   0.161E+00 -.129E+01 0.161E+01   0.261E-03 0.515E-04 -.600E-04
   -.655E+01 0.358E+01 -.207E+02   0.673E+01 -.373E+01 0.226E+02   0.192E-01 -.171E+00 -.189E+01   -.165E-04 0.278E-03 0.846E-04
   -.375E+01 0.638E+01 -.236E+02   0.404E+01 -.700E+01 0.252E+02   -.225E+00 0.118E+01 -.119E+01   0.115E-03 -.212E-03 -.192E-03
   -.313E+02 -.172E+02 -.166E+02   0.328E+02 0.175E+02 0.178E+02   -.133E+01 0.152E+00 -.139E+01   0.360E-04 0.163E-03 0.160E-03
   0.942E+01 0.387E+01 -.134E+02   -.102E+02 -.414E+01 0.149E+02   0.114E+01 0.528E+00 -.202E+01   -.217E-04 0.111E-03 0.255E-04
   -.978E+01 0.988E+01 -.285E+02   0.101E+02 -.108E+02 0.302E+02   0.127E+00 0.928E+00 -.182E+01   -.443E-04 0.355E-04 -.223E-03
   0.289E+02 -.479E+01 -.329E+02   -.300E+02 0.461E+01 0.348E+02   -.175E+00 -.743E-01 -.160E+01   0.121E-03 0.589E-04 -.875E-04
   -.237E+02 0.617E+01 -.274E+02   0.253E+02 -.641E+01 0.297E+02   -.151E+01 0.376E-01 -.153E+01   0.839E-04 0.169E-03 -.841E-05
   0.238E+00 -.617E+01 -.282E+02   0.317E+00 0.706E+01 0.298E+02   -.118E+01 -.601E+00 -.196E+01   -.119E-03 0.104E-03 0.687E-05
   0.469E+01 0.693E+01 -.356E+02   -.507E+01 -.807E+01 0.371E+02   0.225E+00 0.106E+01 -.144E+01   -.186E-03 0.380E-03 -.181E-03
   -.394E+00 0.139E+02 -.347E+02   0.574E+00 -.152E+02 0.370E+02   -.200E+00 0.142E+01 -.165E+01   -.912E-04 -.504E-03 -.232E-03
   -.260E+00 -.250E+02 0.369E+02   0.306E+00 0.268E+02 -.388E+02   0.432E+00 -.123E+01 0.172E+01   0.416E-04 -.127E-04 -.284E-03
   0.126E+02 0.258E+01 0.204E+02   -.130E+02 -.164E+01 -.219E+02   0.517E-01 -.657E+00 0.138E+01   0.496E-04 0.192E-03 -.395E-03
   -.611E+01 -.998E+01 0.392E+02   0.608E+01 0.112E+02 -.413E+02   0.236E+00 -.120E+01 0.137E+01   -.119E-03 0.176E-03 -.105E-03
   -.276E+01 -.142E+02 0.313E+02   0.330E+01 0.154E+02 -.334E+02   -.256E+00 -.110E+01 0.125E+01   0.125E-03 0.968E-04 0.295E-04
   -.705E+01 -.770E+01 0.289E+02   0.710E+01 0.894E+01 -.306E+02   0.212E+00 -.108E+01 0.199E+01   0.106E-04 -.247E-03 -.433E-03
   -.693E+00 -.178E+02 0.147E+02   0.542E+00 0.185E+02 -.162E+02   0.287E+00 -.788E+00 0.195E+01   0.522E-05 0.126E-04 -.141E-03
   -.101E+02 -.167E+02 -.167E+02   0.103E+02 0.178E+02 0.182E+02   -.120E+00 -.127E+01 -.166E+01   -.527E-04 -.143E-03 0.301E-03
 -----------------------------------------------------------------------------------------------
   -.744E+01 -.582E+01 0.344E+00   0.266E-13 -.604E-13 -.298E-12   0.744E+01 0.582E+01 -.344E+00   0.378E-03 0.304E-03 -.677E-03
 
 
 POSITION                                       TOTAL-FORCE (eV/Angst)
 -----------------------------------------------------------------------------------
      0.83263      0.82475      1.15554         0.061177     -0.212256      0.078742
      2.86920     10.99257      4.07715        -0.083343     -0.072014      0.169953
      6.77335      2.39909      4.10811         0.133221      0.712902      0.636987
      7.10647      6.78910      4.12795        -0.083237      0.147384      0.719492
      7.22821     11.10995      4.21346        -0.431599     -0.457213     -0.376748
     11.41325      2.61567      4.02207        -0.166744      0.096888      0.370891
     11.09389      6.73729      3.99961         0.005066      0.240632     -0.148434
     11.30910     11.14098      4.20808        -0.212132     -0.429112     -0.375284
      0.93935      1.81623      6.94401        -0.321782      0.347996     -0.114424
      1.46456      6.13823      6.70374        -0.671238      0.453554      0.182339
      0.77173     10.01768      6.96017        -0.170809     -0.152926      0.351147
      4.95268      1.66628      7.02979         0.425206      0.580343     -0.044028
      5.04769      6.12010      7.04718         0.402096      0.148274     -0.036143
      5.23658     10.50600      7.13194         0.253405     -0.287552     -0.820248
      9.35353      2.21925      6.99390         0.110218     -0.100603      0.327789
      9.14221      5.93522      6.84729        -0.227073     -0.018137      0.068508
      3.07045      6.84784      4.07716        -0.109300      0.283919      0.105675
      2.92773      2.69072      4.23217         0.302862     -0.235374     -0.389551
      9.25768     10.05660      6.96242        -0.208239      0.357555     -0.437764
     11.26010      7.77161      9.67592         0.089708      0.425616     -0.055883
     11.20816     12.43485      9.57267         0.029557     -0.186327      0.168959
      0.90105      4.76260      1.40217        -0.228362     -0.082009     -0.334485
      0.67351      8.99027      1.41947         0.079787     -0.211171      0.276738
      4.90892      0.48912      1.50474         0.077063     -0.081891     -0.387393
      5.01906      4.92954      1.17695        -0.338078     -0.354950      0.481668
      9.13970      0.65511      1.63412        -0.022484     -0.006636      0.103694
      8.95368      4.61182      1.65040         0.083215      0.185374     -0.218212
      4.96509      9.03874      1.46506         0.331983     -0.494969      0.371483
      3.15614      4.16706      9.63228        -0.253691     -0.567049     -0.290278
      2.98742      8.62809      9.56263         0.135878     -0.227739      0.586020
      2.98424     12.22319      9.92129        -0.535083      0.170866     -0.345760
      7.17860      3.93628      9.52714        -0.264476     -0.062008      0.747035
      7.44700      8.12130      9.53096        -0.050220      0.219141      0.254406
      7.39573      0.07873      9.68322         0.338415     -0.215267      0.030685
     11.42504      4.25760      9.73541         0.274346     -0.564890     -0.600304
      9.00529      8.93446      1.37890         0.281579      0.210666      0.061233
     11.15204      0.27603      7.09596         0.573550     -0.103940     -0.397608
      3.12197      4.32738      7.01254         0.317678     -0.200703      0.553896
      2.89582      8.42393      7.12239        -0.192690     -0.103815     -0.538154
      6.97545     12.45787      7.19060        -0.249304      0.269131     -0.095021
      6.92611      4.33047      7.13263         0.438528     -0.328008     -0.758415
      7.16137      8.46371      7.05245        -0.114254      0.466384      0.031086
     11.03232      4.22034      7.08737         0.149352     -0.246307      0.262244
      9.13192      0.24700      4.21215         0.279677      0.322405     -0.495774
      0.79577      0.24116      3.72646         0.213328      0.206379      0.195462
      0.97473      4.31298      3.85951        -0.433533      0.311466      0.496678
      0.72481      8.46458      4.01991         0.193390      0.004540     -0.217234
      4.86273      0.17751      3.97947         0.314360     -0.159568      0.504791
      4.90084      4.33089      3.88149         0.140962     -0.016928     -0.286997
      5.00830      8.67539      4.07385        -0.272078     -0.388394     -0.388157
      2.90303      0.25880      7.31136        -0.205974     -1.157660      0.076453
     11.04859      8.26682      7.12414         0.635316      0.110635      0.027726
     11.16352     10.69797      1.57231        -0.444027     -0.093053      0.387457
      3.00065      2.22350      1.61058        -0.399542      0.359544      0.147497
     11.19085      2.52985      1.55060        -0.283725     -0.518825     -0.250677
      8.92490      4.33368      4.11993         0.204785     -0.318805      0.034478
      0.92055      2.29267      9.40906         0.063455      0.567310      0.426628
      0.78051      6.08533      9.34745         0.147377      0.475275     -0.191455
      0.76960     10.41519      9.61988         0.353831      0.261671     -0.496808
      4.88844      2.26334      9.55121         0.429669     -0.037124     -0.051786
      5.48439      6.53713      9.54552        -1.211567     -0.255222      0.242787
      4.83569     10.51180      9.54556         0.131846     -0.202194      0.747547
      9.23894      2.01619      9.64087        -0.623424      0.286993     -0.367040
      9.18047      6.20678      9.43812        -0.164450     -0.073780      0.061295
      9.24428     10.66296      9.40760        -0.019879      0.157163      0.571369
      2.83309      6.41957      1.59710         0.477973      0.519660     -0.165432
      2.92150     10.57006      1.60173        -0.421765      0.284336     -0.206613
      6.94259      2.20592      1.68311         0.213874     -0.021926     -0.751197
      6.95781      6.49225      1.70454         0.278009      0.120292     -0.828927
      7.02022     10.67599      1.57017         0.263251      0.161332      0.307151
     11.06864      6.36965      1.42221         0.136171     -0.080450      0.437246
      9.08785      8.53521      3.92799         0.042940     -0.138832     -0.143001
 -----------------------------------------------------------------------------------
    total drift:                                0.000565      0.002264      0.000117


--------------------------------------------------------------------------------------------------------



  FREE ENERGIE OF THE ION-ELECTRON SYSTEM (eV)
  ---------------------------------------------------
  free  energy   TOTEN  =      -300.61466987 eV

  energy  without entropy=     -300.61466987  energy(sigma->0) =     -300.61466987
 


--------------------------------------------------------------------------------------------------------


    POTLOK:  cpu time      0.7298: real time      0.7326


--------------------------------------------------------------------------------------------------------


     LOOP+:  cpu time    181.3925: real time    182.2930
    4ORBIT:  cpu time      0.0000: real time      0.0000



 total charge

# of ion       s       p       d       tot
------------------------------------------
    1        1.328   0.741   0.052   2.122
    2        1.328   0.751   0.055   2.134
    3        1.325   0.763   0.059   2.148
    4        1.324   0.774   0.060   2.157
    5        1.331   0.734   0.051   2.115
    6        1.325   0.764   0.056   2.145
    7        1.329   0.734   0.050   2.114
    8        1.324   0.753   0.053   2.129
    9        1.306   0.807   0.060   2.173
   10        1.329   0.758   0.054   2.141
   11        1.333   0.709   0.045   2.086
   12        1.315   0.798   0.060   2.173
   13        1.322   0.774   0.060   2.156
   14        1.328   0.776   0.059   2.164
   15        1.334   0.739   0.054   2.126
   16        1.327   0.757   0.060   2.145
   17        1.305   0.772   0.052   2.129
   18        1.318   0.775   0.059   2.152
   19        1.306   0.822   0.062   2.189
   20        1.324   0.776   0.058   2.158
   21        1.323   0.761   0.059   2.143
   22        1.313   0.796   0.061   2.170
   23        1.331   0.734   0.051   2.116
   24        1.315   0.796   0.064   2.175
   25        1.327   0.738   0.052   2.116
   26        1.333   0.727   0.047   2.107
   27        1.327   0.756   0.055   2.138
   28        1.324   0.772   0.056   2.152
   29        1.327   0.725   0.051   2.103
   30        1.330   0.758   0.056   2.144
   31        1.332   0.724   0.053   2.109
   32        1.331   0.756   0.055   2.141
   33        1.305   0.830   0.065   2.200
   34        1.325   0.757   0.053   2.136
   35        1.331   0.741   0.058   2.129
   36        1.327   0.735   0.050   2.111
   37        1.476   2.307   0.032   3.815
   38        1.479   2.312   0.038   3.829
   39        1.478   2.307   0.035   3.821
   40        1.478   2.303   0.034   3.815
   41        1.475   2.321   0.035   3.831
   42        1.479   2.292   0.032   3.803
   43        1.476   2.301   0.031   3.808
   44        1.480   2.293   0.034   3.807
   45        1.473   2.309   0.031   3.814
   46        1.473   2.327   0.036   3.837
   47        1.476   2.276   0.025   3.776
   48        1.475   2.308   0.034   3.818
   49        1.475   2.288   0.027   3.789
   50        1.479   2.270   0.026   3.775
   51        1.471   2.332   0.033   3.836
   52        1.476   2.300   0.031   3.807
   53        1.478   2.282   0.027   3.786
   54        1.476   2.302   0.030   3.807
   55        1.480   2.294   0.035   3.809
   56        1.478   2.281   0.028   3.787
   57        1.474   2.292   0.027   3.793
   58        1.475   2.311   0.032   3.817
   59        1.479   2.263   0.026   3.768
   60        1.476   2.294   0.029   3.798
   61        1.474   2.303   0.029   3.807
   62        1.474   2.334   0.038   3.846
   63        1.480   2.281   0.030   3.791
   64        1.476   2.317   0.037   3.830
   65        1.474   2.308   0.031   3.814
   66        1.476   2.307   0.032   3.815
   67        1.474   2.318   0.034   3.826
   68        1.477   2.315   0.035   3.826
   69        1.474   2.328   0.036   3.838
   70        1.476   2.287   0.029   3.792
   71        1.478   2.275   0.028   3.780
   72        1.476   2.293   0.029   3.798
--------------------------------------------------
tot        100.803 110.210   3.141 214.155



 magnetization (x)

# of ion       s       p       d       tot
------------------------------------------
    1       -0.000   0.000   0.000   0.000
    2       -0.000   0.000   0.000   0.000
    3       -0.000   0.000  -0.000   0.000
    4       -0.000   0.000  -0.000  -0.000
    5       -0.000   0.000  -0.000  -0.000
    6       -0.000   0.000  -0.000   0.000
    7       -0.000   0.000  -0.000  -0.000
    8       -0.000   0.000  -0.000   0.000
    9       -0.000   0.000   0.000   0.000
   10       -0.000   0.000   0.000   0.000
   11       -0.000   0.000   0.000   0.000
   12       -0.000   0.000   0.000   0.000
   13       -0.000   0.000  -0.000   0.000
   14       -0.000   0.000  -0.000   0.000
   15       -0.000   0.000  -0.000   0.000
   16       -0.000   0.000  -0.000  -0.000
   17       -0.000   0.000   0.000   0.000
   18       -0.000   0.000   0.000   0.000
   19       -0.000   0.000  -0.000   0.000
   20       -0.000   0.000  -0.000   0.000
   21       -0.000   0.000   0.000   0.000
   22       -0.000   0.000   0.000   0.000
   23       -0.000   0.000   0.000   0.000
   24       -0.000   0.000   0.000   0.000
   25       -0.000   0.000   0.000   0.000
   26       -0.000   0.000  -0.000  -0.000
   27       -0.000   0.000  -0.000  -0.000
   28       -0.000   0.000   0.000   0.000
   29       -0.000   0.000   0.000   0.000
   30       -0.000   0.000  -0.000   0.000
   31       -0.000   0.000   0.000   0.000
   32       -0.000   0.000  -0.000  -0.000
   33       -0.000   0.000  -0.000   0.000
   34       -0.000   0.000  -0.000   0.000
   35       -0.000   0.000   0.000   0.000
   36       -0.000  -0.000  -0.000  -0.000
   37       -0.000  -0.000   0.000  -0.000
   38       -0.000  -0.000   0.000  -0.000
   39       -0.000  -0.000   0.000  -0.000
   40       -0.000  -0.000   0.000  -0.000
   41       -0.000  -0.000  -0.000  -0.000
   42       -0.000  -0.000  -0.000  -0.000
   43       -0.000  -0.000   0.000  -0.000
   44       -0.000  -0.000  -0.000  -0.000
   45       -0.000  -0.000   0.000  -0.000
   46       -0.000  -0.000   0.000  -0.000
   47       -0.000  -0.000   0.000  -0.000
   48       -0.000  -0.000   0.000  -0.000
   49       -0.000  -0.000   0.000  -0.000
   50       -0.000  -0.000   0.000  -0.000
   51       -0.000  -0.000   0.000  -0.000
   52       -0.000  -0.000   0.000  -0.000
   53       -0.000  -0.000   0.000  -0.000
   54       -0.000  -0.000   0.000  -0.000
   55       -0.000  -0.000   0.000  -0.000
   56       -0.000  -0.000  -0.000  -0.000
   57       -0.000  -0.000   0.000  -0.000
   58       -0.000  -0.000   0.000  -0.000
   59       -0.000  -0.000   0.000  -0.000
   60       -0.000  -0.000   0.000  -0.000
   61       -0.000  -0.000   0.000  -0.000
   62       -0.000  -0.000   0.000  -0.000
   63       -0.000  -0.000   0.000  -0.000
   64       -0.000  -0.000  -0.000  -0.000
   65       -0.000  -0.000  -0.000  -0.000
   66       -0.000  -0.000   0.000  -0.000
   67       -0.000  -0.000   0.000  -0.000
   68       -0.000  -0.000   0.000  -0.000
   69       -0.000  -0.000  -0.000  -0.000
   70       -0.000  -0.000   0.000  -0.000
   71       -0.000  -0.000   0.000  -0.000
   72       -0.000  -0.000  -0.000  -0.000
--------------------------------------------------
tot         -0.000  -0.000   0.000  -0.000
 

 total amount of memory used by VASP MPI-rank0   110685. kBytes
=======================================================================

   base      :      30000. kBytes
   nonl-proj :      16332. kBytes
   fftplans  :       6180. kBytes
   grid      :      15593. kBytes
   one-center:        146. kBytes
   wavefun   :      42434. kBytes
 
  
  
 General timing and accounting informations for this job:
 ========================================================
  
                  Total CPU time used (sec):      193.033
                            User time (sec):      186.935
                          System time (sec):        6.098
                         Elapsed time (sec):      195.324
  
                   Maximum memory used (kb):      314724.
                   Average memory used (kb):          N/A
  
                          Minor page faults:        95798
                          Major page faults:           51
                 Voluntary context switches:         7656
