 running  128 mpi-ranks, with    1 threads/rank, on    2 nodes
 distrk:  each k-point on   64 cores,    2 groups
 distr:  one band on    8 cores,    8 groups
 vasp.6.4.2 20Jul23 (build Oct 12 2023 10:31:02) complex                         
 POSCAR found type information on POSCAR GeSe
 POSCAR found :  2 types and      72 ions
 Reading from existing POTCAR
 -----------------------------------------------------------------------------
|                                                                             |
|           W    W    AA    RRRRR   N    N  II  N    N   GGGG   !!!           |
|           W    W   A  A   R    R  NN   N  II  NN   N  G    G  !!!           |
|           W    W  A    A  R    R  N N  N  II  N N  N  G       !!!           |
|           W WW W  AAAAAA  RRRRR   N  N N  II  N  N N  G  GGG   !            |
|           WW  WW  A    A  R   R   N   NN  II  N   NN  G    G                |
|           W    W  A    A  R    R  N    N  II  N    N   GGGG   !!!           |
|                                                                             |
|     You use a magnetic or noncollinear calculation, but did not specify     |
|     the initial magnetic moment with the MAGMOM tag. Note that a            |
|     default of 1 will be used for all atoms. This ferromagnetic setup       |
|     may break the symmetry of the crystal, in particular it may rule        |
|     out finding an antiferromagnetic solution. Thence, we recommend         |
|     setting the initial magnetic moment manually or verifying carefully     |
|     that this magnetic setup is desired.                                    |
|                                                                             |
 -----------------------------------------------------------------------------

 scaLAPACK will be used
 Reading from existing POTCAR
 -----------------------------------------------------------------------------
|                                                                             |
|               ----> ADVICE to this user running VASP <----                  |
|                                                                             |
|     You have a (more or less) 'large supercell' and for larger cells it     |
|     might be more efficient to use real-space projection operators.         |
|     Therefore, try LREAL= Auto in the INCAR file.                           |
|     Mind: For very accurate calculation, you might also keep the            |
|     reciprocal projection scheme (i.e. LREAL=.FALSE.).                      |
|                                                                             |
 -----------------------------------------------------------------------------

 LDA part: xc-table for Pade appr. of Perdew
 -----------------------------------------------------------------------------
|                                                                             |
|           W    W    AA    RRRRR   N    N  II  N    N   GGGG   !!!           |
|           W    W   A  A   R    R  NN   N  II  NN   N  G    G  !!!           |
|           W    W  A    A  R    R  N N  N  II  N N  N  G       !!!           |
|           W WW W  AAAAAA  RRRRR   N  N N  II  N  N N  G  GGG   !            |
|           WW  WW  A    A  R   R   N   NN  II  N   NN  G    G                |
|           W    W  A    A  R    R  N    N  II  N    N   GGGG   !!!           |
|                                                                             |
|     The number of bands has been changed from the values supplied in        |
|     the INCAR file. This is a result of running the parallel version.       |
|     The orbitals not found in the WAVECAR file will be initialized with     |
|     random numbers, which is usually adequate. For correlated               |
|     calculations, however, you should redo the groundstate calculation.     |
|     I found NBANDS = 220. Now, NBANDS = 224.                                |
|                                                                             |
 -----------------------------------------------------------------------------

 POSCAR, INCAR and KPOINTS ok, starting setup
 FFT: planning ... GRIDC
 FFT: planning ... GRID_SOFT
 FFT: planning ... GRID
 WAVECAR not read
 WARNING: random wavefunctions but no delay for mixing, default for NELMDL
 entering main loop
       N       E                     dE             d eps       ncg     rms          rms(c)
DAV:   1     0.181480081993E+04    0.18148E+04   -0.14184E+05  7168   0.135E+03
DAV:   2    -0.644218886377E+02   -0.18792E+04   -0.18054E+04  8464   0.205E+02
DAV:   3    -0.281696694639E+03   -0.21727E+03   -0.21122E+03  8576   0.690E+01
DAV:   4    -0.289625360914E+03   -0.79287E+01   -0.78340E+01  8712   0.130E+01
DAV:   5    -0.289930554133E+03   -0.30519E+00   -0.30435E+00  9088   0.215E+00    0.292E+01
DAV:   6    -0.289618751249E+03    0.31180E+00   -0.26561E+01  7904   0.760E+00    0.173E+01
DAV:   7    -0.296874603617E+03   -0.72559E+01   -0.86492E+00  8008   0.449E+00    0.910E+00
DAV:   8    -0.300098832432E+03   -0.32242E+01   -0.17225E+00  8160   0.223E+00    0.328E+00
DAV:   9    -0.300475456887E+03   -0.37662E+00   -0.41973E-01  9024   0.101E+00    0.148E+00
DAV:  10    -0.300580211515E+03   -0.10475E+00   -0.97483E-02  8120   0.468E-01    0.730E-01
DAV:  11    -0.300611101366E+03   -0.30890E-01   -0.34616E-02  8928   0.274E-01    0.286E-01
DAV:  12    -0.300614535109E+03   -0.34337E-02   -0.46263E-03  8496   0.118E-01    0.103E-01
DAV:  13    -0.300614650902E+03   -0.11579E-03   -0.54098E-04  9816   0.363E-02    0.417E-02
DAV:  14    -0.300614666127E+03   -0.15225E-04   -0.84113E-05  8224   0.182E-02    0.154E-02
DAV:  15    -0.300614669182E+03   -0.30552E-05   -0.13391E-05  8528   0.829E-03    0.713E-03
DAV:  16    -0.300614669865E+03   -0.68340E-06   -0.14875E-06  4776   0.260E-03
   1 F= -.30061467E+03 E0= -.30061467E+03  d E =-.224130E-14  mag=     0.0005
