 vasp.6.4.2 20Jul23 (build Oct 12 2023 10:31:02) complex                         
 executed on              LinuxNV date 2025.05.28  15:14:38
 running  128 mpi-ranks, with    1 threads/rank, on    2 nodes
 distrk:  each k-point on   64 cores,    2 groups
 distr:  one band on NCORE=   4 cores,   16 groups


--------------------------------------------------------------------------------------------------------


 INCAR:
   ENCUT = 360.000000
   SIGMA = 0.050000
   EDIFF = 1.00e-06
   ALGO = Normal
   GGA = PE
   PREC = Normal
   SYSTEM = ./
   ICHARG = 2
   ISMEAR = 0
   ISPIN = 1
   ISTART = 0
   ISYM = 0
   KPAR = 2
   LMAXMIX = 4
   NELM = 100
   NPAR = 16
   LASPH = .TRUE.
   LCHARG = .FALSE.
   LWAVE = .FALSE.

 POTCAR:    PAW_PBE Ge 05Jan2001                  
 POTCAR:    PAW_PBE Se 06Sep2000                  
 POTCAR:    PAW_PBE Ge 05Jan2001                  
   VRHFIN =Ge: s2p2                                                                                 
   LEXCH  = PE                                                                                      
   EATOM  =   104.9960 eV,    7.7170 Ry                                                             
                                                                                                    
   TITEL  = PAW_PBE Ge 05Jan2001                                                                    
   LULTRA =        F    use ultrasoft PP ?                                                          
   IUNSCR =        1    unscreen: 0-lin 1-nonlin 2-no                                               
   RPACOR =    2.170    partial core radius                                                         
   POMASS =   72.610; ZVAL   =    4.000    mass and valenz                                          
   RCORE  =    2.300    outmost cutoff radius                                                       
   RWIGS  =    2.300; RWIGS  =    1.217    wigner-seitz radius (au A)                               
   ENMAX  =  173.807; ENMIN  =  130.355 eV                                                          
   ICORE  =        3    local potential                                                             
   LCOR   =        T    correct aug charges                                                         
   LPAW   =        T    paw PP                                                                      
   EAUG   =  385.843                                                                                
   DEXC   =    0.000                                                                                
   RMAX   =    2.342    core radius for proj-oper                                                   
   RAUG   =    1.300    factor for augmentation sphere                                              
   RDEP   =    2.318    radius for radial grids                                                     
   RDEPT  =    2.103    core radius for aug-charge                                                  
                                                                                                    
   Atomic configuration                                                                             
   10 entries                                                                                       
     n  l   j            E        occ.                                                              
     1  0  0.50    -10959.8463   2.0000                                                             
     2  0  0.50     -1371.6056   2.0000                                                             
     2  1  1.50     -1198.4791   6.0000                                                             
     3  0  0.50      -168.4733   2.0000                                                             
     3  1  1.50      -115.6019   6.0000                                                             
     3  2  2.50       -29.3106  10.0000                                                             
     4  0  0.50       -11.7309   2.0000                                                             
     4  1  0.50        -3.8952   2.0000                                                             
     4  2  1.50        -4.0817   0.0000                                                             
     4  3  2.50        -4.0817   0.0000                                                             
   Description                                                                                      
     l       E           TYP  RCUT    TYP  RCUT                                                     
     0    -11.7309493     23  2.300                                                                 
     0     -7.4578696     23  2.300                                                                 
     1     -3.8952261     23  2.300                                                                 
     1      6.1178114     23  2.300                                                                 
     2     -4.0817478     23  2.300                                                                 
     3     -1.3605826      7  2.300                                                                 
  local pseudopotential read in
  partial core-charges read in
  partial kinetic energy density read in
  atomic valenz-charges read in
  non local Contribution for L=            0  read in
    real space projection operators read in
  non local Contribution for L=            0  read in
    real space projection operators read in
  non local Contribution for L=            1  read in
    real space projection operators read in
  non local Contribution for L=            1  read in
    real space projection operators read in
  non local Contribution for L=            2  read in
    real space projection operators read in
    PAW grid and wavefunctions read in
 
   number of l-projection  operators is LMAX  =            5
   number of lm-projection operators is LMMAX =           13
 
 POTCAR:    PAW_PBE Se 06Sep2000                  
   VRHFIN =Se: s2p4                                                                                 
   LEXCH  = PE                                                                                      
   EATOM  =   257.1286 eV,   18.8984 Ry                                                             
                                                                                                    
   TITEL  = PAW_PBE Se 06Sep2000                                                                    
   LULTRA =        F    use ultrasoft PP ?                                                          
   IUNSCR =        1    unscreen: 0-lin 1-nonlin 2-no                                               
   RPACOR =    1.900    partial core radius                                                         
   POMASS =   78.960; ZVAL   =    6.000    mass and valenz                                          
   RCORE  =    2.100    outmost cutoff radius                                                       
   RWIGS  =    2.200; RWIGS  =    1.164    wigner-seitz radius (au A)                               
   ENMAX  =  211.555; ENMIN  =  158.666 eV                                                          
   ICORE  =        3    local potential                                                             
   LCOR   =        T    correct aug charges                                                         
   LPAW   =        T    paw PP                                                                      
   EAUG   =  446.842                                                                                
   DEXC   =    0.000                                                                                
   RMAX   =    2.147    core radius for proj-oper                                                   
   RAUG   =    1.300    factor for augmentation sphere                                              
   RDEP   =    2.177    radius for radial grids                                                     
   RDEPT  =    1.928    core radius for aug-charge                                                  
                                                                                                    
   Atomic configuration                                                                             
   10 entries                                                                                       
     n  l   j            E        occ.                                                              
     1  0  0.50    -12503.4787   2.0000                                                             
     2  0  0.50     -1606.9547   2.0000                                                             
     2  1  1.50     -1413.3140   6.0000                                                             
     3  0  0.50      -213.4885   2.0000                                                             
     3  1  1.50      -152.9538   6.0000                                                             
     3  2  2.50       -53.1221  10.0000                                                             
     4  0  0.50       -17.2865   2.0000                                                             
     4  1  0.50        -6.5110   4.0000                                                             
     4  2  2.50        -6.8029   0.0000                                                             
     4  3  2.50        -6.8029   0.0000                                                             
   Description                                                                                      
     l       E           TYP  RCUT    TYP  RCUT                                                     
     0    -17.2865377     23  2.100                                                                 
     0    -15.3094411     23  2.100                                                                 
     1     -6.5110275     23  2.100                                                                 
     1     -0.0695192     23  2.100                                                                 
     2     -6.8029130     23  2.100                                                                 
     3     -1.3605826      7  2.100                                                                 
  local pseudopotential read in
  partial core-charges read in
  partial kinetic energy density read in
  atomic valenz-charges read in
  non local Contribution for L=            0  read in
    real space projection operators read in
  non local Contribution for L=            0  read in
    real space projection operators read in
  non local Contribution for L=            1  read in
    real space projection operators read in
  non local Contribution for L=            1  read in
    real space projection operators read in
  non local Contribution for L=            2  read in
    real space projection operators read in
    PAW grid and wavefunctions read in
 
   number of l-projection  operators is LMAX  =            5
   number of lm-projection operators is LMMAX =           13
 
  PAW_PBE Ge 05Jan2001                  :
 energy of atom  1       EATOM= -104.9960
 kinetic energy error for atom=    0.0005 (will be added to EATOM!!)
  PAW_PBE Se 06Sep2000                  :
 energy of atom  2       EATOM= -257.1286
 kinetic energy error for atom=    0.0030 (will be added to EATOM!!)
 
 
 POSCAR: Ge Se
  positions in cartesian coordinates
  No initial velocities read in
 exchange correlation table for  LEXCH =        8
   RHO(1)=    0.500       N(1)  =     2000
   RHO(2)=  100.500       N(2)  =     4000
 


--------------------------------------------------------------------------------------------------------


 ion  position               nearest neighbor table
   1  0.104  0.250  0.131-   5 2.55   6 2.69   6 2.69
   2  0.604  0.750  0.369-   6 2.55   5 2.69   5 2.69
   3  0.896  0.750  0.869-   7 2.55   8 2.69   8 2.69
   4  0.396  0.250  0.631-   8 2.55   7 2.69   7 2.69
   5  0.978  0.250  0.355-   1 2.55   2 2.69   2 2.69
   6  0.478  0.750  0.145-   2 2.55   1 2.69   1 2.69
   7  0.022  0.750  0.645-   3 2.55   4 2.69   4 2.69
   8  0.522  0.250  0.855-   4 2.55   3 2.69   3 2.69
 

IMPORTANT INFORMATION: All symmetrisations will be switched off!
NOSYMM: (Re-)initialisation of all symmetry stuff for point group C_1.


----------------------------------------------------------------------------------------

                                     Primitive cell                                     

  volume of cell :     208.3595

  direct lattice vectors                    reciprocal lattice vectors
     4.400000000  0.000000000  0.000000000     0.227272727  0.000000000  0.000000000
     0.000000000  4.250000000  0.000000000     0.000000000  0.235294118  0.000000000
     0.000000000  0.000000000 11.142221000     0.000000000  0.000000000  0.089748713

  length of vectors
     4.400000000  4.250000000 11.142221000     0.227272727  0.235294118  0.089748713

  position of ions in fractional coordinates (direct lattice)
     0.103941155  0.250000000  0.131149931
     0.603941155  0.750000000  0.368850069
     0.896058845  0.750000000  0.868850069
     0.396058845  0.250000000  0.631149931
     0.977736565  0.250000000  0.354930620
     0.477736565  0.750000000  0.145069380
     0.022263435  0.750000000  0.645069380
     0.522263435  0.250000000  0.854930620

  ion indices of the primitive-cell ions
   primitive index   ion index
                 1           1
                 2           2
                 3           3
                 4           4
                 5           5
                 6           6
                 7           7
                 8           8

----------------------------------------------------------------------------------------

 
 
 KPOINTS: KPOINTS created by Atomic Simulation Env

Automatic generation of k-mesh.
 Grid dimensions read from file:
 generate k-points for:    6    6    2

 Generating k-lattice:

  Cartesian coordinates                     Fractional coordinates (reciprocal lattice)
     0.037878788  0.000000000  0.000000000     0.166666667  0.000000000  0.000000000
     0.000000000  0.039215686  0.000000000     0.000000000  0.166666667  0.000000000
     0.000000000  0.000000000  0.044874357     0.000000000  0.000000000  0.500000000

  Length of vectors
     0.037878788  0.039215686  0.044874357

  Shift w.r.t. Gamma in fractional coordinates (k-lattice)
     0.000000000  0.000000000  0.000000000

 
 Subroutine IBZKPT returns following result:
 ===========================================
 
 Found     40 irreducible k-points:
 
 Following reciprocal coordinates:
            Coordinates               Weight
  0.000000  0.000000  0.000000      1.000000
  0.166667  0.000000  0.000000      2.000000
  0.333333  0.000000  0.000000      2.000000
  0.500000  0.000000  0.000000      1.000000
  0.000000  0.166667  0.000000      2.000000
  0.166667  0.166667  0.000000      2.000000
 -0.166667  0.166667  0.000000      2.000000
  0.333333  0.166667  0.000000      2.000000
 -0.333333  0.166667  0.000000      2.000000
  0.500000  0.166667  0.000000      2.000000
  0.000000  0.333333  0.000000      2.000000
  0.166667  0.333333  0.000000      2.000000
 -0.166667  0.333333  0.000000      2.000000
  0.333333  0.333333  0.000000      2.000000
 -0.333333  0.333333  0.000000      2.000000
  0.500000  0.333333  0.000000      2.000000
  0.000000  0.500000  0.000000      1.000000
  0.166667  0.500000  0.000000      2.000000
  0.333333  0.500000  0.000000      2.000000
  0.500000  0.500000  0.000000      1.000000
  0.000000  0.000000  0.500000      1.000000
  0.166667  0.000000  0.500000      2.000000
  0.333333  0.000000  0.500000      2.000000
  0.500000  0.000000  0.500000      1.000000
  0.000000  0.166667  0.500000      2.000000
  0.166667  0.166667  0.500000      2.000000
 -0.166667  0.166667  0.500000      2.000000
  0.333333  0.166667  0.500000      2.000000
 -0.333333  0.166667  0.500000      2.000000
  0.500000  0.166667  0.500000      2.000000
  0.000000  0.333333  0.500000      2.000000
  0.166667  0.333333  0.500000      2.000000
 -0.166667  0.333333  0.500000      2.000000
  0.333333  0.333333  0.500000      2.000000
 -0.333333  0.333333  0.500000      2.000000
  0.500000  0.333333  0.500000      2.000000
  0.000000  0.500000  0.500000      1.000000
  0.166667  0.500000  0.500000      2.000000
  0.333333  0.500000  0.500000      2.000000
  0.500000  0.500000  0.500000      1.000000
 
 Following cartesian coordinates:
            Coordinates               Weight
  0.000000  0.000000  0.000000      1.000000
  0.037879  0.000000  0.000000      2.000000
  0.075758  0.000000  0.000000      2.000000
  0.113636  0.000000  0.000000      1.000000
  0.000000  0.039216  0.000000      2.000000
  0.037879  0.039216  0.000000      2.000000
 -0.037879  0.039216  0.000000      2.000000
  0.075758  0.039216  0.000000      2.000000
 -0.075758  0.039216  0.000000      2.000000
  0.113636  0.039216  0.000000      2.000000
  0.000000  0.078431  0.000000      2.000000
  0.037879  0.078431  0.000000      2.000000
 -0.037879  0.078431  0.000000      2.000000
  0.075758  0.078431  0.000000      2.000000
 -0.075758  0.078431  0.000000      2.000000
  0.113636  0.078431  0.000000      2.000000
  0.000000  0.117647  0.000000      1.000000
  0.037879  0.117647  0.000000      2.000000
  0.075758  0.117647  0.000000      2.000000
  0.113636  0.117647  0.000000      1.000000
  0.000000  0.000000  0.044874      1.000000
  0.037879  0.000000  0.044874      2.000000
  0.075758  0.000000  0.044874      2.000000
  0.113636  0.000000  0.044874      1.000000
  0.000000  0.039216  0.044874      2.000000
  0.037879  0.039216  0.044874      2.000000
 -0.037879  0.039216  0.044874      2.000000
  0.075758  0.039216  0.044874      2.000000
 -0.075758  0.039216  0.044874      2.000000
  0.113636  0.039216  0.044874      2.000000
  0.000000  0.078431  0.044874      2.000000
  0.037879  0.078431  0.044874      2.000000
 -0.037879  0.078431  0.044874      2.000000
  0.075758  0.078431  0.044874      2.000000
 -0.075758  0.078431  0.044874      2.000000
  0.113636  0.078431  0.044874      2.000000
  0.000000  0.117647  0.044874      1.000000
  0.037879  0.117647  0.044874      2.000000
  0.075758  0.117647  0.044874      2.000000
  0.113636  0.117647  0.044874      1.000000
 


--------------------------------------------------------------------------------------------------------




 Dimension of arrays:
   k-points           NKPTS =     40   k-points in BZ     NKDIM =     40   number of bands    NBANDS=     32
   number of dos      NEDOS =    301   number of ions     NIONS =      8
   non local maximal  LDIM  =      5   non local SUM 2l+1 LMDIM =     13
   total plane-waves  NPLWV =  21600
   max r-space proj   IRMAX =      1   max aug-charges    IRDMAX=   5833
   dimension x,y,z NGX =    20 NGY =   20 NGZ =   54
   dimension x,y,z NGXF=    40 NGYF=   40 NGZF=  108
   support grid    NGXF=    40 NGYF=   40 NGZF=  108
   ions per type =               4   4
   NGX,Y,Z   is equivalent  to a cutoff of   7.56,  7.82,  8.06 a.u.
   NGXF,Y,Z  is equivalent  to a cutoff of  15.11, 15.65, 16.11 a.u.

 SYSTEM =  ./                                      
 POSCAR =  Ge Se                                   

 Startparameter for this run:
   NWRITE =      2    write-flag & timer
   PREC   = normal    normal or accurate (medium, high low for compatibility)
   ISTART =      0    job   : 0-new  1-cont  2-samecut
   ICHARG =      2    charge: 1-file 2-atom 10-const
   ISPIN  =      1    spin polarized calculation?
   LNONCOLLINEAR =      F non collinear calculations
   LSORBIT =      F    spin-orbit coupling
   INIWAV =      1    electr: 0-lowe 1-rand  2-diag
   LASPH  =      T    aspherical Exc in radial PAW
 Electronic Relaxation 1
   ENCUT  =  360.0 eV  26.46 Ry    5.14 a.u.   6.81  6.58 17.24*2*pi/ulx,y,z
   ENINI  =  360.0     initial cutoff
   ENAUG  =  446.8 eV  augmentation charge cutoff
   NELM   =    100;   NELMIN=  2; NELMDL= -5     # of ELM steps 
   EDIFF  = 0.1E-05   stopping-criterion for ELM
   LREAL  =      F    real-space projection
   NLSPLINE    = F    spline interpolate recip. space projectors
   LCOMPAT=      F    compatible to vasp.4.4
   GGA_COMPAT  = T    GGA compatible to vasp.4.4-vasp.4.6
   LMAXPAW     = -100 max onsite density
   LMAXMIX     =    4 max onsite mixed and CHGCAR
   VOSKOWN=      0    Vosko Wilk Nusair interpolation
   ROPT   =    0.00000   0.00000
 Ionic relaxation
   EDIFFG = 0.1E-04   stopping-criterion for IOM
   NSW    =      0    number of steps for IOM
   NBLOCK =      1;   KBLOCK =      1    inner block; outer block 
   IBRION =     -1    ionic relax: 0-MD 1-quasi-New 2-CG
   NFREE  =      0    steps in history (QN), initial steepest desc. (CG)
   ISIF   =      2    stress and relaxation
   IWAVPR =     10    prediction:  0-non 1-charg 2-wave 3-comb
   ISYM   =      0    0-nonsym 1-usesym 2-fastsym
   LCORR  =      T    Harris-Foulkes like correction to forces

   POTIM  = 0.5000    time-step for ionic-motion
   TEIN   =    0.0    initial temperature
   TEBEG  =    0.0;   TEEND  =   0.0 temperature during run
   SMASS  =  -3.00    Nose mass-parameter (am)
   estimated Nose-frequenzy (Omega)   =  0.10E-29 period in steps = 0.13E+47 mass=  -0.442E-27a.u.
   SCALEE = 1.0000    scale energy and forces
   NPACO  =    256;   APACO  = 10.0  distance and # of slots for P.C.
   PSTRESS=    0.0 pullay stress

  Mass of Ions in am
   POMASS =  72.61 78.96
  Ionic Valenz
   ZVAL   =   4.00  6.00
  Atomic Wigner-Seitz radii
   RWIGS  =  -1.00 -1.00
  virtual crystal weights 
   VCA    =   1.00  1.00
   NELECT =      40.0000    total number of electrons
   NUPDOWN=      -1.0000    fix difference up-down

 DOS related values:
   EMIN   =  10.00;   EMAX   =-10.00  energy-range for DOS
   EFERMI =   0.00;   METHOD = LEGACY      
   ISMEAR =     0;   SIGMA  =   0.05  broadening in eV -4-tet -1-fermi 0-gaus

 Electronic relaxation 2 (details)
   IALGO  =     38    algorithm
   LDIAG  =      T    sub-space diagonalisation (order eigenvalues)
   LSUBROT=      F    optimize rotation matrix (better conditioning)
   TURBO    =      0    0=normal 1=particle mesh
   IRESTART =      0    0=no restart 2=restart with 2 vectors
   NREBOOT  =      0    no. of reboots
   NMIN     =      0    reboot dimension
   EREF     =   0.00    reference energy to select bands
   IMIX   =      4    mixing-type and parameters
     AMIX     =   0.40;   BMIX     =  1.00
     AMIX_MAG =   1.60;   BMIX_MAG =  1.00
     AMIN     =   0.10
     WC   =   100.;   INIMIX=   1;  MIXPRE=   1;  MAXMIX= -45

 Intra band minimization:
   WEIMIN = 0.0000     energy-eigenvalue tresh-hold
   EBREAK =  0.78E-08  absolut break condition
   DEPER  =   0.30     relativ break condition  

   TIME   =   0.40     timestep for ELM

  volume/ion in A,a.u.               =      26.04       175.76
  Fermi-wavevector in a.u.,A,eV,Ry     =   0.944402  1.784662 12.134978  0.891896
  Thomas-Fermi vector in A             =   2.072204
 
 Write flags
   LWAVE        =      F    write WAVECAR
   LDOWNSAMPLE  =      F    k-point downsampling of WAVECAR
   LCHARG       =      F    write CHGCAR
   LVTOT        =      F    write LOCPOT, total local potential
   LVHAR        =      F    write LOCPOT, Hartree potential only
   LELF         =      F    write electronic localiz. function (ELF)
   LORBIT       =      0    0 simple, 1 ext, 2 COOP (PROOUT), +10 PAW based schemes


 Dipole corrections
   LMONO  =      F    monopole corrections only (constant potential shift)
   LDIPOL =      F    correct potential (dipole corrections)
   IDIPOL =      0    1-x, 2-y, 3-z, 4-all directions 
   EPSILON=  1.0000000 bulk dielectric constant

 Exchange correlation treatment:
   GGA     =    PE    GGA type
   LEXCH   =     8    internal setting for exchange type
   LIBXC   =     F    Libxc                    
   VOSKOWN =     0    Vosko Wilk Nusair interpolation
   LHFCALC =     F    Hartree Fock is set to
   LHFONE  =     F    Hartree Fock one center treatment
   AEXX    =    0.0000 exact exchange contribution

 Linear response parameters
   LEPSILON=     F    determine dielectric tensor
   LRPA    =     F    only Hartree local field effects (RPA)
   LNABLA  =     F    use nabla operator in PAW spheres
   LVEL    =     F    velocity operator in full k-point grid
   CSHIFT  =0.1000    complex shift for real part using Kramers Kronig
   OMEGAMAX=  -1.0    maximum frequency
   DEG_THRESHOLD= 0.2000000E-02 threshold for treating states as degnerate
   RTIME   =   -0.100 relaxation time in fs
  (WPLASMAI=    0.000 imaginary part of plasma frequency in eV, 0.658/RTIME)
   DFIELD  = 0.0000000 0.0000000 0.0000000 field for delta impulse in time
 
  Optional k-point grid parameters
   LKPOINTS_OPT  =     F    use optional k-point grid
   KPOINTS_OPT_MODE=     1    mode for optional k-point grid
 
 Orbital magnetization related:
   ORBITALMAG=     F  switch on orbital magnetization
   LCHIMAG   =     F  perturbation theory with respect to B field
   DQ        =  0.001000  dq finite difference perturbation B field
   LLRAUG    =     F  two centre corrections for induced B field
   LBONE     =     F  B-component reconstruction in AE one-centre
   LVGVCALC  =     T  calculate vGv susceptibility
   LVGVAPPL  =     F  apply vGv susceptibility instead of pGv for G=0

 Random number generation:
   RANDOM_GENERATOR = DEFAULT
   PCG_SEED         = not used


--------------------------------------------------------------------------------------------------------


 Static calculation
 charge density and potential will be updated during run
 non-spin polarized calculation
 Variant of blocked Davidson
 Davidson routine will perform the subspace rotation
 perform sub-space diagonalisation
    after iterative eigenvector-optimisation
 modified Broyden-mixing scheme, WC =      100.0
 initial mixing is a Kerker type mixing with AMIX =  0.4000 and BMIX =      1.0000
 Hartree-type preconditioning will be used
 using additional bands            12
 reciprocal scheme for non local part
 use partial core corrections
 calculate Harris-corrections to forces 
   (improved forces if not selfconsistent)
 use gradient corrections 
 use of overlap-Matrix (Vanderbilt PP)
 Gauss-broadening in eV      SIGMA  =   0.05


--------------------------------------------------------------------------------------------------------


  energy-cutoff  :      360.00
  volume of cell :      208.36
      direct lattice vectors                 reciprocal lattice vectors
     4.400000000  0.000000000  0.000000000     0.227272727  0.000000000  0.000000000
     0.000000000  4.250000000  0.000000000     0.000000000  0.235294118  0.000000000
     0.000000000  0.000000000 11.142221000     0.000000000  0.000000000  0.089748713

  length of vectors
     4.400000000  4.250000000 11.142221000     0.227272727  0.235294118  0.089748713


 
 k-points in units of 2pi/SCALE and weight: KPOINTS created by Atomic Simulation Env
   0.00000000  0.00000000  0.00000000       0.014
   0.03787879  0.00000000  0.00000000       0.028
   0.07575758  0.00000000  0.00000000       0.028
   0.11363636  0.00000000  0.00000000       0.014
   0.00000000  0.03921569  0.00000000       0.028
   0.03787879  0.03921569  0.00000000       0.028
  -0.03787879  0.03921569  0.00000000       0.028
   0.07575758  0.03921569  0.00000000       0.028
  -0.07575758  0.03921569  0.00000000       0.028
   0.11363636  0.03921569  0.00000000       0.028
   0.00000000  0.07843137  0.00000000       0.028
   0.03787879  0.07843137  0.00000000       0.028
  -0.03787879  0.07843137  0.00000000       0.028
   0.07575758  0.07843137  0.00000000       0.028
  -0.07575758  0.07843137  0.00000000       0.028
   0.11363636  0.07843137  0.00000000       0.028
   0.00000000  0.11764706  0.00000000       0.014
   0.03787879  0.11764706  0.00000000       0.028
   0.07575758  0.11764706  0.00000000       0.028
   0.11363636  0.11764706  0.00000000       0.014
   0.00000000  0.00000000  0.04487436       0.014
   0.03787879  0.00000000  0.04487436       0.028
   0.07575758  0.00000000  0.04487436       0.028
   0.11363636  0.00000000  0.04487436       0.014
   0.00000000  0.03921569  0.04487436       0.028
   0.03787879  0.03921569  0.04487436       0.028
  -0.03787879  0.03921569  0.04487436       0.028
   0.07575758  0.03921569  0.04487436       0.028
  -0.07575758  0.03921569  0.04487436       0.028
   0.11363636  0.03921569  0.04487436       0.028
   0.00000000  0.07843137  0.04487436       0.028
   0.03787879  0.07843137  0.04487436       0.028
  -0.03787879  0.07843137  0.04487436       0.028
   0.07575758  0.07843137  0.04487436       0.028
  -0.07575758  0.07843137  0.04487436       0.028
   0.11363636  0.07843137  0.04487436       0.028
   0.00000000  0.11764706  0.04487436       0.014
   0.03787879  0.11764706  0.04487436       0.028
   0.07575758  0.11764706  0.04487436       0.028
   0.11363636  0.11764706  0.04487436       0.014
 
 k-points in reciprocal lattice and weights: KPOINTS created by Atomic Simulation Env
   0.00000000  0.00000000  0.00000000       0.014
   0.16666667  0.00000000  0.00000000       0.028
   0.33333333  0.00000000  0.00000000       0.028
   0.50000000  0.00000000  0.00000000       0.014
   0.00000000  0.16666667  0.00000000       0.028
   0.16666667  0.16666667  0.00000000       0.028
  -0.16666667  0.16666667  0.00000000       0.028
   0.33333333  0.16666667  0.00000000       0.028
  -0.33333333  0.16666667  0.00000000       0.028
   0.50000000  0.16666667  0.00000000       0.028
   0.00000000  0.33333333  0.00000000       0.028
   0.16666667  0.33333333  0.00000000       0.028
  -0.16666667  0.33333333  0.00000000       0.028
   0.33333333  0.33333333  0.00000000       0.028
  -0.33333333  0.33333333  0.00000000       0.028
   0.50000000  0.33333333  0.00000000       0.028
   0.00000000  0.50000000  0.00000000       0.014
   0.16666667  0.50000000  0.00000000       0.028
   0.33333333  0.50000000  0.00000000       0.028
   0.50000000  0.50000000  0.00000000       0.014
   0.00000000  0.00000000  0.50000000       0.014
   0.16666667  0.00000000  0.50000000       0.028
   0.33333333  0.00000000  0.50000000       0.028
   0.50000000  0.00000000  0.50000000       0.014
   0.00000000  0.16666667  0.50000000       0.028
   0.16666667  0.16666667  0.50000000       0.028
  -0.16666667  0.16666667  0.50000000       0.028
   0.33333333  0.16666667  0.50000000       0.028
  -0.33333333  0.16666667  0.50000000       0.028
   0.50000000  0.16666667  0.50000000       0.028
   0.00000000  0.33333333  0.50000000       0.028
   0.16666667  0.33333333  0.50000000       0.028
  -0.16666667  0.33333333  0.50000000       0.028
   0.33333333  0.33333333  0.50000000       0.028
  -0.33333333  0.33333333  0.50000000       0.028
   0.50000000  0.33333333  0.50000000       0.028
   0.00000000  0.50000000  0.50000000       0.014
   0.16666667  0.50000000  0.50000000       0.028
   0.33333333  0.50000000  0.50000000       0.028
   0.50000000  0.50000000  0.50000000       0.014
 
 position of ions in fractional coordinates (direct lattice) 
   0.10394115  0.25000000  0.13114993
   0.60394115  0.75000000  0.36885007
   0.89605885  0.75000000  0.86885007
   0.39605885  0.25000000  0.63114993
   0.97773657  0.25000000  0.35493062
   0.47773657  0.75000000  0.14506938
   0.02226343  0.75000000  0.64506938
   0.52226343  0.25000000  0.85493062
 
 position of ions in cartesian coordinates  (Angst):
   0.45734108  1.06250000  1.46130151
   2.65734108  3.18750000  4.10980899
   3.94265892  3.18750000  9.68091949
   1.74265892  1.06250000  7.03241201
   4.30204089  1.06250000  3.95471541
   2.10204089  3.18750000  1.61639509
   0.09795911  3.18750000  7.18750559
   2.29795911  1.06250000  9.52582591
 


--------------------------------------------------------------------------------------------------------


 k-point   1 :   0.0000 0.0000 0.0000  plane waves:    3251
 k-point   2 :   0.1667 0.0000 0.0000  plane waves:    3249
 k-point   3 :   0.3333 0.0000 0.0000  plane waves:    3254
 k-point   4 :   0.5000 0.0000 0.0000  plane waves:    3210
 k-point   5 :   0.0000 0.1667 0.0000  plane waves:    3249
 k-point   6 :   0.1667 0.1667 0.0000  plane waves:    3240
 k-point   7 :  -0.1667 0.1667 0.0000  plane waves:    3240
 k-point   8 :   0.3333 0.1667 0.0000  plane waves:    3243
 k-point   9 :  -0.3333 0.1667 0.0000  plane waves:    3243
 k-point  10 :   0.5000 0.1667 0.0000  plane waves:    3210
 k-point  11 :   0.0000 0.3333 0.0000  plane waves:    3211
 k-point  12 :   0.1667 0.3333 0.0000  plane waves:    3224
 k-point  13 :  -0.1667 0.3333 0.0000  plane waves:    3224
 k-point  14 :   0.3333 0.3333 0.0000  plane waves:    3239
 k-point  15 :  -0.3333 0.3333 0.0000  plane waves:    3239
 k-point  16 :   0.5000 0.3333 0.0000  plane waves:    3250
 k-point  17 :   0.0000 0.5000 0.0000  plane waves:    3222
 k-point  18 :   0.1667 0.5000 0.0000  plane waves:    3206
 k-point  19 :   0.3333 0.5000 0.0000  plane waves:    3210
 k-point  20 :   0.5000 0.5000 0.0000  plane waves:    3248
 k-point  21 :   0.0000 0.0000 0.5000  plane waves:    3234
 k-point  22 :   0.1667 0.0000 0.5000  plane waves:    3236
 k-point  23 :   0.3333 0.0000 0.5000  plane waves:    3244
 k-point  24 :   0.5000 0.0000 0.5000  plane waves:    3236
 k-point  25 :   0.0000 0.1667 0.5000  plane waves:    3234
 k-point  26 :   0.1667 0.1667 0.5000  plane waves:    3232
 k-point  27 :  -0.1667 0.1667 0.5000  plane waves:    3232
 k-point  28 :   0.3333 0.1667 0.5000  plane waves:    3244
 k-point  29 :  -0.3333 0.1667 0.5000  plane waves:    3244
 k-point  30 :   0.5000 0.1667 0.5000  plane waves:    3264
 k-point  31 :   0.0000 0.3333 0.5000  plane waves:    3224
 k-point  32 :   0.1667 0.3333 0.5000  plane waves:    3224
 k-point  33 :  -0.1667 0.3333 0.5000  plane waves:    3224
 k-point  34 :   0.3333 0.3333 0.5000  plane waves:    3240
 k-point  35 :  -0.3333 0.3333 0.5000  plane waves:    3240
 k-point  36 :   0.5000 0.3333 0.5000  plane waves:    3232
 k-point  37 :   0.0000 0.5000 0.5000  plane waves:    3208
 k-point  38 :   0.1667 0.5000 0.5000  plane waves:    3220
 k-point  39 :   0.3333 0.5000 0.5000  plane waves:    3224
 k-point  40 :   0.5000 0.5000 0.5000  plane waves:    3240

 maximum and minimum number of plane-waves per node :       831      780

 maximum number of plane-waves:      3264
 maximum index in each direction: 
   IXMAX=    7   IYMAX=    6   IZMAX=   17
   IXMIN=   -7   IYMIN=   -7   IZMIN=  -17


 parallel 3D FFT for wavefunctions:
    minimum data exchange during FFTs selected (reduces bandwidth)
 parallel 3D FFT for charge:
    minimum data exchange during FFTs selected (reduces bandwidth)


 total amount of memory used by VASP MPI-rank0    38776. kBytes
=======================================================================

   base      :      30000. kBytes
   nonl-proj :       6893. kBytes
   fftplans  :        320. kBytes
   grid      :        462. kBytes
   one-center:         16. kBytes
   wavefun   :       1085. kBytes
 
     INWAV:  cpu time      0.0000: real time      0.0001
 Broyden mixing: mesh for mixing (old mesh)
   NGX = 13   NGY = 13   NGZ = 35
  (NGX  = 40   NGY  = 40   NGZ  =108)
  gives a total of   5915 points

 initial charge density was supplied:
 charge density of overlapping atoms calculated
 number of electron      40.0000000 magnetization 
 keeping initial charge density in first step


--------------------------------------------------------------------------------------------------------


 Maximum index for augmentation-charges           335 (set IRDMAX)


--------------------------------------------------------------------------------------------------------


 First call to EWALD:  gamma=   0.299
 Maximum number of real-space cells 4x 4x 2
 Maximum number of reciprocal cells 2x 2x 5

    FEWALD:  cpu time      0.0011: real time      0.0011


--------------------------------------- Ionic step        1  -------------------------------------------




--------------------------------------- Iteration      1(   1)  ---------------------------------------


    POTLOK:  cpu time      0.0059: real time      0.0062
    SETDIJ:  cpu time      0.1403: real time      0.1409
     EDDAV:  cpu time      0.2597: real time      0.2622
       DOS:  cpu time      0.0014: real time      0.0014
    --------------------------------------------
      LOOP:  cpu time      0.4073: real time      0.4107

 eigenvalue-minimisations  :  2560
 total energy-change (2. order) : 0.1306207E+03  (-0.1275613E+04)
 number of electron      40.0000000 magnetization 
 augmentation part       40.0000000 magnetization 

 Free energy of the ion-electron system (eV)
  ---------------------------------------------------
  alpha Z        PSCENC =        81.32311116
  Ewald energy   TEWEN  =     -1382.47372273
  -Hartree energ DENC   =      -139.15943084
  -exchange      EXHF   =         0.00000000
  -V(xc)+E(xc)   XCENC  =       -34.37643213
  PAW double counting   =      1193.78262552    -1080.73714043
  entropy T*S    EENTRO =        -0.00406214
  eigenvalues    EBANDS =        43.78110398
  atomic energy  EATOM  =      1448.48460880
  Solvation  Ediel_sol  =         0.00000000
  ---------------------------------------------------
  free energy    TOTEN  =       130.62066118 eV

  energy without entropy =      130.62472333  energy(sigma->0) =      130.62269226


--------------------------------------------------------------------------------------------------------




--------------------------------------- Iteration      1(   2)  ---------------------------------------


     EDDAV:  cpu time      0.3392: real time      0.3424
       DOS:  cpu time      0.0006: real time      0.0006
    --------------------------------------------
      LOOP:  cpu time      0.3397: real time      0.3430

 eigenvalue-minimisations  :  3776
 total energy-change (2. order) :-0.1556372E+03  (-0.1511330E+03)
 number of electron      40.0000000 magnetization 
 augmentation part       40.0000000 magnetization 

 Free energy of the ion-electron system (eV)
  ---------------------------------------------------
  alpha Z        PSCENC =        81.32311116
  Ewald energy   TEWEN  =     -1382.47372273
  -Hartree energ DENC   =      -139.15943084
  -exchange      EXHF   =         0.00000000
  -V(xc)+E(xc)   XCENC  =       -34.37643213
  PAW double counting   =      1193.78262552    -1080.73714043
  entropy T*S    EENTRO =        -0.00000000
  eigenvalues    EBANDS =      -111.86012439
  atomic energy  EATOM  =      1448.48460880
  Solvation  Ediel_sol  =         0.00000000
  ---------------------------------------------------
  free energy    TOTEN  =       -25.01650504 eV

  energy without entropy =      -25.01650504  energy(sigma->0) =      -25.01650504


--------------------------------------------------------------------------------------------------------




--------------------------------------- Iteration      1(   3)  ---------------------------------------


     EDDAV:  cpu time      0.3056: real time      0.3086
       DOS:  cpu time      0.0005: real time      0.0005
    --------------------------------------------
      LOOP:  cpu time      0.3062: real time      0.3091

 eigenvalue-minimisations  :  3232
 total energy-change (2. order) :-0.9000391E+01  (-0.8982795E+01)
 number of electron      40.0000000 magnetization 
 augmentation part       40.0000000 magnetization 

 Free energy of the ion-electron system (eV)
  ---------------------------------------------------
  alpha Z        PSCENC =        81.32311116
  Ewald energy   TEWEN  =     -1382.47372273
  -Hartree energ DENC   =      -139.15943084
  -exchange      EXHF   =         0.00000000
  -V(xc)+E(xc)   XCENC  =       -34.37643213
  PAW double counting   =      1193.78262552    -1080.73714043
  entropy T*S    EENTRO =        -0.00000000
  eigenvalues    EBANDS =      -120.86051564
  atomic energy  EATOM  =      1448.48460880
  Solvation  Ediel_sol  =         0.00000000
  ---------------------------------------------------
  free energy    TOTEN  =       -34.01689629 eV

  energy without entropy =      -34.01689629  energy(sigma->0) =      -34.01689629


--------------------------------------------------------------------------------------------------------




--------------------------------------- Iteration      1(   4)  ---------------------------------------


     EDDAV:  cpu time      0.2921: real time      0.2951
       DOS:  cpu time      0.0005: real time      0.0005
    --------------------------------------------
      LOOP:  cpu time      0.2926: real time      0.2956

 eigenvalue-minimisations  :  3136
 total energy-change (2. order) :-0.6266518E-01  (-0.6265852E-01)
 number of electron      40.0000000 magnetization 
 augmentation part       40.0000000 magnetization 

 Free energy of the ion-electron system (eV)
  ---------------------------------------------------
  alpha Z        PSCENC =        81.32311116
  Ewald energy   TEWEN  =     -1382.47372273
  -Hartree energ DENC   =      -139.15943084
  -exchange      EXHF   =         0.00000000
  -V(xc)+E(xc)   XCENC  =       -34.37643213
  PAW double counting   =      1193.78262552    -1080.73714043
  entropy T*S    EENTRO =        -0.00000000
  eigenvalues    EBANDS =      -120.92318082
  atomic energy  EATOM  =      1448.48460880
  Solvation  Ediel_sol  =         0.00000000
  ---------------------------------------------------
  free energy    TOTEN  =       -34.07956147 eV

  energy without entropy =      -34.07956147  energy(sigma->0) =      -34.07956147


--------------------------------------------------------------------------------------------------------




--------------------------------------- Iteration      1(   5)  ---------------------------------------


     EDDAV:  cpu time      0.3129: real time      0.3162
       DOS:  cpu time      0.0006: real time      0.0005
    CHARGE:  cpu time      0.0046: real time      0.0046
    MIXING:  cpu time      0.0008: real time      0.0008
    --------------------------------------------
      LOOP:  cpu time      0.3188: real time      0.3221

 eigenvalue-minimisations  :  3296
 total energy-change (2. order) :-0.3966725E-03  (-0.3966568E-03)
 number of electron      39.9999991 magnetization 
 augmentation part       -7.4140959 magnetization 

 Broyden mixing:
  rms(total) = 0.61217E+00    rms(broyden)= 0.61216E+00
  rms(prec ) = 0.71986E+00
  weight for this iteration     100.00

 Free energy of the ion-electron system (eV)
  ---------------------------------------------------
  alpha Z        PSCENC =        81.32311116
  Ewald energy   TEWEN  =     -1382.47372273
  -Hartree energ DENC   =      -139.15943084
  -exchange      EXHF   =         0.00000000
  -V(xc)+E(xc)   XCENC  =       -34.37643213
  PAW double counting   =      1193.78262552    -1080.73714043
  entropy T*S    EENTRO =        -0.00000000
  eigenvalues    EBANDS =      -120.92357749
  atomic energy  EATOM  =      1448.48460880
  Solvation  Ediel_sol  =         0.00000000
  ---------------------------------------------------
  free energy    TOTEN  =       -34.07995814 eV

  energy without entropy =      -34.07995814  energy(sigma->0) =      -34.07995814


--------------------------------------------------------------------------------------------------------




--------------------------------------- Iteration      1(   6)  ---------------------------------------


    POTLOK:  cpu time      0.0053: real time      0.0055
    SETDIJ:  cpu time      0.1381: real time      0.1387
     EDDAV:  cpu time      0.3055: real time      0.3081
       DOS:  cpu time      0.0006: real time      0.0006
    CHARGE:  cpu time      0.0051: real time      0.0051
    MIXING:  cpu time      0.0005: real time      0.0005
    --------------------------------------------
      LOOP:  cpu time      0.4551: real time      0.4585

 eigenvalue-minimisations  :  2944
 total energy-change (2. order) : 0.5084140E+00  (-0.1087906E+00)
 number of electron      39.9999992 magnetization 
 augmentation part       -7.3478855 magnetization 

 Broyden mixing:
  rms(total) = 0.37927E+00    rms(broyden)= 0.37926E+00
  rms(prec ) = 0.40266E+00
  weight for this iteration     100.00

 eigenvalues of (default mixing * dielectric matrix)
  average eigenvalue GAMMA=   1.9607
  1.9607

 Free energy of the ion-electron system (eV)
  ---------------------------------------------------
  alpha Z        PSCENC =        81.32311116
  Ewald energy   TEWEN  =     -1382.47372273
  -Hartree energ DENC   =      -145.75226382
  -exchange      EXHF   =         0.00000000
  -V(xc)+E(xc)   XCENC  =       -33.74843529
  PAW double counting   =      1429.34580574    -1316.58524638
  entropy T*S    EENTRO =        -0.00000000
  eigenvalues    EBANDS =      -114.16540163
  atomic energy  EATOM  =      1448.48460880
  Solvation  Ediel_sol  =         0.00000000
  ---------------------------------------------------
  free energy    TOTEN  =       -33.57154415 eV

  energy without entropy =      -33.57154415  energy(sigma->0) =      -33.57154415


--------------------------------------------------------------------------------------------------------




--------------------------------------- Iteration      1(   7)  ---------------------------------------


    POTLOK:  cpu time      0.0059: real time      0.0061
    SETDIJ:  cpu time      0.1377: real time      0.1384
     EDDAV:  cpu time      0.2992: real time      0.3023
       DOS:  cpu time      0.0006: real time      0.0006
    CHARGE:  cpu time      0.0043: real time      0.0044
    MIXING:  cpu time      0.0005: real time      0.0005
    --------------------------------------------
      LOOP:  cpu time      0.4483: real time      0.4523

 eigenvalue-minimisations  :  3184
 total energy-change (2. order) : 0.8526105E-02  (-0.2632402E-01)
 number of electron      39.9999992 magnetization 
 augmentation part       -7.3407492 magnetization 

 Broyden mixing:
  rms(total) = 0.15024E+00    rms(broyden)= 0.15023E+00
  rms(prec ) = 0.15983E+00
  weight for this iteration     100.00

 eigenvalues of (default mixing * dielectric matrix)
  average eigenvalue GAMMA=   1.7783
  1.1868  2.3697

 Free energy of the ion-electron system (eV)
  ---------------------------------------------------
  alpha Z        PSCENC =        81.32311116
  Ewald energy   TEWEN  =     -1382.47372273
  -Hartree energ DENC   =      -147.87748006
  -exchange      EXHF   =         0.00000000
  -V(xc)+E(xc)   XCENC  =       -33.36376582
  PAW double counting   =      1682.68549578    -1570.08626290
  entropy T*S    EENTRO =        -0.00000000
  eigenvalues    EBANDS =      -112.25500229
  atomic energy  EATOM  =      1448.48460880
  Solvation  Ediel_sol  =         0.00000000
  ---------------------------------------------------
  free energy    TOTEN  =       -33.56301804 eV

  energy without entropy =      -33.56301804  energy(sigma->0) =      -33.56301804


--------------------------------------------------------------------------------------------------------




--------------------------------------- Iteration      1(   8)  ---------------------------------------


    POTLOK:  cpu time      0.0090: real time      0.0092
    SETDIJ:  cpu time      0.1343: real time      0.1349
     EDDAV:  cpu time      0.2758: real time      0.2783
       DOS:  cpu time      0.0006: real time      0.0006
    CHARGE:  cpu time      0.0043: real time      0.0043
    MIXING:  cpu time      0.0005: real time      0.0005
    --------------------------------------------
      LOOP:  cpu time      0.4244: real time      0.4278

 eigenvalue-minimisations  :  2960
 total energy-change (2. order) : 0.6406475E-03  (-0.2663460E-02)
 number of electron      39.9999992 magnetization 
 augmentation part       -7.3522359 magnetization 

 Broyden mixing:
  rms(total) = 0.17643E-01    rms(broyden)= 0.17642E-01
  rms(prec ) = 0.23126E-01
  weight for this iteration     100.00

 eigenvalues of (default mixing * dielectric matrix)
  average eigenvalue GAMMA=   1.6345
  2.4575  1.2230  1.2230

 Free energy of the ion-electron system (eV)
  ---------------------------------------------------
  alpha Z        PSCENC =        81.32311116
  Ewald energy   TEWEN  =     -1382.47372273
  -Hartree energ DENC   =      -147.93794347
  -exchange      EXHF   =         0.00000000
  -V(xc)+E(xc)   XCENC  =       -33.20956127
  PAW double counting   =      1833.87771858    -1721.33359823
  entropy T*S    EENTRO =        -0.00000000
  eigenvalues    EBANDS =      -112.29299024
  atomic energy  EATOM  =      1448.48460880
  Solvation  Ediel_sol  =         0.00000000
  ---------------------------------------------------
  free energy    TOTEN  =       -33.56237740 eV

  energy without entropy =      -33.56237740  energy(sigma->0) =      -33.56237740


--------------------------------------------------------------------------------------------------------




--------------------------------------- Iteration      1(   9)  ---------------------------------------


    POTLOK:  cpu time      0.0052: real time      0.0054
    SETDIJ:  cpu time      0.1378: real time      0.1384
     EDDAV:  cpu time      0.2855: real time      0.2885
       DOS:  cpu time      0.0006: real time      0.0006
    CHARGE:  cpu time      0.0042: real time      0.0043
    MIXING:  cpu time      0.0005: real time      0.0005
    --------------------------------------------
      LOOP:  cpu time      0.4338: real time      0.4377

 eigenvalue-minimisations  :  3056
 total energy-change (2. order) : 0.1229697E-04  (-0.4369423E-03)
 number of electron      39.9999992 magnetization 
 augmentation part       -7.3492449 magnetization 

 Broyden mixing:
  rms(total) = 0.70133E-02    rms(broyden)= 0.70133E-02
  rms(prec ) = 0.81595E-02
  weight for this iteration     100.00

 eigenvalues of (default mixing * dielectric matrix)
  average eigenvalue GAMMA=   1.7742
  2.4045  2.4045  1.1438  1.1438

 Free energy of the ion-electron system (eV)
  ---------------------------------------------------
  alpha Z        PSCENC =        81.32311116
  Ewald energy   TEWEN  =     -1382.47372273
  -Hartree energ DENC   =      -148.38243408
  -exchange      EXHF   =         0.00000000
  -V(xc)+E(xc)   XCENC  =       -33.16890879
  PAW double counting   =      1844.29472162    -1731.76020490
  entropy T*S    EENTRO =        -0.00000000
  eigenvalues    EBANDS =      -111.87953619
  atomic energy  EATOM  =      1448.48460880
  Solvation  Ediel_sol  =         0.00000000
  ---------------------------------------------------
  free energy    TOTEN  =       -33.56236510 eV

  energy without entropy =      -33.56236510  energy(sigma->0) =      -33.56236510


--------------------------------------------------------------------------------------------------------




--------------------------------------- Iteration      1(  10)  ---------------------------------------


    POTLOK:  cpu time      0.0051: real time      0.0053
    SETDIJ:  cpu time      0.1381: real time      0.1386
     EDDAV:  cpu time      0.2436: real time      0.2446
       DOS:  cpu time      0.0003: real time      0.0003
    CHARGE:  cpu time      0.0035: real time      0.0035
    MIXING:  cpu time      0.0003: real time      0.0003
    --------------------------------------------
      LOOP:  cpu time      0.3908: real time      0.3926

 eigenvalue-minimisations  :  3008
 total energy-change (2. order) :-0.1073182E-03  (-0.4473767E-04)
 number of electron      39.9999992 magnetization 
 augmentation part       -7.3491374 magnetization 

 Broyden mixing:
  rms(total) = 0.23887E-02    rms(broyden)= 0.23887E-02
  rms(prec ) = 0.28943E-02
  weight for this iteration     100.00

 eigenvalues of (default mixing * dielectric matrix)
  average eigenvalue GAMMA=   1.7386
  2.7520  2.5656  1.1678  1.1678  1.0400

 Free energy of the ion-electron system (eV)
  ---------------------------------------------------
  alpha Z        PSCENC =        81.32311116
  Ewald energy   TEWEN  =     -1382.47372273
  -Hartree energ DENC   =      -148.42706860
  -exchange      EXHF   =         0.00000000
  -V(xc)+E(xc)   XCENC  =       -33.16524292
  PAW double counting   =      1838.31673587    -1725.77776146
  entropy T*S    EENTRO =        -0.00000000
  eigenvalues    EBANDS =      -111.84313255
  atomic energy  EATOM  =      1448.48460880
  Solvation  Ediel_sol  =         0.00000000
  ---------------------------------------------------
  free energy    TOTEN  =       -33.56247242 eV

  energy without entropy =      -33.56247242  energy(sigma->0) =      -33.56247242


--------------------------------------------------------------------------------------------------------




--------------------------------------- Iteration      1(  11)  ---------------------------------------


    POTLOK:  cpu time      0.0036: real time      0.0038
    SETDIJ:  cpu time      0.1375: real time      0.1378
     EDDAV:  cpu time      0.1816: real time      0.1826
       DOS:  cpu time      0.0003: real time      0.0003
    CHARGE:  cpu time      0.0035: real time      0.0035
    MIXING:  cpu time      0.0003: real time      0.0003
    --------------------------------------------
      LOOP:  cpu time      0.3269: real time      0.3282

 eigenvalue-minimisations  :  2880
 total energy-change (2. order) :-0.1974263E-04  (-0.3864094E-05)
 number of electron      39.9999992 magnetization 
 augmentation part       -7.3494173 magnetization 

 Broyden mixing:
  rms(total) = 0.13196E-02    rms(broyden)= 0.13196E-02
  rms(prec ) = 0.15159E-02
  weight for this iteration     100.00

 eigenvalues of (default mixing * dielectric matrix)
  average eigenvalue GAMMA=   1.7591
  2.7319  2.7319  1.7996  1.1106  1.1106  1.0702

 Free energy of the ion-electron system (eV)
  ---------------------------------------------------
  alpha Z        PSCENC =        81.32311116
  Ewald energy   TEWEN  =     -1382.47372273
  -Hartree energ DENC   =      -148.44632008
  -exchange      EXHF   =         0.00000000
  -V(xc)+E(xc)   XCENC  =       -33.16058267
  PAW double counting   =      1839.41865470    -1726.87974000
  entropy T*S    EENTRO =        -0.00000000
  eigenvalues    EBANDS =      -111.82850134
  atomic energy  EATOM  =      1448.48460880
  Solvation  Ediel_sol  =         0.00000000
  ---------------------------------------------------
  free energy    TOTEN  =       -33.56249216 eV

  energy without entropy =      -33.56249216  energy(sigma->0) =      -33.56249216


--------------------------------------------------------------------------------------------------------




--------------------------------------- Iteration      1(  12)  ---------------------------------------


    POTLOK:  cpu time      0.0035: real time      0.0036
    SETDIJ:  cpu time      0.1237: real time      0.1240
     EDDAV:  cpu time      0.1966: real time      0.1977
       DOS:  cpu time      0.0003: real time      0.0003
    --------------------------------------------
      LOOP:  cpu time      0.3242: real time      0.3257

 eigenvalue-minimisations  :  3120
 total energy-change (2. order) : 0.3538240E-06  (-0.7925126E-06)
 number of electron      39.9999992 magnetization 
 augmentation part       -7.3494173 magnetization 

 Free energy of the ion-electron system (eV)
  ---------------------------------------------------
  alpha Z        PSCENC =        81.32311116
  Ewald energy   TEWEN  =     -1382.47372273
  -Hartree energ DENC   =      -148.45815072
  -exchange      EXHF   =         0.00000000
  -V(xc)+E(xc)   XCENC  =       -33.15942018
  PAW double counting   =      1838.52898364    -1725.98962923
  entropy T*S    EENTRO =        -0.00000000
  eigenvalues    EBANDS =      -111.81827256
  atomic energy  EATOM  =      1448.48460880
  Solvation  Ediel_sol  =         0.00000000
  ---------------------------------------------------
  free energy    TOTEN  =       -33.56249181 eV

  energy without entropy =      -33.56249181  energy(sigma->0) =      -33.56249181


--------------------------------------------------------------------------------------------------------




 average (electrostatic) potential at core
  the test charge radii are     1.1631  1.0808
  (the norm of the test charge is              1.0000)
       1 -34.1675       2 -34.1675       3 -34.1675       4 -34.1675       5 -55.4636
       6 -55.4636       7 -55.4636       8 -55.4636
 
 
 
 E-fermi :   2.6155     XC(G=0):  -8.9853     alpha+bet : -8.1016

 Fermi energy:         2.6154565497

 k-point     1 :       0.0000    0.0000    0.0000
  band No.  band energies     occupation 
      1     -11.1657      2.00000
      2     -10.8881      2.00000
      3      -9.9309      2.00000
      4      -9.5433      2.00000
      5      -5.2301      2.00000
      6      -4.7263      2.00000
      7      -3.1515      2.00000
      8      -3.1491      2.00000
      9      -2.0639      2.00000
     10      -0.9672      2.00000
     11      -0.5876      2.00000
     12      -0.2961      2.00000
     13      -0.2637      2.00000
     14      -0.1495      2.00000
     15       0.3643      2.00000
     16       0.9652      2.00000
     17       1.4990      2.00000
     18       1.9093      2.00000
     19       2.1036      2.00000
     20       2.1156      2.00000
     21       3.8108      0.00000
     22       4.7498      0.00000
     23       4.7863      0.00000
     24       5.1044      0.00000
     25       5.2831      0.00000
     26       5.8582      0.00000
     27       6.2696      0.00000
     28       6.3859      0.00000
     29       7.2867      0.00000
     30       7.3851      0.00000
     31       8.1397      0.00000
     32       8.1524      0.00000

 k-point     2 :       0.1667    0.0000    0.0000
  band No.  band energies     occupation 
      1     -11.0517      2.00000
      2     -10.7817      2.00000
      3      -9.9447      2.00000
      4      -9.5935      2.00000
      5      -5.4120      2.00000
      6      -4.7682      2.00000
      7      -3.7128      2.00000
      8      -3.3965      2.00000
      9      -1.8628      2.00000
     10      -0.8119      2.00000
     11      -0.4440      2.00000
     12      -0.2376      2.00000
     13       0.0925      2.00000
     14       0.1266      2.00000
     15       0.4205      2.00000
     16       0.9589      2.00000
     17       1.5752      2.00000
     18       1.7927      2.00000
     19       2.0502      2.00000
     20       2.1252      2.00000
     21       3.8988      0.00000
     22       4.2283      0.00000
     23       4.7263      0.00000
     24       4.7708      0.00000
     25       5.2876      0.00000
     26       5.3149      0.00000
     27       5.9312      0.00000
     28       6.5824      0.00000
     29       6.6371      0.00000
     30       7.3281      0.00000
     31       7.4965      0.00000
     32       7.8468      0.00000

 k-point     3 :       0.3333    0.0000    0.0000
  band No.  band energies     occupation 
      1     -10.7429      2.00000
      2     -10.4924      2.00000
      3     -10.0547      2.00000
      4      -9.7795      2.00000
      5      -5.5973      2.00000
      6      -4.7935      2.00000
      7      -4.6415      2.00000
      8      -4.0009      2.00000
      9      -1.3447      2.00000
     10      -0.3835      2.00000
     11      -0.0945      2.00000
     12      -0.0553      2.00000
     13       0.4564      2.00000
     14       0.5763      2.00000
     15       0.7446      2.00000
     16       0.8195      2.00000
     17       1.3159      2.00000
     18       1.7615      2.00000
     19       1.7914      2.00000
     20       2.3755      2.00000
     21       3.3644      0.00000
     22       3.8771      0.00000
     23       4.2609      0.00000
     24       4.4275      0.00000
     25       4.5642      0.00000
     26       5.1128      0.00000
     27       5.3445      0.00000
     28       5.4102      0.00000
     29       6.3410      0.00000
     30       6.4269      0.00000
     31       7.3937      0.00000
     32       8.1371      0.00000

 k-point     4 :       0.5000    0.0000    0.0000
  band No.  band energies     occupation 
      1     -10.3506      2.00000
      2     -10.3506      2.00000
      3     -10.1130      2.00000
      4     -10.1130      2.00000
      5      -5.3557      2.00000
      6      -5.3557      2.00000
      7      -4.5471      2.00000
      8      -4.5471      2.00000
      9      -0.6207      2.00000
     10      -0.6207      2.00000
     11       0.1603      2.00000
     12       0.1603      2.00000
     13       0.4333      2.00000
     14       0.4333      2.00000
     15       1.2604      2.00000
     16       1.2604      2.00000
     17       1.2796      2.00000
     18       1.2796      2.00000
     19       1.8291      2.00000
     20       1.8291      2.00000
     21       3.5305      0.00000
     22       3.5305      0.00000
     23       4.2310      0.00000
     24       4.2310      0.00000
     25       4.5827      0.00000
     26       4.5827      0.00000
     27       5.3211      0.00000
     28       5.3211      0.00000
     29       5.4829      0.00000
     30       5.4829      0.00000
     31       8.0820      0.00000
     32       8.0820      0.00000

 k-point     5 :       0.0000    0.1667    0.0000
  band No.  band energies     occupation 
      1     -11.0212      2.00000
      2     -10.7587      2.00000
      3      -9.8804      2.00000
      4      -9.5549      2.00000
      5      -5.4527      2.00000
      6      -4.9947      2.00000
      7      -3.7660      2.00000
      8      -3.5449      2.00000
      9      -1.8916      2.00000
     10      -0.8485      2.00000
     11      -0.5353      2.00000
     12      -0.1337      2.00000
     13      -0.1008      2.00000
     14       0.0231      2.00000
     15       0.7278      2.00000
     16       0.9140      2.00000
     17       1.5740      2.00000
     18       1.9267      2.00000
     19       2.0499      2.00000
     20       2.0643      2.00000
     21       3.9602      0.00000
     22       4.8380      0.00000
     23       5.0247      0.00000
     24       5.2233      0.00000
     25       5.2471      0.00000
     26       5.5461      0.00000
     27       5.7083      0.00000
     28       6.1857      0.00000
     29       6.7415      0.00000
     30       7.0559      0.00000
     31       7.4775      0.00000
     32       7.9383      0.00000

 k-point     6 :       0.1667    0.1667    0.0000
  band No.  band energies     occupation 
      1     -10.9131      2.00000
      2     -10.6588      2.00000
      3      -9.8935      2.00000
      4      -9.5962      2.00000
      5      -5.5286      2.00000
      6      -4.9505      2.00000
      7      -3.9743      2.00000
      8      -3.7965      2.00000
      9      -1.7223      2.00000
     10      -1.2549      2.00000
     11      -0.9676      2.00000
     12      -0.1435      2.00000
     13       0.3551      2.00000
     14       0.4994      2.00000
     15       0.6246      2.00000
     16       0.8274      2.00000
     17       1.7310      2.00000
     18       1.8356      2.00000
     19       1.9316      2.00000
     20       2.0903      2.00000
     21       4.0070      0.00000
     22       4.2612      0.00000
     23       4.6136      0.00000
     24       4.6359      0.00000
     25       5.3509      0.00000
     26       5.5618      0.00000
     27       6.1486      0.00000
     28       6.3625      0.00000
     29       6.8247      0.00000
     30       7.0698      0.00000
     31       7.1525      0.00000
     32       7.9058      0.00000

 k-point     7 :      -0.1667    0.1667    0.0000
  band No.  band energies     occupation 
      1     -10.9131      2.00000
      2     -10.6588      2.00000
      3      -9.8935      2.00000
      4      -9.5962      2.00000
      5      -5.5286      2.00000
      6      -4.9505      2.00000
      7      -3.9743      2.00000
      8      -3.7965      2.00000
      9      -1.7223      2.00000
     10      -1.2549      2.00000
     11      -0.9676      2.00000
     12      -0.1435      2.00000
     13       0.3551      2.00000
     14       0.4994      2.00000
     15       0.6246      2.00000
     16       0.8274      2.00000
     17       1.7310      2.00000
     18       1.8356      2.00000
     19       1.9316      2.00000
     20       2.0903      2.00000
     21       4.0070      0.00000
     22       4.2612      0.00000
     23       4.6136      0.00000
     24       4.6359      0.00000
     25       5.3509      0.00000
     26       5.5618      0.00000
     27       6.1486      0.00000
     28       6.3625      0.00000
     29       6.8247      0.00000
     30       7.0698      0.00000
     31       7.1525      0.00000
     32       7.9058      0.00000

 k-point     8 :       0.3333    0.1667    0.0000
  band No.  band energies     occupation 
      1     -10.6229      2.00000
      2     -10.3902      2.00000
      3      -9.9932      2.00000
      4      -9.7533      2.00000
      5      -5.5733      2.00000
      6      -4.8363      2.00000
      7      -4.6643      2.00000
      8      -4.1735      2.00000
      9      -1.3794      2.00000
     10      -1.2545      2.00000
     11      -1.0637      2.00000
     12      -0.3140      2.00000
     13      -0.1055      2.00000
     14       0.4459      2.00000
     15       0.7652      2.00000
     16       1.1573      2.00000
     17       1.5344      2.00000
     18       1.8589      2.00000
     19       1.8855      2.00000
     20       1.9875      2.00000
     21       3.7529      0.00000
     22       4.1263      0.00000
     23       4.2955      0.00000
     24       4.4489      0.00000
     25       4.9796      0.00000
     26       5.7481      0.00000
     27       5.7980      0.00000
     28       6.5539      0.00000
     29       6.6216      0.00000
     30       7.1130      0.00000
     31       7.2779      0.00000
     32       7.8389      0.00000

 k-point     9 :      -0.3333    0.1667    0.0000
  band No.  band energies     occupation 
      1     -10.6229      2.00000
      2     -10.3902      2.00000
      3      -9.9932      2.00000
      4      -9.7533      2.00000
      5      -5.5733      2.00000
      6      -4.8363      2.00000
      7      -4.6643      2.00000
      8      -4.1735      2.00000
      9      -1.3794      2.00000
     10      -1.2545      2.00000
     11      -1.0637      2.00000
     12      -0.3140      2.00000
     13      -0.1055      2.00000
     14       0.4459      2.00000
     15       0.7652      2.00000
     16       1.1573      2.00000
     17       1.5344      2.00000
     18       1.8589      2.00000
     19       1.8855      2.00000
     20       1.9875      2.00000
     21       3.7529      0.00000
     22       4.1263      0.00000
     23       4.2955      0.00000
     24       4.4489      0.00000
     25       4.9796      0.00000
     26       5.7481      0.00000
     27       5.7980      0.00000
     28       6.5539      0.00000
     29       6.6216      0.00000
     30       7.1130      0.00000
     31       7.2779      0.00000
     32       7.8389      0.00000

 k-point    10 :       0.5000    0.1667    0.0000
  band No.  band energies     occupation 
      1     -10.2610      2.00000
      2     -10.2610      2.00000
      3     -10.0457      2.00000
      4     -10.0457      2.00000
      5      -5.2977      2.00000
      6      -5.2977      2.00000
      7      -4.5774      2.00000
      8      -4.5774      2.00000
      9      -1.0300      2.00000
     10      -1.0300      2.00000
     11      -0.7065      2.00000
     12      -0.7065      2.00000
     13      -0.2752      2.00000
     14      -0.2752      2.00000
     15       0.9865      2.00000
     16       0.9865      2.00000
     17       1.6268      2.00000
     18       1.6268      2.00000
     19       2.0708      2.00000
     20       2.0708      2.00000
     21       3.8432      0.00000
     22       3.8432      0.00000
     23       4.2021      0.00000
     24       4.2021      0.00000
     25       5.5069      0.00000
     26       5.5069      0.00000
     27       6.0560      0.00000
     28       6.0560      0.00000
     29       6.5300      0.00000
     30       6.5300      0.00000
     31       7.7669      0.00000
     32       7.7669      0.00000

 k-point    11 :       0.0000    0.3333    0.0000
  band No.  band energies     occupation 
      1     -10.6238      2.00000
      2     -10.4165      2.00000
      3      -9.8371      2.00000
      4      -9.6972      2.00000
      5      -5.7916      2.00000
      6      -5.3297      2.00000
      7      -4.8559      2.00000
      8      -4.3972      2.00000
      9      -1.4034      2.00000
     10      -0.5531      2.00000
     11      -0.2150      2.00000
     12       0.1820      2.00000
     13       0.2634      2.00000
     14       0.4180      2.00000
     15       0.8863      2.00000
     16       1.1216      2.00000
     17       1.5389      2.00000
     18       1.6181      2.00000
     19       1.8459      2.00000
     20       2.0903      2.00000
     21       3.8368      0.00000
     22       4.1837      0.00000
     23       4.5749      0.00000
     24       4.8049      0.00000
     25       5.0960      0.00000
     26       5.1546      0.00000
     27       5.3244      0.00000
     28       5.9510      0.00000
     29       6.4445      0.00000
     30       6.6289      0.00000
     31       6.8686      0.00000
     32       7.8230      0.00000

 k-point    12 :       0.1667    0.3333    0.0000
  band No.  band energies     occupation 
      1     -10.5361      2.00000
      2     -10.3390      2.00000
      3      -9.8385      2.00000
      4      -9.7039      2.00000
      5      -5.7158      2.00000
      6      -5.2298      2.00000
      7      -4.8213      2.00000
      8      -4.4754      2.00000
      9      -1.3022      2.00000
     10      -1.2715      2.00000
     11      -0.9895      2.00000
     12      -0.2160      2.00000
     13       0.3695      2.00000
     14       0.5051      2.00000
     15       0.5891      2.00000
     16       0.9415      2.00000
     17       1.1699      2.00000
     18       1.7073      2.00000
     19       1.7855      2.00000
     20       1.9719      2.00000
     21       3.8163      0.00000
     22       4.4056      0.00000
     23       4.7022      0.00000
     24       4.9882      0.00000
     25       5.4523      0.00000
     26       5.6864      0.00000
     27       5.9493      0.00000
     28       6.7196      0.00000
     29       6.7432      0.00000
     30       6.8625      0.00000
     31       7.4545      0.00000
     32       7.5366      0.00000

 k-point    13 :      -0.1667    0.3333    0.0000
  band No.  band energies     occupation 
      1     -10.5361      2.00000
      2     -10.3390      2.00000
      3      -9.8385      2.00000
      4      -9.7039      2.00000
      5      -5.7158      2.00000
      6      -5.2298      2.00000
      7      -4.8213      2.00000
      8      -4.4754      2.00000
      9      -1.3022      2.00000
     10      -1.2715      2.00000
     11      -0.9895      2.00000
     12      -0.2160      2.00000
     13       0.3695      2.00000
     14       0.5051      2.00000
     15       0.5891      2.00000
     16       0.9415      2.00000
     17       1.1699      2.00000
     18       1.7073      2.00000
     19       1.7855      2.00000
     20       1.9719      2.00000
     21       3.8163      0.00000
     22       4.4056      0.00000
     23       4.7022      0.00000
     24       4.9882      0.00000
     25       5.4523      0.00000
     26       5.6864      0.00000
     27       5.9493      0.00000
     28       6.7196      0.00000
     29       6.7432      0.00000
     30       6.8625      0.00000
     31       7.4545      0.00000
     32       7.5366      0.00000

 k-point    14 :       0.3333    0.3333    0.0000
  band No.  band energies     occupation 
      1     -10.3098      2.00000
      2     -10.1407      2.00000
      3      -9.8861      2.00000
      4      -9.7590      2.00000
      5      -5.5097      2.00000
      6      -4.9883      2.00000
      7      -4.8635      2.00000
      8      -4.6518      2.00000
      9      -1.8900      2.00000
     10      -1.5239      2.00000
     11      -1.2222      2.00000
     12      -0.9373      2.00000
     13      -0.4314      2.00000
     14      -0.0034      2.00000
     15       0.1218      2.00000
     16       0.6694      2.00000
     17       0.7847      2.00000
     18       1.4392      2.00000
     19       1.6335      2.00000
     20       1.8435      2.00000
     21       4.0129      0.00000
     22       5.0627      0.00000
     23       5.8798      0.00000
     24       5.8975      0.00000
     25       5.9884      0.00000
     26       6.3207      0.00000
     27       6.5347      0.00000
     28       6.8875      0.00000
     29       7.1556      0.00000
     30       7.5043      0.00000
     31       7.7483      0.00000
     32       8.1731      0.00000

 k-point    15 :      -0.3333    0.3333    0.0000
  band No.  band energies     occupation 
      1     -10.3098      2.00000
      2     -10.1407      2.00000
      3      -9.8861      2.00000
      4      -9.7590      2.00000
      5      -5.5097      2.00000
      6      -4.9883      2.00000
      7      -4.8635      2.00000
      8      -4.6518      2.00000
      9      -1.8900      2.00000
     10      -1.5239      2.00000
     11      -1.2222      2.00000
     12      -0.9373      2.00000
     13      -0.4314      2.00000
     14      -0.0034      2.00000
     15       0.1218      2.00000
     16       0.6694      2.00000
     17       0.7847      2.00000
     18       1.4392      2.00000
     19       1.6335      2.00000
     20       1.8435      2.00000
     21       4.0129      0.00000
     22       5.0627      0.00000
     23       5.8798      0.00000
     24       5.8975      0.00000
     25       5.9884      0.00000
     26       6.3207      0.00000
     27       6.5347      0.00000
     28       6.8875      0.00000
     29       7.1556      0.00000
     30       7.5043      0.00000
     31       7.7483      0.00000
     32       8.1731      0.00000

 k-point    16 :       0.5000    0.3333    0.0000
  band No.  band energies     occupation 
      1     -10.0517      2.00000
      2     -10.0517      2.00000
      3      -9.9138      2.00000
      4      -9.9138      2.00000
      5      -5.1962      2.00000
      6      -5.1962      2.00000
      7      -4.7638      2.00000
      8      -4.7638      2.00000
      9      -1.8266      2.00000
     10      -1.8266      2.00000
     11      -1.3422      2.00000
     12      -1.3422      2.00000
     13      -0.5127      2.00000
     14      -0.5127      2.00000
     15       0.2753      2.00000
     16       0.2753      2.00000
     17       0.8764      2.00000
     18       0.8764      2.00000
     19       1.6339      2.00000
     20       1.6339      2.00000
     21       4.9682      0.00000
     22       4.9682      0.00000
     23       5.9921      0.00000
     24       5.9921      0.00000
     25       6.5391      0.00000
     26       6.5391      0.00000
     27       7.0472      0.00000
     28       7.0472      0.00000
     29       7.6085      0.00000
     30       7.6085      0.00000
     31       7.9217      0.00000
     32       7.9217      0.00000

 k-point    17 :       0.0000    0.5000    0.0000
  band No.  band energies     occupation 
      1     -10.1027      2.00000
      2     -10.1027      2.00000
      3     -10.0253      2.00000
      4     -10.0253      2.00000
      5      -5.6465      2.00000
      6      -5.6465      2.00000
      7      -5.1292      2.00000
      8      -5.1292      2.00000
      9      -0.7542      2.00000
     10      -0.7542      2.00000
     11       0.2419      2.00000
     12       0.2419      2.00000
     13       0.5536      2.00000
     14       0.5536      2.00000
     15       1.0343      2.00000
     16       1.0343      2.00000
     17       1.5639      2.00000
     18       1.5639      2.00000
     19       1.6484      2.00000
     20       1.6484      2.00000
     21       3.9788      0.00000
     22       3.9788      0.00000
     23       4.3836      0.00000
     24       4.3836      0.00000
     25       4.8723      0.00000
     26       4.8723      0.00000
     27       5.2901      0.00000
     28       5.2901      0.00000
     29       6.0832      0.00000
     30       6.0832      0.00000
     31       7.4041      0.00000
     32       7.4041      0.00000

 k-point    18 :       0.1667    0.5000    0.0000
  band No.  band energies     occupation 
      1     -10.0562      2.00000
      2     -10.0562      2.00000
      3      -9.9881      2.00000
      4      -9.9881      2.00000
      5      -5.5382      2.00000
      6      -5.5382      2.00000
      7      -5.0827      2.00000
      8      -5.0827      2.00000
      9      -0.9383      2.00000
     10      -0.9383      2.00000
     11      -0.4709      2.00000
     12      -0.4709      2.00000
     13       0.0388      2.00000
     14       0.0388      2.00000
     15       0.5632      2.00000
     16       0.5632      2.00000
     17       1.3479      2.00000
     18       1.3479      2.00000
     19       1.9274      2.00000
     20       1.9274      2.00000
     21       3.9831      0.00000
     22       3.9831      0.00000
     23       4.9647      0.00000
     24       4.9647      0.00000
     25       5.9457      0.00000
     26       5.9457      0.00000
     27       6.0549      0.00000
     28       6.0549      0.00000
     29       6.7349      0.00000
     30       6.7349      0.00000
     31       7.0984      0.00000
     32       7.0984      0.00000

 k-point    19 :       0.3333    0.5000    0.0000
  band No.  band energies     occupation 
      1      -9.9558      2.00000
      2      -9.9558      2.00000
      3      -9.9140      2.00000
      4      -9.9140      2.00000
      5      -5.2801      2.00000
      6      -5.2801      2.00000
      7      -5.0041      2.00000
      8      -5.0041      2.00000
      9      -1.5499      2.00000
     10      -1.5499      2.00000
     11      -1.2905      2.00000
     12      -1.2905      2.00000
     13      -0.4720      2.00000
     14      -0.4720      2.00000
     15       0.0273      2.00000
     16       0.0273      2.00000
     17       0.8601      2.00000
     18       0.8601      2.00000
     19       1.5812      2.00000
     20       1.5812      2.00000
     21       4.9897      0.00000
     22       4.9897      0.00000
     23       6.1990      0.00000
     24       6.1990      0.00000
     25       6.6724      0.00000
     26       6.6724      0.00000
     27       6.9262      0.00000
     28       6.9262      0.00000
     29       7.5657      0.00000
     30       7.5657      0.00000
     31       8.1378      0.00000
     32       8.1378      0.00000

 k-point    20 :       0.5000    0.5000    0.0000
  band No.  band energies     occupation 
      1      -9.8964      2.00000
      2      -9.8964      2.00000
      3      -9.8821      2.00000
      4      -9.8821      2.00000
      5      -5.1014      2.00000
      6      -5.1014      2.00000
      7      -4.9970      2.00000
      8      -4.9970      2.00000
      9      -1.8119      2.00000
     10      -1.8119      2.00000
     11      -1.6663      2.00000
     12      -1.6663      2.00000
     13      -0.6188      2.00000
     14      -0.6188      2.00000
     15      -0.3613      2.00000
     16      -0.3613      2.00000
     17       0.9566      2.00000
     18       0.9566      2.00000
[...]
     32       6.9264      0.00000

 k-point    32 :       0.1667    0.3333    0.5000
  band No.  band energies     occupation 
      1     -10.4501      2.00000
      2     -10.4501      2.00000
      3      -9.7583      2.00000
      4      -9.7583      2.00000
      5      -5.4989      2.00000
      6      -5.4989      2.00000
      7      -4.6526      2.00000
      8      -4.6526      2.00000
      9      -1.1947      2.00000
     10      -1.1947      2.00000
     11      -0.5055      2.00000
     12      -0.5055      2.00000
     13       0.2364      2.00000
     14       0.2364      2.00000
     15       0.7352      2.00000
     16       0.7352      2.00000
     17       1.2776      2.00000
     18       1.2776      2.00000
     19       1.9416      2.00000
     20       1.9416      2.00000
     21       4.5000      0.00000
     22       4.5000      0.00000
     23       4.8885      0.00000
     24       4.8885      0.00000
     25       5.6447      0.00000
     26       5.6447      0.00000
     27       6.0708      0.00000
     28       6.0708      0.00000
     29       6.7188      0.00000
     30       6.7188      0.00000
     31       7.2611      0.00000
     32       7.2611      0.00000

 k-point    33 :      -0.1667    0.3333    0.5000
  band No.  band energies     occupation 
      1     -10.4501      2.00000
      2     -10.4501      2.00000
      3      -9.7583      2.00000
      4      -9.7583      2.00000
      5      -5.4989      2.00000
      6      -5.4989      2.00000
      7      -4.6526      2.00000
      8      -4.6526      2.00000
      9      -1.1947      2.00000
     10      -1.1947      2.00000
     11      -0.5055      2.00000
     12      -0.5055      2.00000
     13       0.2364      2.00000
     14       0.2364      2.00000
     15       0.7352      2.00000
     16       0.7352      2.00000
     17       1.2776      2.00000
     18       1.2776      2.00000
     19       1.9416      2.00000
     20       1.9416      2.00000
     21       4.5000      0.00000
     22       4.5000      0.00000
     23       4.8885      0.00000
     24       4.8885      0.00000
     25       5.6447      0.00000
     26       5.6447      0.00000
     27       6.0708      0.00000
     28       6.0708      0.00000
     29       6.7188      0.00000
     30       6.7188      0.00000
     31       7.2611      0.00000
     32       7.2611      0.00000

 k-point    34 :       0.3333    0.3333    0.5000
  band No.  band energies     occupation 
      1     -10.2392      2.00000
      2     -10.2392      2.00000
      3      -9.8088      2.00000
      4      -9.8088      2.00000
      5      -5.2931      2.00000
      6      -5.2931      2.00000
      7      -4.7307      2.00000
      8      -4.7307      2.00000
      9      -1.7115      2.00000
     10      -1.7115      2.00000
     11      -0.8898      2.00000
     12      -0.8898      2.00000
     13      -0.4218      2.00000
     14      -0.4218      2.00000
     15       0.2520      2.00000
     16       0.2520      2.00000
     17       1.1533      2.00000
     18       1.1533      2.00000
     19       1.8479      2.00000
     20       1.8479      2.00000
     21       4.9647      0.00000
     22       4.9647      0.00000
     23       5.5669      0.00000
     24       5.5669      0.00000
     25       6.0014      0.00000
     26       6.0014      0.00000
     27       6.5023      0.00000
     28       6.5023      0.00000
     29       7.0356      0.00000
     30       7.0356      0.00000
     31       8.0570      0.00000
     32       8.0570      0.00000

 k-point    35 :      -0.3333    0.3333    0.5000
  band No.  band energies     occupation 
      1     -10.2392      2.00000
      2     -10.2392      2.00000
      3      -9.8088      2.00000
      4      -9.8088      2.00000
      5      -5.2931      2.00000
      6      -5.2931      2.00000
      7      -4.7307      2.00000
      8      -4.7307      2.00000
      9      -1.7115      2.00000
     10      -1.7115      2.00000
     11      -0.8898      2.00000
     12      -0.8898      2.00000
     13      -0.4218      2.00000
     14      -0.4218      2.00000
     15       0.2520      2.00000
     16       0.2520      2.00000
     17       1.1533      2.00000
     18       1.1533      2.00000
     19       1.8479      2.00000
     20       1.8479      2.00000
     21       4.9647      0.00000
     22       4.9647      0.00000
     23       5.5669      0.00000
     24       5.5669      0.00000
     25       6.0014      0.00000
     26       6.0014      0.00000
     27       6.5023      0.00000
     28       6.5023      0.00000
     29       7.0356      0.00000
     30       7.0356      0.00000
     31       8.0570      0.00000
     32       8.0570      0.00000

 k-point    36 :       0.5000    0.3333    0.5000
  band No.  band energies     occupation 
      1     -10.0489      2.00000
      2     -10.0489      2.00000
      3      -9.9171      2.00000
      4      -9.9171      2.00000
      5      -5.1551      2.00000
      6      -5.1551      2.00000
      7      -4.8170      2.00000
      8      -4.8170      2.00000
      9      -1.5979      2.00000
     10      -1.5979      2.00000
     11      -1.5656      2.00000
     12      -1.5656      2.00000
     13      -0.2797      2.00000
     14      -0.2797      2.00000
     15      -0.2177      2.00000
     16      -0.2177      2.00000
     17       1.2623      2.00000
     18       1.2623      2.00000
     19       1.5691      2.00000
     20       1.5691      2.00000
     21       5.3987      0.00000
     22       5.3987      0.00000
     23       5.8149      0.00000
     24       5.8149      0.00000
     25       6.1908      0.00000
     26       6.1908      0.00000
     27       6.3021      0.00000
     28       6.3021      0.00000
     29       7.7586      0.00000
     30       7.7586      0.00000
     31       7.9153      0.00000
     32       7.9153      0.00000

 k-point    37 :       0.0000    0.5000    0.5000
  band No.  band energies     occupation 
      1     -10.0649      2.00000
      2     -10.0649      2.00000
      3     -10.0649      2.00000
      4     -10.0649      2.00000
      5      -5.4056      2.00000
      6      -5.4056      2.00000
      7      -5.4056      2.00000
      8      -5.4056      2.00000
      9      -0.1758      2.00000
     10      -0.1758      2.00000
     11      -0.1758      2.00000
     12      -0.1758      2.00000
     13       0.7073      2.00000
     14       0.7073      2.00000
     15       0.7073      2.00000
     16       0.7073      2.00000
     17       1.4979      2.00000
     18       1.4979      2.00000
     19       1.4979      2.00000
     20       1.4979      2.00000
     21       4.4736      0.00000
     22       4.4736      0.00000
     23       4.4736      0.00000
     24       4.4736      0.00000
     25       5.0196      0.00000
     26       5.0196      0.00000
     27       5.0196      0.00000
     28       5.0196      0.00000
     29       6.5369      0.00000
     30       6.5369      0.00000
     31       6.5369      0.00000
     32       6.5369      0.00000

 k-point    38 :       0.1667    0.5000    0.5000
  band No.  band energies     occupation 
      1     -10.0228      2.00000
      2     -10.0228      2.00000
      3     -10.0228      2.00000
      4     -10.0228      2.00000
      5      -5.3244      2.00000
      6      -5.3244      2.00000
      7      -5.3244      2.00000
      8      -5.3244      2.00000
      9      -0.6258      2.00000
     10      -0.6258      2.00000
     11      -0.6258      2.00000
     12      -0.6258      2.00000
     13       0.2373      2.00000
     14       0.2373      2.00000
     15       0.2373      2.00000
     16       0.2373      2.00000
     17       1.5152      2.00000
     18       1.5152      2.00000
     19       1.5152      2.00000
     20       1.5152      2.00000
     21       4.7687      0.00000
     22       4.7687      0.00000
     23       4.7687      0.00000
     24       4.7687      0.00000
     25       5.9642      0.00000
     26       5.9642      0.00000
     27       5.9642      0.00000
     28       5.9642      0.00000
     29       6.6380      0.00000
     30       6.6380      0.00000
     31       6.6380      0.00000
     32       6.6380      0.00000

 k-point    39 :       0.3333    0.5000    0.5000
  band No.  band energies     occupation 
      1      -9.9351      2.00000
      2      -9.9351      2.00000
      3      -9.9351      2.00000
      4      -9.9351      2.00000
      5      -5.1485      2.00000
      6      -5.1485      2.00000
      7      -5.1485      2.00000
      8      -5.1485      2.00000
      9      -1.3338      2.00000
     10      -1.3338      2.00000
     11      -1.3338      2.00000
     12      -1.3338      2.00000
     13      -0.4502      2.00000
     14      -0.4502      2.00000
     15      -0.4502      2.00000
     16      -0.4502      2.00000
     17       1.4043      2.00000
     18       1.4043      2.00000
     19       1.4043      2.00000
     20       1.4043      2.00000
     21       5.5620      0.00000
     22       5.5620      0.00000
     23       5.5620      0.00000
     24       5.5620      0.00000
     25       6.4357      0.00000
     26       6.4357      0.00000
     27       6.4357      0.00000
     28       6.4357      0.00000
     29       7.9293      0.00000
     30       7.9293      0.00000
     31       7.9293      0.00000
     32       7.9293      0.00000

 k-point    40 :       0.5000    0.5000    0.5000
  band No.  band energies     occupation 
      1      -9.8892      2.00000
      2      -9.8892      2.00000
      3      -9.8892      2.00000
      4      -9.8892      2.00000
      5      -5.0533      2.00000
      6      -5.0533      2.00000
      7      -5.0533      2.00000
      8      -5.0533      2.00000
      9      -1.5792      2.00000
     10      -1.5792      2.00000
     11      -1.5792      2.00000
     12      -1.5792      2.00000
     13      -0.8409      2.00000
     14      -0.8409      2.00000
     15      -0.8409      2.00000
     16      -0.8409      2.00000
     17       1.4259      2.00000
     18       1.4259      2.00000
     19       1.4259      2.00000
     20       1.4259      2.00000
     21       5.4554      0.00000
     22       5.4554      0.00000
     23       5.4554      0.00000
     24       5.4554      0.00000
     25       7.1321      0.00000
     26       7.1321      0.00000
     27       7.1321      0.00000
     28       7.1321      0.00000
     29       8.6646      0.00000
     30       8.6646      0.00000
     31       8.6646      0.00000
     32       8.6646      0.00000


--------------------------------------------------------------------------------------------------------


 soft charge-density along one line, spin component            1
         0         1         2         3         4         5         6         7         8         9
 total charge-density along one line
 
 pseudopotential strength for first ion, spin component:            1
 14.709  18.357  -0.000   0.048   0.034  -0.000   0.087   0.062
 18.357  22.925  -0.000   0.061   0.043  -0.000   0.110   0.078
 -0.000  -0.000   3.256  -0.000  -0.000   5.545  -0.000  -0.000
  0.048   0.061  -0.000   3.251  -0.002  -0.000   5.536  -0.003
  0.034   0.043  -0.000  -0.002   3.257  -0.000  -0.003   5.546
 -0.000  -0.000   5.545  -0.000  -0.000   9.501  -0.000  -0.000
  0.087   0.110  -0.000   5.536  -0.003  -0.000   9.486  -0.005
  0.062   0.078  -0.000  -0.003   5.546  -0.000  -0.005   9.503
 -0.000  -0.000   0.005   0.000  -0.000   0.009   0.000  -0.000
 -0.000  -0.000   0.013  -0.000   0.000   0.023  -0.000   0.000
 -0.007  -0.008   0.000   0.012  -0.003   0.000   0.023  -0.005
 -0.003  -0.004   0.000   0.011   0.013   0.000   0.019   0.023
  0.001   0.001   0.000   0.000   0.010   0.000   0.000   0.019
 total augmentation occupancy for first ion, spin component:            1
  2.557  -0.588  -0.000   0.403   0.225   0.000  -0.072  -0.032  -0.000  -0.000   0.011  -0.019  -0.015
 -0.588   0.606   0.000  -0.515  -0.325  -0.000   0.079   0.046   0.000   0.000  -0.008   0.016   0.016
 -0.000   0.000   1.112  -0.000  -0.000  -0.185   0.000   0.000   0.113   0.031   0.000   0.000   0.000
  0.403  -0.515  -0.000   1.344  -0.006   0.000  -0.211   0.014   0.000   0.000   0.123  -0.033   0.001
  0.225  -0.325  -0.000  -0.006   1.024  -0.000   0.014  -0.156   0.000  -0.000  -0.080   0.038  -0.018
  0.000  -0.000  -0.185   0.000  -0.000   0.034   0.000  -0.000  -0.019  -0.005  -0.000  -0.000  -0.000
 -0.072   0.079   0.000  -0.211   0.014   0.000   0.038  -0.004   0.000  -0.000  -0.021   0.005  -0.000
 -0.032   0.046   0.000   0.014  -0.156  -0.000  -0.004   0.027  -0.000  -0.000   0.013  -0.006   0.003
 -0.000   0.000   0.113   0.000   0.000  -0.019   0.000  -0.000   0.023   0.001  -0.000  -0.000  -0.000
 -0.000   0.000   0.031   0.000  -0.000  -0.005  -0.000  -0.000   0.001   0.009  -0.000   0.000  -0.000
  0.011  -0.008   0.000   0.123  -0.080  -0.000  -0.021   0.013  -0.000  -0.000   0.030  -0.007   0.004
 -0.019   0.016   0.000  -0.033   0.038  -0.000   0.005  -0.006  -0.000   0.000  -0.007   0.011  -0.002
 -0.015   0.016   0.000   0.001  -0.018  -0.000  -0.000   0.003  -0.000  -0.000   0.004  -0.002   0.007


------------------------ aborting loop because EDIFF is reached ----------------------------------------


    CHARGE:  cpu time      0.0036: real time      0.0036
    FORLOC:  cpu time      0.0001: real time      0.0001
    FORNL :  cpu time      0.0223: real time      0.0224
    STRESS:  cpu time      0.2010: real time      0.2017
    FORCOR:  cpu time      0.0033: real time      0.0033
    FORHAR:  cpu time      0.0008: real time      0.0008
    MIXING:  cpu time      0.0010: real time      0.0010
    OFIELD:  cpu time      0.0000: real time      0.0000

  FORCE on cell =-STRESS in cart. coord.  units (eV):
  Direction    XX          YY          ZZ          XY          YZ          ZX
  --------------------------------------------------------------------------------------
  Alpha Z    81.32311    81.32311    81.32311
  Ewald    -493.89787  -419.43655  -469.14086     0.00000    -0.00000    -0.00000
  Hartree    44.09138    68.09511    36.27757    -0.00000    -0.00000    -0.00000
  E(xc)    -140.04540  -139.75135  -140.62017     0.00000     0.00000    -0.00000
  Local    -114.09728  -205.16797  -133.28345    -0.00000     0.00000    -0.00000
  n-local   236.39449   237.42772   242.04442     0.00000    -0.00000     0.00000
  augment   -11.88242   -11.27976   -12.25526    -0.00000     0.00000    -0.00000
  Kinetic   396.57438   382.65560   395.94803    -0.00000     0.00000     0.00000
  Fock        0.00000     0.00000     0.00000     0.00000     0.00000     0.00000
  -------------------------------------------------------------------------------------
  Total      -1.53961    -6.13409     0.29339     0.00000     0.00000    -0.00000
  in kB     -11.83881   -47.16797     2.25602     0.00000     0.00000    -0.00000
  external pressure =      -18.92 kB  Pullay stress =        0.00 kB


 VOLUME and BASIS-vectors are now :
 -----------------------------------------------------------------------------
  energy-cutoff  :      360.00
  volume of cell :      208.36
      direct lattice vectors                 reciprocal lattice vectors
     4.400000000  0.000000000  0.000000000     0.227272727  0.000000000  0.000000000
     0.000000000  4.250000000  0.000000000     0.000000000  0.235294118  0.000000000
     0.000000000  0.000000000 11.142221000     0.000000000  0.000000000  0.089748713

  length of vectors
     4.400000000  4.250000000 11.142221000     0.227272727  0.235294118  0.089748713


 FORCES acting on ions
    electron-ion (+dipol)            ewald-force                    non-local-force                 convergence-correction
 -----------------------------------------------------------------------------------------------
   0.102E+02 -.512E-06 0.277E+02   -.126E+02 -.336E-14 -.307E+02   0.244E+01 0.180E-06 0.302E+01   0.954E-04 0.365E-06 -.800E-03
   0.102E+02 -.490E-07 -.277E+02   -.126E+02 0.393E-14 0.307E+02   0.244E+01 0.311E-07 -.302E+01   0.959E-04 -.504E-07 0.802E-03
   -.102E+02 0.312E-06 -.277E+02   0.126E+02 0.257E-14 0.307E+02   -.244E+01 -.113E-06 -.302E+01   -.954E-04 -.234E-06 0.801E-03
   -.102E+02 0.534E-06 0.277E+02   0.126E+02 -.273E-14 -.307E+02   -.244E+01 -.271E-06 0.302E+01   -.952E-04 -.268E-06 -.803E-03
   -.924E+01 -.285E-06 -.295E+02   0.105E+02 -.420E-14 0.314E+02   -.119E+01 0.135E-06 -.190E+01   0.439E-03 0.157E-06 0.220E-02
   -.924E+01 0.112E-05 0.295E+02   0.105E+02 0.217E-14 -.314E+02   -.119E+01 -.270E-06 0.190E+01   0.441E-03 -.865E-06 -.219E-02
   0.924E+01 -.859E-06 0.295E+02   -.105E+02 0.783E-15 -.314E+02   0.119E+01 0.272E-06 0.190E+01   -.441E-03 0.614E-06 -.220E-02
   0.924E+01 -.829E-06 -.295E+02   -.105E+02 -.190E-14 0.314E+02   0.119E+01 0.195E-06 -.190E+01   -.440E-03 0.551E-06 0.219E-02
 -----------------------------------------------------------------------------------------------
   0.168E-05 -.565E-06 0.115E-05   -.178E-14 -.275E-14 -.711E-14   -.700E-06 0.159E-06 -.619E-06   -.830E-06 0.269E-06 -.402E-06
 
 
 POSITION                                       TOTAL-FORCE (eV/Angst)
 -----------------------------------------------------------------------------------
      0.45734      1.06250      1.46130        -0.023502      0.000000      0.006569
      2.65734      3.18750      4.10981        -0.023502     -0.000000     -0.006571
      3.94266      3.18750      9.68092         0.023502     -0.000000     -0.006569
      1.74266      1.06250      7.03241         0.023502      0.000000      0.006571
      4.30204      1.06250      3.95472         0.042027      0.000000      0.005947
      2.10204      3.18750      1.61640         0.042027      0.000000     -0.005945
      0.09796      3.18750      7.18751        -0.042027      0.000000     -0.005947
      2.29796      1.06250      9.52583        -0.042027     -0.000000      0.005945
 -----------------------------------------------------------------------------------
    total drift:                                0.000000     -0.000000      0.000000


--------------------------------------------------------------------------------------------------------



  FREE ENERGIE OF THE ION-ELECTRON SYSTEM (eV)
  ---------------------------------------------------
  free  energy   TOTEN  =       -33.56249181 eV

  energy  without entropy=      -33.56249181  energy(sigma->0) =      -33.56249181
 


--------------------------------------------------------------------------------------------------------


    POTLOK:  cpu time      0.1135: real time      0.1139


--------------------------------------------------------------------------------------------------------


     LOOP+:  cpu time      4.9254: real time      4.9633
    4ORBIT:  cpu time      0.0000: real time      0.0000

 total amount of memory used by VASP MPI-rank0    38776. kBytes
=======================================================================

   base      :      30000. kBytes
   nonl-proj :       6893. kBytes
   fftplans  :        320. kBytes
   grid      :        462. kBytes
   one-center:         16. kBytes
   wavefun   :       1085. kBytes
 
  
  
 General timing and accounting informations for this job:
 ========================================================
  
                  Total CPU time used (sec):        5.785
                            User time (sec):        5.470
                          System time (sec):        0.315
                         Elapsed time (sec):        7.283
  
                   Maximum memory used (kb):      190272.
                   Average memory used (kb):          N/A
  
                          Minor page faults:        23667
                          Major page faults:           29
                 Voluntary context switches:         3487
