 running  128 mpi-ranks, with    1 threads/rank, on    2 nodes
 distrk:  each k-point on   64 cores,    2 groups
 distr:  one band on    4 cores,   16 groups
 vasp.6.4.2 20Jul23 (build Oct 12 2023 10:31:02) complex                         
 POSCAR found type information on POSCAR GeSe
 POSCAR found :  2 types and       8 ions
 Reading from existing POTCAR
 scaLAPACK will be used
 Reading from existing POTCAR
 LDA part: xc-table for Pade appr. of Perdew
 POSCAR, INCAR and KPOINTS ok, starting setup
 FFT: planning ... GRIDC
 FFT: planning ... GRID_SOFT
 FFT: planning ... GRID
 WAVECAR not read
 entering main loop
       N       E                     dE             d eps       ncg     rms          rms(c)
DAV:   1     0.131827589638E+03    0.13183E+03   -0.12845E+04  2560   0.772E+02
DAV:   2    -0.255396263522E+02   -0.15737E+03   -0.15254E+03  3776   0.139E+02
DAV:   3    -0.341126035748E+02   -0.85730E+01   -0.85560E+01  3200   0.378E+01
DAV:   4    -0.341698462987E+02   -0.57243E-01   -0.57237E-01  3280   0.355E+00
DAV:   5    -0.341701980050E+02   -0.35171E-03   -0.35170E-03  3184   0.270E-01    0.655E+00
DAV:   6    -0.337976091437E+02    0.37259E+00   -0.75099E-01  3104   0.294E+00    0.413E+00
DAV:   7    -0.337827374352E+02    0.14872E-01   -0.23151E-01  2832   0.172E+00    0.128E+00
DAV:   8    -0.337812157499E+02    0.15217E-02   -0.21853E-02  3008   0.563E-01    0.186E-01
DAV:   9    -0.337815106445E+02   -0.29489E-03   -0.36791E-03  3088   0.260E-01    0.661E-02
DAV:  10    -0.337816027735E+02   -0.92129E-04   -0.26379E-04  3216   0.688E-02    0.240E-02
DAV:  11    -0.337816309958E+02   -0.28222E-04   -0.39273E-05  2768   0.283E-02    0.124E-02
DAV:  12    -0.337816315941E+02   -0.59834E-06   -0.53987E-06  3456   0.101E-02
   1 F= -.33781632E+02 E0= -.33781632E+02  d E =-.338778E-14
