 running  256 mpi-ranks, with    1 threads/rank, on   14 nodes
 distrk:  each k-point on   32 cores,    8 groups
 distr:  one band on    2 cores,   16 groups
 vasp.6.4.1 05Apr23 (build May 18 2023 13:19:41) complex                         
 POSCAR found type information on POSCAR C S O 
 POSCAR found :  3 types and     367 ions
 Reading from existing POTCAR
 scaLAPACK will be used
 Reading from existing POTCAR
 -----------------------------------------------------------------------------
|                                                                             |
|               ----> ADVICE to this user running VASP <----                  |
|                                                                             |
|     You have a (more or less) 'large supercell' and for larger cells it     |
|     might be more efficient to use real-space projection operators.         |
|     Therefore, try LREAL= Auto in the INCAR file.                           |
|     Mind: If you want to do very accurate calculations, keep the            |
|     reciprocal projection scheme (i.e. LREAL=.FALSE.).                      |
|                                                                             |
 -----------------------------------------------------------------------------

 LDA part: xc-table for Pade appr. of Perdew
 found WAVECAR, reading the header
  number of k-points has changed, file:     2 present:    16
  trying to continue reading WAVECAR, but it might fail
 WARNING: stress and forces are not correct
 POSCAR, INCAR and KPOINTS ok, starting setup
 FFT: planning ... GRIDC
 FFT: planning ... GRID_SOFT
 FFT: planning ... GRID
 reading WAVECAR
 the WAVECAR file was read successfully
 charge-density read from file: 02_SCF                                  
 entering main loop
       N       E                     dE             d eps       ncg     rms          rms(c)
DAV:   1    -0.332363389253E+04   -0.33236E+04   -0.60765E+02 30000   0.186E+01
DAV:   2    -0.332568022911E+04   -0.20463E+01   -0.20462E+01 32560   0.469E+00
DAV:   3    -0.332573793875E+04   -0.57710E-01   -0.57707E-01 39664   0.703E-01
DAV:   4    -0.332573862395E+04   -0.68519E-03   -0.68493E-03 33104   0.795E-02
DAV:   5    -0.332573865071E+04   -0.26764E-04   -0.26651E-04 40496   0.140E-02
DAV:   6    -0.332573865136E+04   -0.65321E-06   -0.54291E-06 27216   0.202E-03
   1 F= -.33398627E+04 E0= -.33398627E+04  d E =-.335562E-44
 writing wavefunctions
 PROFILE, used timers:     280
