 running   32 mpi-ranks, with    1 threads/rank, on    2 nodes
 distrk:  each k-point on   16 cores,    2 groups
 distr:  one band on    1 cores,   16 groups
 vasp.6.4.2 20Jul23 (build Oct 12 2023 10:31:02) complex                         
 POSCAR found type information on POSCAR GeSe
 POSCAR found :  2 types and       8 ions
 Reading from existing POTCAR
 -----------------------------------------------------------------------------
|                                                                             |
|           W    W    AA    RRRRR   N    N  II  N    N   GGGG   !!!           |
|           W    W   A  A   R    R  NN   N  II  NN   N  G    G  !!!           |
|           W    W  A    A  R    R  N N  N  II  N N  N  G       !!!           |
|           W WW W  AAAAAA  RRRRR   N  N N  II  N  N N  G  GGG   !            |
|           WW  WW  A    A  R   R   N   NN  II  N   NN  G    G                |
|           W    W  A    A  R    R  N    N  II  N    N   GGGG   !!!           |
|                                                                             |
|     You use a magnetic or noncollinear calculation, but did not specify     |
|     the initial magnetic moment with the MAGMOM tag. Note that a            |
|     default of 1 will be used for all atoms. This ferromagnetic setup       |
|     may break the symmetry of the crystal, in particular it may rule        |
|     out finding an antiferromagnetic solution. Thence, we recommend         |
|     setting the initial magnetic moment manually or verifying carefully     |
|     that this magnetic setup is desired.                                    |
|                                                                             |
 -----------------------------------------------------------------------------

 scaLAPACK will be used
 Reading from existing POTCAR
 LDA part: xc-table for Pade appr. of Perdew
 -----------------------------------------------------------------------------
|                                                                             |
|           W    W    AA    RRRRR   N    N  II  N    N   GGGG   !!!           |
|           W    W   A  A   R    R  NN   N  II  NN   N  G    G  !!!           |
|           W    W  A    A  R    R  N N  N  II  N N  N  G       !!!           |
|           W WW W  AAAAAA  RRRRR   N  N N  II  N  N N  G  GGG   !            |
|           WW  WW  A    A  R   R   N   NN  II  N   NN  G    G                |
|           W    W  A    A  R    R  N    N  II  N    N   GGGG   !!!           |
|                                                                             |
|     The number of bands has been changed from the values supplied in        |
|     the INCAR file. This is a result of running the parallel version.       |
|     The orbitals not found in the WAVECAR file will be initialized with     |
|     random numbers, which is usually adequate. For correlated               |
|     calculations, however, you should redo the groundstate calculation.     |
|     I found NBANDS = 220. Now, NBANDS = 224.                                |
|                                                                             |
 -----------------------------------------------------------------------------

 POSCAR, INCAR and KPOINTS ok, starting setup
 FFT: planning ... GRIDC
 FFT: planning ... GRID_SOFT
 FFT: planning ... GRID
 WAVECAR not read
 WARNING: random wavefunctions but no delay for mixing, default for NELMDL
 entering main loop
       N       E                     dE             d eps       ncg     rms          rms(c)
DAV:   1     0.177124639830E+03    0.17712E+03   -0.95327E+03 28672   0.137E+02
DAV:   2    -0.218642962719E+02   -0.19899E+03   -0.17749E+03 34704   0.416E+01
DAV:   3    -0.324191655725E+02   -0.10555E+02   -0.10393E+02 34544   0.969E+00
DAV:   4    -0.324763664821E+02   -0.57201E-01   -0.57187E-01 33776   0.632E-01
DAV:   5    -0.324765809355E+02   -0.21445E-03   -0.21445E-03 33376   0.421E-02    0.967E+00
DAV:   6    -0.260693261525E+02    0.64073E+01   -0.33940E+00 31600   0.188E+00    0.610E+00
DAV:   7    -0.256144141133E+02    0.45491E+00   -0.47836E-01 32032   0.616E-01    0.389E+00
DAV:   8    -0.271022878317E+02   -0.14879E+01   -0.20563E-01 33104   0.464E-01    0.230E+00
DAV:   9    -0.284906258078E+02   -0.13883E+01   -0.13120E-01 32752   0.338E-01    0.182E+00
DAV:  10    -0.307883292198E+02   -0.22977E+01   -0.40474E-01 31040   0.546E-01    0.118E+00
DAV:  11    -0.329568405981E+02   -0.21685E+01   -0.40505E-01 31712   0.517E-01    0.462E-01
DAV:  12    -0.332920563845E+02   -0.33522E+00   -0.47937E-02 32304   0.190E-01    0.307E-01
DAV:  13    -0.334099739962E+02   -0.11792E+00   -0.15046E-02 31712   0.118E-01    0.190E-01
DAV:  14    -0.334923907749E+02   -0.82417E-01   -0.24998E-03 31136   0.545E-02    0.106E-01
DAV:  15    -0.335035762540E+02   -0.11185E-01   -0.57980E-04 32784   0.243E-02    0.673E-02
DAV:  16    -0.335122984503E+02   -0.87222E-02   -0.77542E-04 31296   0.277E-02    0.411E-02
DAV:  17    -0.335159904462E+02   -0.36920E-02   -0.30275E-04 32704   0.170E-02    0.249E-02
DAV:  18    -0.335183924829E+02   -0.24020E-02   -0.17401E-04 32288   0.131E-02    0.128E-02
DAV:  19    -0.335196635156E+02   -0.12710E-02   -0.71490E-05 32544   0.858E-03    0.578E-03
DAV:  20    -0.335197892473E+02   -0.12573E-03   -0.79156E-06 34400   0.316E-03    0.285E-03
DAV:  21    -0.335198001196E+02   -0.10872E-04   -0.26506E-06 31872   0.201E-03    0.122E-03
DAV:  22    -0.335198004179E+02   -0.29831E-06   -0.65736E-07 31968   0.102E-03
   1 F= -.33519800E+02 E0= -.33519800E+02  d E =-.589797E-22  mag=     0.0000
 writing wavefunctions
