 running  128 mpi-ranks, with    1 threads/rank, on    2 nodes
 distrk:  each k-point on   64 cores,    2 groups
 distr:  one band on    4 cores,   16 groups
 vasp.6.4.2 20Jul23 (build Oct 12 2023 10:31:02) complex                         
 POSCAR found type information on POSCAR GeSe
 POSCAR found :  2 types and       8 ions
 Reading from existing POTCAR
 scaLAPACK will be used
 Reading from existing POTCAR
 LDA part: xc-table for Pade appr. of Perdew
 POSCAR, INCAR and KPOINTS ok, starting setup
 FFT: planning ... GRIDC
 FFT: planning ... GRID_SOFT
 FFT: planning ... GRID
 WAVECAR not read
 entering main loop
       N       E                     dE             d eps       ncg     rms          rms(c)
DAV:   1     0.133845841261E+03    0.13385E+03   -0.12669E+04  2560   0.764E+02
DAV:   2    -0.244188103857E+02   -0.15826E+03   -0.15353E+03  3744   0.136E+02
DAV:   3    -0.339039893685E+02   -0.94852E+01   -0.94640E+01  3104   0.390E+01
DAV:   4    -0.339753352866E+02   -0.71346E-01   -0.71338E-01  3248   0.391E+00
DAV:   5    -0.339757924915E+02   -0.45720E-03   -0.45720E-03  3104   0.305E-01    0.608E+00
DAV:   6    -0.334161047396E+02    0.55969E+00   -0.12381E+00  2880   0.362E+00    0.375E+00
DAV:   7    -0.334073840484E+02    0.87207E-02   -0.27304E-01  3136   0.183E+00    0.158E+00
DAV:   8    -0.334070179906E+02    0.36606E-03   -0.27801E-02  2848   0.646E-01    0.180E-01
DAV:   9    -0.334069311469E+02    0.86844E-04   -0.49957E-03  3120   0.292E-01    0.734E-02
DAV:  10    -0.334070846062E+02   -0.15346E-03   -0.54103E-04  2928   0.102E-01    0.249E-02
DAV:  11    -0.334071102043E+02   -0.25598E-04   -0.45857E-05  2880   0.310E-02    0.141E-02
DAV:  12    -0.334071104341E+02   -0.22985E-06   -0.10747E-05  3104   0.136E-02    0.367E-03
DAV:  13    -0.334071112503E+02   -0.81614E-06   -0.12442E-06  1936   0.421E-03
   1 F= -.33407111E+02 E0= -.33407111E+02  d E =-.569883E-14
