 running  256 mpi-ranks, with    1 threads/rank, on    7 nodes
 distrk:  each k-point on  128 cores,    2 groups
 distr:  one band on    4 cores,   32 groups
 vasp.6.4.1 05Apr23 (build May 18 2023 13:19:41) complex                         
 POSCAR found type information on POSCAR H 
 POSCAR found :  1 types and       1 ions
 Reading from existing POTCAR
 -----------------------------------------------------------------------------
|                                                                             |
|           W    W    AA    RRRRR   N    N  II  N    N   GGGG   !!!           |
|           W    W   A  A   R    R  NN   N  II  NN   N  G    G  !!!           |
|           W    W  A    A  R    R  N N  N  II  N N  N  G       !!!           |
|           W WW W  AAAAAA  RRRRR   N  N N  II  N  N N  G  GGG   !            |
|           WW  WW  A    A  R   R   N   NN  II  N   NN  G    G                |
|           W    W  A    A  R    R  N    N  II  N    N   GGGG   !!!           |
|                                                                             |
|     You use a magnetic or noncollinear calculation, but did not specify     |
|     the initial magnetic moment with the MAGMOM tag. Note that a            |
|     default of 1 will be used for all atoms. This ferromagnetic setup       |
|     may break the symmetry of the crystal, in particular it may rule        |
|     out finding an antiferromagnetic solution. Thence, we recommend         |
|     setting the initial magnetic moment manually or verifying carefully     |
|     that this magnetic setup is desired.                                    |
|                                                                             |
 -----------------------------------------------------------------------------

 scaLAPACK will be used
 Reading from existing POTCAR
 LDA part: xc-table for Pade appr. of Perdew
 POSCAR, INCAR and KPOINTS ok, starting setup
 FFT: planning ... GRIDC
 FFT: planning ... GRID_SOFT
 FFT: planning ... GRID
 WAVECAR not read
 WARNING: chargedensity file is incomplete
 WARNING: random wavefunctions but no delay for mixing, default for NELMDL
 entering main loop
       N       E                     dE             d eps       ncg     rms          rms(c)
DAV:   1     0.219311082041E+01    0.21931E+01   -0.28144E+01  7168   0.158E-01
DAV:   2    -0.795415019114E+00   -0.29885E+01   -0.28190E+01  8096   0.127E-01
DAV:   3    -0.110533998528E+01   -0.30992E+00   -0.30806E+00  8672   0.445E-02
DAV:   4    -0.110777741833E+01   -0.24374E-02   -0.24373E-02  8192   0.456E-03
DAV:   5    -0.110778836744E+01   -0.10949E-04   -0.10949E-04  8416   0.303E-04    0.537E-01
DAV:   6    -0.466860742616E-01    0.10611E+01   -0.10277E-03  9344   0.130E-03    0.288E-01
DAV:   7    -0.721728206384E+00   -0.67504E+00   -0.37682E-04  7968   0.655E-04    0.154E-01
DAV:   8    -0.104315402819E+01   -0.32143E+00   -0.59790E-04  7936   0.845E-04    0.267E-02
DAV:   9    -0.106231403135E+01   -0.19160E-01   -0.13335E-04  7968   0.301E-04    0.158E-02
DAV:  10    -0.107966717912E+01   -0.17353E-01   -0.11206E-05  7520   0.103E-04    0.865E-03
DAV:  11    -0.110429171912E+01   -0.24625E-01   -0.93902E-06  7712   0.723E-05    0.487E-03
DAV:  12    -0.110383206812E+01    0.45965E-03   -0.28369E-06  7520   0.511E-05    0.197E-03
DAV:  13    -0.110615290900E+01   -0.23208E-02   -0.20475E-06  7392   0.450E-05    0.141E-03
DAV:  14    -0.110773551477E+01   -0.15826E-02   -0.33036E-06  7360   0.551E-05    0.690E-04
DAV:  15    -0.110814459253E+01   -0.40908E-03   -0.16489E-06  7456   0.380E-05    0.594E-04
DAV:  16    -0.110820584042E+01   -0.61248E-04   -0.15166E-06  7264   0.241E-05    0.410E-04
DAV:  17    -0.110856622568E+01   -0.36039E-03   -0.10040E-06  7360   0.217E-05    0.159E-04
DAV:  18    -0.110850439705E+01    0.61829E-04   -0.20874E-07  7712   0.144E-05    0.112E-04
DAV:  19    -0.110857652788E+01   -0.72131E-04   -0.81457E-08  7904   0.858E-06    0.865E-05
DAV:  20    -0.110860967767E+01   -0.33150E-04   -0.11645E-07  8064   0.655E-06    0.450E-05
DAV:  21    -0.110862792643E+01   -0.18249E-04   -0.14806E-08  8256   0.396E-06    0.309E-05
DAV:  22    -0.110863186753E+01   -0.39411E-05   -0.55475E-09  7712   0.255E-06    0.180E-05
DAV:  23    -0.110863727322E+01   -0.54057E-05   -0.35384E-09  7680   0.161E-06    0.174E-05
DAV:  24    -0.110863694178E+01    0.33144E-06   -0.48238E-10  8352   0.699E-07
   1 F= -.11086370E+01 E0= -.11086370E+01  d E =-.110864E+01  mag=     1.0000
 BRION: g(F)=  0.119E-45 g(S)=  0.000E+00
 reached required accuracy - stopping structural energy minimisation
 PROFILE, used timers:     307
