 running  128 mpi-ranks, with    1 threads/rank, on    2 nodes
 distrk:  each k-point on   64 cores,    2 groups
 distr:  one band on    4 cores,   16 groups
 vasp.6.4.2 20Jul23 (build Oct 12 2023 10:31:02) complex                         
 POSCAR found type information on POSCAR GeSe
 POSCAR found :  2 types and       8 ions
 Reading from existing POTCAR
 scaLAPACK will be used
 Reading from existing POTCAR
 LDA part: xc-table for Pade appr. of Perdew
 POSCAR, INCAR and KPOINTS ok, starting setup
 FFT: planning ... GRIDC
 FFT: planning ... GRID_SOFT
 FFT: planning ... GRID
 WAVECAR not read
 entering main loop
       N       E                     dE             d eps       ncg     rms          rms(c)
DAV:   1     0.134474988659E+03    0.13447E+03   -0.12429E+04  2560   0.758E+02
DAV:   2    -0.236094640857E+02   -0.15808E+03   -0.15352E+03  3712   0.135E+02
DAV:   3    -0.335967054426E+02   -0.99872E+01   -0.99623E+01  3200   0.397E+01
DAV:   4    -0.336752580710E+02   -0.78553E-01   -0.78546E-01  3120   0.409E+00
DAV:   5    -0.336757789103E+02   -0.52084E-03   -0.52084E-03  3184   0.326E-01    0.604E+00
DAV:   6    -0.329862204254E+02    0.68956E+00   -0.15838E+00  2800   0.403E+00    0.367E+00
DAV:   7    -0.329794665680E+02    0.67539E-02   -0.30187E-01  3040   0.192E+00    0.170E+00
DAV:   8    -0.329791265664E+02    0.34000E-03   -0.31526E-02  2896   0.700E-01    0.188E-01
DAV:   9    -0.329787809101E+02    0.34566E-03   -0.62361E-03  3088   0.316E-01    0.806E-02
DAV:  10    -0.329790033283E+02   -0.22242E-03   -0.71380E-04  2816   0.116E-01    0.283E-02
DAV:  11    -0.329790387539E+02   -0.35426E-04   -0.52709E-05  3104   0.335E-02    0.157E-02
DAV:  12    -0.329790395668E+02   -0.81293E-06   -0.14070E-05  2848   0.151E-02    0.383E-03
DAV:  13    -0.329790404491E+02   -0.88225E-06   -0.17266E-06  2304   0.485E-03
   1 F= -.32979040E+02 E0= -.32979040E+02  d E =-.110976E-10
