 vasp.6.4.2 20Jul23 (build Oct 12 2023 10:31:02) complex                         
 executed on              LinuxNV date 2025.05.28  02:34:00
 running  128 mpi-ranks, with    1 threads/rank, on    2 nodes
 distrk:  each k-point on   64 cores,    2 groups
 distr:  one band on NCORE=   4 cores,   16 groups


--------------------------------------------------------------------------------------------------------


 INCAR:
   ENCUT = 360.000000
   SIGMA = 0.050000
   EDIFF = 1.00e-06
   ALGO = Normal
   GGA = PE
   PREC = Normal
   SYSTEM = ./
   ICHARG = 2
   ISMEAR = 0
   ISPIN = 1
   ISTART = 0
   ISYM = 0
   KPAR = 2
   LMAXMIX = 4
   NELM = 100
   NPAR = 16
   LASPH = .TRUE.
   LCHARG = .FALSE.
   LWAVE = .FALSE.

 POTCAR:    PAW_PBE Ge 05Jan2001                  
 POTCAR:    PAW_PBE Se 06Sep2000                  
 POTCAR:    PAW_PBE Ge 05Jan2001                  
   VRHFIN =Ge: s2p2                                                                                 
   LEXCH  = PE                                                                                      
   EATOM  =   104.9960 eV,    7.7170 Ry                                                             
                                                                                                    
   TITEL  = PAW_PBE Ge 05Jan2001                                                                    
   LULTRA =        F    use ultrasoft PP ?                                                          
   IUNSCR =        1    unscreen: 0-lin 1-nonlin 2-no                                               
   RPACOR =    2.170    partial core radius                                                         
   POMASS =   72.610; ZVAL   =    4.000    mass and valenz                                          
   RCORE  =    2.300    outmost cutoff radius                                                       
   RWIGS  =    2.300; RWIGS  =    1.217    wigner-seitz radius (au A)                               
   ENMAX  =  173.807; ENMIN  =  130.355 eV                                                          
   ICORE  =        3    local potential                                                             
   LCOR   =        T    correct aug charges                                                         
   LPAW   =        T    paw PP                                                                      
   EAUG   =  385.843                                                                                
   DEXC   =    0.000                                                                                
   RMAX   =    2.342    core radius for proj-oper                                                   
   RAUG   =    1.300    factor for augmentation sphere                                              
   RDEP   =    2.318    radius for radial grids                                                     
   RDEPT  =    2.103    core radius for aug-charge                                                  
                                                                                                    
   Atomic configuration                                                                             
   10 entries                                                                                       
     n  l   j            E        occ.                                                              
     1  0  0.50    -10959.8463   2.0000                                                             
     2  0  0.50     -1371.6056   2.0000                                                             
     2  1  1.50     -1198.4791   6.0000                                                             
     3  0  0.50      -168.4733   2.0000                                                             
     3  1  1.50      -115.6019   6.0000                                                             
     3  2  2.50       -29.3106  10.0000                                                             
     4  0  0.50       -11.7309   2.0000                                                             
     4  1  0.50        -3.8952   2.0000                                                             
     4  2  1.50        -4.0817   0.0000                                                             
     4  3  2.50        -4.0817   0.0000                                                             
   Description                                                                                      
     l       E           TYP  RCUT    TYP  RCUT                                                     
     0    -11.7309493     23  2.300                                                                 
     0     -7.4578696     23  2.300                                                                 
     1     -3.8952261     23  2.300                                                                 
     1      6.1178114     23  2.300                                                                 
     2     -4.0817478     23  2.300                                                                 
     3     -1.3605826      7  2.300                                                                 
  local pseudopotential read in
  partial core-charges read in
  partial kinetic energy density read in
  atomic valenz-charges read in
  non local Contribution for L=            0  read in
    real space projection operators read in
  non local Contribution for L=            0  read in
    real space projection operators read in
  non local Contribution for L=            1  read in
    real space projection operators read in
  non local Contribution for L=            1  read in
    real space projection operators read in
  non local Contribution for L=            2  read in
    real space projection operators read in
    PAW grid and wavefunctions read in
 
   number of l-projection  operators is LMAX  =            5
   number of lm-projection operators is LMMAX =           13
 
 POTCAR:    PAW_PBE Se 06Sep2000                  
   VRHFIN =Se: s2p4                                                                                 
   LEXCH  = PE                                                                                      
   EATOM  =   257.1286 eV,   18.8984 Ry                                                             
                                                                                                    
   TITEL  = PAW_PBE Se 06Sep2000                                                                    
   LULTRA =        F    use ultrasoft PP ?                                                          
   IUNSCR =        1    unscreen: 0-lin 1-nonlin 2-no                                               
   RPACOR =    1.900    partial core radius                                                         
   POMASS =   78.960; ZVAL   =    6.000    mass and valenz                                          
   RCORE  =    2.100    outmost cutoff radius                                                       
   RWIGS  =    2.200; RWIGS  =    1.164    wigner-seitz radius (au A)                               
   ENMAX  =  211.555; ENMIN  =  158.666 eV                                                          
   ICORE  =        3    local potential                                                             
   LCOR   =        T    correct aug charges                                                         
   LPAW   =        T    paw PP                                                                      
   EAUG   =  446.842                                                                                
   DEXC   =    0.000                                                                                
   RMAX   =    2.147    core radius for proj-oper                                                   
   RAUG   =    1.300    factor for augmentation sphere                                              
   RDEP   =    2.177    radius for radial grids                                                     
   RDEPT  =    1.928    core radius for aug-charge                                                  
                                                                                                    
   Atomic configuration                                                                             
   10 entries                                                                                       
     n  l   j            E        occ.                                                              
     1  0  0.50    -12503.4787   2.0000                                                             
     2  0  0.50     -1606.9547   2.0000                                                             
     2  1  1.50     -1413.3140   6.0000                                                             
     3  0  0.50      -213.4885   2.0000                                                             
     3  1  1.50      -152.9538   6.0000                                                             
     3  2  2.50       -53.1221  10.0000                                                             
     4  0  0.50       -17.2865   2.0000                                                             
     4  1  0.50        -6.5110   4.0000                                                             
     4  2  2.50        -6.8029   0.0000                                                             
     4  3  2.50        -6.8029   0.0000                                                             
   Description                                                                                      
     l       E           TYP  RCUT    TYP  RCUT                                                     
     0    -17.2865377     23  2.100                                                                 
     0    -15.3094411     23  2.100                                                                 
     1     -6.5110275     23  2.100                                                                 
     1     -0.0695192     23  2.100                                                                 
     2     -6.8029130     23  2.100                                                                 
     3     -1.3605826      7  2.100                                                                 
  local pseudopotential read in
  partial core-charges read in
  partial kinetic energy density read in
  atomic valenz-charges read in
  non local Contribution for L=            0  read in
    real space projection operators read in
  non local Contribution for L=            0  read in
    real space projection operators read in
  non local Contribution for L=            1  read in
    real space projection operators read in
  non local Contribution for L=            1  read in
    real space projection operators read in
  non local Contribution for L=            2  read in
    real space projection operators read in
    PAW grid and wavefunctions read in
 
   number of l-projection  operators is LMAX  =            5
   number of lm-projection operators is LMMAX =           13
 
  PAW_PBE Ge 05Jan2001                  :
 energy of atom  1       EATOM= -104.9960
 kinetic energy error for atom=    0.0005 (will be added to EATOM!!)
  PAW_PBE Se 06Sep2000                  :
 energy of atom  2       EATOM= -257.1286
 kinetic energy error for atom=    0.0030 (will be added to EATOM!!)
 
 
 POSCAR: Ge Se
  positions in cartesian coordinates
  No initial velocities read in
 exchange correlation table for  LEXCH =        8
   RHO(1)=    0.500       N(1)  =     2000
   RHO(2)=  100.500       N(2)  =     4000
 


--------------------------------------------------------------------------------------------------------


 ion  position               nearest neighbor table
   1  0.250  0.097  0.131-   5 2.57   6 2.64   6 2.64
   2  0.750  0.597  0.369-   6 2.57   5 2.64   5 2.64
   3  0.750  0.903  0.869-   7 2.57   8 2.64   8 2.64
   4  0.250  0.403  0.631-   8 2.57   7 2.64   7 2.64
   5  0.250  0.010  0.359-   1 2.57   2 2.64   2 2.64
   6  0.750  0.510  0.141-   2 2.57   1 2.64   1 2.64
   7  0.750  0.990  0.641-   3 2.57   4 2.64   4 2.64
   8  0.250  0.490  0.859-   4 2.57   3 2.64   3 2.64
 

IMPORTANT INFORMATION: All symmetrisations will be switched off!
NOSYMM: (Re-)initialisation of all symmetry stuff for point group C_1.


----------------------------------------------------------------------------------------

                                     Primitive cell                                     

  volume of cell :     185.0166

  direct lattice vectors                    reciprocal lattice vectors
     4.050000000  0.000000000  0.000000000     0.246913580  0.000000000  0.000000000
     0.000000000  4.100000000  0.000000000     0.000000000  0.243902439  0.000000000
     0.000000000  0.000000000 11.142221000     0.000000000  0.000000000  0.089748713

  length of vectors
     4.050000000  4.100000000 11.142221000     0.246913580  0.243902439  0.089748713

  position of ions in fractional coordinates (direct lattice)
     0.250000000  0.096977075  0.130535315
     0.750000000  0.596977075  0.369464685
     0.750000000  0.903022925  0.869464685
     0.250000000  0.403022925  0.630535315
     0.250000000  0.010188680  0.359251771
     0.750000000  0.510188680  0.140748229
     0.750000000  0.989811320  0.640748229
     0.250000000  0.489811320  0.859251771

  ion indices of the primitive-cell ions
   primitive index   ion index
                 1           1
                 2           2
                 3           3
                 4           4
                 5           5
                 6           6
                 7           7
                 8           8

----------------------------------------------------------------------------------------

 
 
 KPOINTS: KPOINTS created by Atomic Simulation Env

Automatic generation of k-mesh.
 Grid dimensions read from file:
 generate k-points for:    6    6    2

 Generating k-lattice:

  Cartesian coordinates                     Fractional coordinates (reciprocal lattice)
     0.041152263  0.000000000  0.000000000     0.166666667  0.000000000  0.000000000
     0.000000000  0.040650407  0.000000000     0.000000000  0.166666667  0.000000000
     0.000000000  0.000000000  0.044874357     0.000000000  0.000000000  0.500000000

  Length of vectors
     0.041152263  0.040650407  0.044874357

  Shift w.r.t. Gamma in fractional coordinates (k-lattice)
     0.000000000  0.000000000  0.000000000

 
 Subroutine IBZKPT returns following result:
 ===========================================
 
 Found     40 irreducible k-points:
 
 Following reciprocal coordinates:
            Coordinates               Weight
  0.000000  0.000000  0.000000      1.000000
  0.166667  0.000000  0.000000      2.000000
  0.333333  0.000000  0.000000      2.000000
  0.500000  0.000000  0.000000      1.000000
  0.000000  0.166667  0.000000      2.000000
  0.166667  0.166667  0.000000      2.000000
  0.166667 -0.166667  0.000000      2.000000
  0.333333  0.166667  0.000000      2.000000
  0.333333 -0.166667  0.000000      2.000000
  0.500000  0.166667  0.000000      2.000000
  0.000000  0.333333  0.000000      2.000000
  0.166667  0.333333  0.000000      2.000000
  0.166667 -0.333333  0.000000      2.000000
  0.333333  0.333333  0.000000      2.000000
  0.333333 -0.333333  0.000000      2.000000
  0.500000  0.333333  0.000000      2.000000
  0.000000  0.500000  0.000000      1.000000
  0.166667  0.500000  0.000000      2.000000
  0.333333  0.500000  0.000000      2.000000
  0.500000  0.500000  0.000000      1.000000
  0.000000  0.000000  0.500000      1.000000
  0.166667  0.000000  0.500000      2.000000
  0.333333  0.000000  0.500000      2.000000
  0.500000  0.000000  0.500000      1.000000
  0.000000  0.166667  0.500000      2.000000
  0.166667  0.166667  0.500000      2.000000
  0.166667 -0.166667  0.500000      2.000000
  0.333333  0.166667  0.500000      2.000000
  0.333333 -0.166667  0.500000      2.000000
  0.500000  0.166667  0.500000      2.000000
  0.000000  0.333333  0.500000      2.000000
  0.166667  0.333333  0.500000      2.000000
  0.166667 -0.333333  0.500000      2.000000
  0.333333  0.333333  0.500000      2.000000
  0.333333 -0.333333  0.500000      2.000000
  0.500000  0.333333  0.500000      2.000000
  0.000000  0.500000  0.500000      1.000000
  0.166667  0.500000  0.500000      2.000000
  0.333333  0.500000  0.500000      2.000000
  0.500000  0.500000  0.500000      1.000000
 
 Following cartesian coordinates:
            Coordinates               Weight
  0.000000  0.000000  0.000000      1.000000
  0.041152  0.000000  0.000000      2.000000
  0.082305  0.000000  0.000000      2.000000
  0.123457  0.000000  0.000000      1.000000
  0.000000  0.040650  0.000000      2.000000
  0.041152  0.040650  0.000000      2.000000
  0.041152 -0.040650  0.000000      2.000000
  0.082305  0.040650  0.000000      2.000000
  0.082305 -0.040650  0.000000      2.000000
  0.123457  0.040650  0.000000      2.000000
  0.000000  0.081301  0.000000      2.000000
  0.041152  0.081301  0.000000      2.000000
  0.041152 -0.081301  0.000000      2.000000
  0.082305  0.081301  0.000000      2.000000
  0.082305 -0.081301  0.000000      2.000000
  0.123457  0.081301  0.000000      2.000000
  0.000000  0.121951  0.000000      1.000000
  0.041152  0.121951  0.000000      2.000000
  0.082305  0.121951  0.000000      2.000000
  0.123457  0.121951  0.000000      1.000000
  0.000000  0.000000  0.044874      1.000000
  0.041152  0.000000  0.044874      2.000000
  0.082305  0.000000  0.044874      2.000000
  0.123457  0.000000  0.044874      1.000000
  0.000000  0.040650  0.044874      2.000000
  0.041152  0.040650  0.044874      2.000000
  0.041152 -0.040650  0.044874      2.000000
  0.082305  0.040650  0.044874      2.000000
  0.082305 -0.040650  0.044874      2.000000
  0.123457  0.040650  0.044874      2.000000
  0.000000  0.081301  0.044874      2.000000
  0.041152  0.081301  0.044874      2.000000
  0.041152 -0.081301  0.044874      2.000000
  0.082305  0.081301  0.044874      2.000000
  0.082305 -0.081301  0.044874      2.000000
  0.123457  0.081301  0.044874      2.000000
  0.000000  0.121951  0.044874      1.000000
  0.041152  0.121951  0.044874      2.000000
  0.082305  0.121951  0.044874      2.000000
  0.123457  0.121951  0.044874      1.000000
 


--------------------------------------------------------------------------------------------------------




 Dimension of arrays:
   k-points           NKPTS =     40   k-points in BZ     NKDIM =     40   number of bands    NBANDS=     32
   number of dos      NEDOS =    301   number of ions     NIONS =      8
   non local maximal  LDIM  =      5   non local SUM 2l+1 LMDIM =     13
   total plane-waves  NPLWV =  21600
   max r-space proj   IRMAX =      1   max aug-charges    IRDMAX=   6544
   dimension x,y,z NGX =    20 NGY =   20 NGZ =   54
   dimension x,y,z NGXF=    40 NGYF=   40 NGZF=  108
   support grid    NGXF=    40 NGYF=   40 NGZF=  108
   ions per type =               4   4
   NGX,Y,Z   is equivalent  to a cutoff of   8.21,  8.11,  8.06 a.u.
   NGXF,Y,Z  is equivalent  to a cutoff of  16.42, 16.22, 16.11 a.u.

 SYSTEM =  ./                                      
 POSCAR =  Ge Se                                   

 Startparameter for this run:
   NWRITE =      2    write-flag & timer
   PREC   = normal    normal or accurate (medium, high low for compatibility)
   ISTART =      0    job   : 0-new  1-cont  2-samecut
   ICHARG =      2    charge: 1-file 2-atom 10-const
   ISPIN  =      1    spin polarized calculation?
   LNONCOLLINEAR =      F non collinear calculations
   LSORBIT =      F    spin-orbit coupling
   INIWAV =      1    electr: 0-lowe 1-rand  2-diag
   LASPH  =      T    aspherical Exc in radial PAW
 Electronic Relaxation 1
   ENCUT  =  360.0 eV  26.46 Ry    5.14 a.u.   6.27  6.34 17.24*2*pi/ulx,y,z
   ENINI  =  360.0     initial cutoff
   ENAUG  =  446.8 eV  augmentation charge cutoff
   NELM   =    100;   NELMIN=  2; NELMDL= -5     # of ELM steps 
   EDIFF  = 0.1E-05   stopping-criterion for ELM
   LREAL  =      F    real-space projection
   NLSPLINE    = F    spline interpolate recip. space projectors
   LCOMPAT=      F    compatible to vasp.4.4
   GGA_COMPAT  = T    GGA compatible to vasp.4.4-vasp.4.6
   LMAXPAW     = -100 max onsite density
   LMAXMIX     =    4 max onsite mixed and CHGCAR
   VOSKOWN=      0    Vosko Wilk Nusair interpolation
   ROPT   =    0.00000   0.00000
 Ionic relaxation
   EDIFFG = 0.1E-04   stopping-criterion for IOM
   NSW    =      0    number of steps for IOM
   NBLOCK =      1;   KBLOCK =      1    inner block; outer block 
   IBRION =     -1    ionic relax: 0-MD 1-quasi-New 2-CG
   NFREE  =      0    steps in history (QN), initial steepest desc. (CG)
   ISIF   =      2    stress and relaxation
   IWAVPR =     10    prediction:  0-non 1-charg 2-wave 3-comb
   ISYM   =      0    0-nonsym 1-usesym 2-fastsym
   LCORR  =      T    Harris-Foulkes like correction to forces

   POTIM  = 0.5000    time-step for ionic-motion
   TEIN   =    0.0    initial temperature
   TEBEG  =    0.0;   TEEND  =   0.0 temperature during run
   SMASS  =  -3.00    Nose mass-parameter (am)
   estimated Nose-frequenzy (Omega)   =  0.10E-29 period in steps = 0.13E+47 mass=  -0.375E-27a.u.
   SCALEE = 1.0000    scale energy and forces
   NPACO  =    256;   APACO  = 10.0  distance and # of slots for P.C.
   PSTRESS=    0.0 pullay stress

  Mass of Ions in am
   POMASS =  72.61 78.96
  Ionic Valenz
   ZVAL   =   4.00  6.00
  Atomic Wigner-Seitz radii
   RWIGS  =  -1.00 -1.00
  virtual crystal weights 
   VCA    =   1.00  1.00
   NELECT =      40.0000    total number of electrons
   NUPDOWN=      -1.0000    fix difference up-down

 DOS related values:
   EMIN   =  10.00;   EMAX   =-10.00  energy-range for DOS
   EFERMI =   0.00;   METHOD = LEGACY      
   ISMEAR =     0;   SIGMA  =   0.05  broadening in eV -4-tet -1-fermi 0-gaus

 Electronic relaxation 2 (details)
   IALGO  =     38    algorithm
   LDIAG  =      T    sub-space diagonalisation (order eigenvalues)
   LSUBROT=      F    optimize rotation matrix (better conditioning)
   TURBO    =      0    0=normal 1=particle mesh
   IRESTART =      0    0=no restart 2=restart with 2 vectors
   NREBOOT  =      0    no. of reboots
   NMIN     =      0    reboot dimension
   EREF     =   0.00    reference energy to select bands
   IMIX   =      4    mixing-type and parameters
     AMIX     =   0.40;   BMIX     =  1.00
     AMIX_MAG =   1.60;   BMIX_MAG =  1.00
     AMIN     =   0.10
     WC   =   100.;   INIMIX=   1;  MIXPRE=   1;  MAXMIX= -45

 Intra band minimization:
   WEIMIN = 0.0000     energy-eigenvalue tresh-hold
   EBREAK =  0.78E-08  absolut break condition
   DEPER  =   0.30     relativ break condition  

   TIME   =   0.40     timestep for ELM

  volume/ion in A,a.u.               =      23.13       156.07
  Fermi-wavevector in a.u.,A,eV,Ry     =   0.982557  1.856764 13.135324  0.965419
  Thomas-Fermi vector in A             =   2.113649
 
 Write flags
   LWAVE        =      F    write WAVECAR
   LDOWNSAMPLE  =      F    k-point downsampling of WAVECAR
   LCHARG       =      F    write CHGCAR
   LVTOT        =      F    write LOCPOT, total local potential
   LVHAR        =      F    write LOCPOT, Hartree potential only
   LELF         =      F    write electronic localiz. function (ELF)
   LORBIT       =      0    0 simple, 1 ext, 2 COOP (PROOUT), +10 PAW based schemes


 Dipole corrections
   LMONO  =      F    monopole corrections only (constant potential shift)
   LDIPOL =      F    correct potential (dipole corrections)
   IDIPOL =      0    1-x, 2-y, 3-z, 4-all directions 
   EPSILON=  1.0000000 bulk dielectric constant

 Exchange correlation treatment:
   GGA     =    PE    GGA type
   LEXCH   =     8    internal setting for exchange type
   LIBXC   =     F    Libxc                    
   VOSKOWN =     0    Vosko Wilk Nusair interpolation
   LHFCALC =     F    Hartree Fock is set to
   LHFONE  =     F    Hartree Fock one center treatment
   AEXX    =    0.0000 exact exchange contribution

 Linear response parameters
   LEPSILON=     F    determine dielectric tensor
   LRPA    =     F    only Hartree local field effects (RPA)
   LNABLA  =     F    use nabla operator in PAW spheres
   LVEL    =     F    velocity operator in full k-point grid
   CSHIFT  =0.1000    complex shift for real part using Kramers Kronig
   OMEGAMAX=  -1.0    maximum frequency
   DEG_THRESHOLD= 0.2000000E-02 threshold for treating states as degnerate
   RTIME   =   -0.100 relaxation time in fs
  (WPLASMAI=    0.000 imaginary part of plasma frequency in eV, 0.658/RTIME)
   DFIELD  = 0.0000000 0.0000000 0.0000000 field for delta impulse in time
 
  Optional k-point grid parameters
   LKPOINTS_OPT  =     F    use optional k-point grid
   KPOINTS_OPT_MODE=     1    mode for optional k-point grid
 
 Orbital magnetization related:
   ORBITALMAG=     F  switch on orbital magnetization
   LCHIMAG   =     F  perturbation theory with respect to B field
   DQ        =  0.001000  dq finite difference perturbation B field
   LLRAUG    =     F  two centre corrections for induced B field
   LBONE     =     F  B-component reconstruction in AE one-centre
   LVGVCALC  =     T  calculate vGv susceptibility
   LVGVAPPL  =     F  apply vGv susceptibility instead of pGv for G=0

 Random number generation:
   RANDOM_GENERATOR = DEFAULT
   PCG_SEED         = not used


--------------------------------------------------------------------------------------------------------


 Static calculation
 charge density and potential will be updated during run
 non-spin polarized calculation
 Variant of blocked Davidson
 Davidson routine will perform the subspace rotation
 perform sub-space diagonalisation
    after iterative eigenvector-optimisation
 modified Broyden-mixing scheme, WC =      100.0
 initial mixing is a Kerker type mixing with AMIX =  0.4000 and BMIX =      1.0000
 Hartree-type preconditioning will be used
 using additional bands            12
 reciprocal scheme for non local part
 use partial core corrections
 calculate Harris-corrections to forces 
   (improved forces if not selfconsistent)
 use gradient corrections 
 use of overlap-Matrix (Vanderbilt PP)
 Gauss-broadening in eV      SIGMA  =   0.05


--------------------------------------------------------------------------------------------------------


  energy-cutoff  :      360.00
  volume of cell :      185.02
      direct lattice vectors                 reciprocal lattice vectors
     4.050000000  0.000000000  0.000000000     0.246913580  0.000000000  0.000000000
     0.000000000  4.100000000  0.000000000     0.000000000  0.243902439  0.000000000
     0.000000000  0.000000000 11.142221000     0.000000000  0.000000000  0.089748713

  length of vectors
     4.050000000  4.100000000 11.142221000     0.246913580  0.243902439  0.089748713


 
 k-points in units of 2pi/SCALE and weight: KPOINTS created by Atomic Simulation Env
   0.00000000  0.00000000  0.00000000       0.014
   0.04115226  0.00000000  0.00000000       0.028
   0.08230453  0.00000000  0.00000000       0.028
   0.12345679  0.00000000  0.00000000       0.014
   0.00000000  0.04065041  0.00000000       0.028
   0.04115226  0.04065041  0.00000000       0.028
   0.04115226 -0.04065041  0.00000000       0.028
   0.08230453  0.04065041  0.00000000       0.028
   0.08230453 -0.04065041  0.00000000       0.028
   0.12345679  0.04065041  0.00000000       0.028
   0.00000000  0.08130081  0.00000000       0.028
   0.04115226  0.08130081  0.00000000       0.028
   0.04115226 -0.08130081  0.00000000       0.028
   0.08230453  0.08130081  0.00000000       0.028
   0.08230453 -0.08130081  0.00000000       0.028
   0.12345679  0.08130081  0.00000000       0.028
   0.00000000  0.12195122  0.00000000       0.014
   0.04115226  0.12195122  0.00000000       0.028
   0.08230453  0.12195122  0.00000000       0.028
   0.12345679  0.12195122  0.00000000       0.014
   0.00000000  0.00000000  0.04487436       0.014
   0.04115226  0.00000000  0.04487436       0.028
   0.08230453  0.00000000  0.04487436       0.028
   0.12345679  0.00000000  0.04487436       0.014
   0.00000000  0.04065041  0.04487436       0.028
   0.04115226  0.04065041  0.04487436       0.028
   0.04115226 -0.04065041  0.04487436       0.028
   0.08230453  0.04065041  0.04487436       0.028
   0.08230453 -0.04065041  0.04487436       0.028
   0.12345679  0.04065041  0.04487436       0.028
   0.00000000  0.08130081  0.04487436       0.028
   0.04115226  0.08130081  0.04487436       0.028
   0.04115226 -0.08130081  0.04487436       0.028
   0.08230453  0.08130081  0.04487436       0.028
   0.08230453 -0.08130081  0.04487436       0.028
   0.12345679  0.08130081  0.04487436       0.028
   0.00000000  0.12195122  0.04487436       0.014
   0.04115226  0.12195122  0.04487436       0.028
   0.08230453  0.12195122  0.04487436       0.028
   0.12345679  0.12195122  0.04487436       0.014
 
 k-points in reciprocal lattice and weights: KPOINTS created by Atomic Simulation Env
   0.00000000  0.00000000  0.00000000       0.014
   0.16666667  0.00000000  0.00000000       0.028
   0.33333333  0.00000000  0.00000000       0.028
   0.50000000  0.00000000  0.00000000       0.014
   0.00000000  0.16666667  0.00000000       0.028
   0.16666667  0.16666667  0.00000000       0.028
   0.16666667 -0.16666667  0.00000000       0.028
   0.33333333  0.16666667  0.00000000       0.028
   0.33333333 -0.16666667  0.00000000       0.028
   0.50000000  0.16666667  0.00000000       0.028
   0.00000000  0.33333333  0.00000000       0.028
   0.16666667  0.33333333  0.00000000       0.028
   0.16666667 -0.33333333  0.00000000       0.028
   0.33333333  0.33333333  0.00000000       0.028
   0.33333333 -0.33333333  0.00000000       0.028
   0.50000000  0.33333333  0.00000000       0.028
   0.00000000  0.50000000  0.00000000       0.014
   0.16666667  0.50000000  0.00000000       0.028
   0.33333333  0.50000000  0.00000000       0.028
   0.50000000  0.50000000  0.00000000       0.014
   0.00000000  0.00000000  0.50000000       0.014
   0.16666667  0.00000000  0.50000000       0.028
   0.33333333  0.00000000  0.50000000       0.028
   0.50000000  0.00000000  0.50000000       0.014
   0.00000000  0.16666667  0.50000000       0.028
   0.16666667  0.16666667  0.50000000       0.028
   0.16666667 -0.16666667  0.50000000       0.028
   0.33333333  0.16666667  0.50000000       0.028
   0.33333333 -0.16666667  0.50000000       0.028
   0.50000000  0.16666667  0.50000000       0.028
   0.00000000  0.33333333  0.50000000       0.028
   0.16666667  0.33333333  0.50000000       0.028
   0.16666667 -0.33333333  0.50000000       0.028
   0.33333333  0.33333333  0.50000000       0.028
   0.33333333 -0.33333333  0.50000000       0.028
   0.50000000  0.33333333  0.50000000       0.028
   0.00000000  0.50000000  0.50000000       0.014
   0.16666667  0.50000000  0.50000000       0.028
   0.33333333  0.50000000  0.50000000       0.028
   0.50000000  0.50000000  0.50000000       0.014
 
 position of ions in fractional coordinates (direct lattice) 
   0.25000000  0.09697708  0.13053532
   0.75000000  0.59697708  0.36946468
   0.75000000  0.90302292  0.86946468
   0.25000000  0.40302292  0.63053532
   0.25000000  0.01018868  0.35925177
   0.75000000  0.51018868  0.14074823
   0.75000000  0.98981132  0.64074823
   0.25000000  0.48981132  0.85925177
 
 position of ions in cartesian coordinates  (Angst):
   1.01250000  0.39760601  1.45445333
   3.03750000  2.44760601  4.11665717
   3.03750000  3.70239399  9.68776767
   1.01250000  1.65239399  7.02556383
   1.01250000  0.04177359  4.00286263
   3.03750000  2.09177359  1.56824787
   3.03750000  4.05822641  7.13935837
   1.01250000  2.00822641  9.57397313
 


--------------------------------------------------------------------------------------------------------


 k-point   1 :   0.0000 0.0000 0.0000  plane waves:    2875
 k-point   2 :   0.1667 0.0000 0.0000  plane waves:    2885
 k-point   3 :   0.3333 0.0000 0.0000  plane waves:    2886
 k-point   4 :   0.5000 0.0000 0.0000  plane waves:    2884
 k-point   5 :   0.0000 0.1667 0.0000  plane waves:    2857
 k-point   6 :   0.1667 0.1667 0.0000  plane waves:    2870
 k-point   7 :   0.1667-0.1667 0.0000  plane waves:    2870
 k-point   8 :   0.3333 0.1667 0.0000  plane waves:    2865
 k-point   9 :   0.3333-0.1667 0.0000  plane waves:    2865
 k-point  10 :   0.5000 0.1667 0.0000  plane waves:    2860
 k-point  11 :   0.0000 0.3333 0.0000  plane waves:    2883
 k-point  12 :   0.1667 0.3333 0.0000  plane waves:    2868
 k-point  13 :   0.1667-0.3333 0.0000  plane waves:    2868
 k-point  14 :   0.3333 0.3333 0.0000  plane waves:    2855
 k-point  15 :   0.3333-0.3333 0.0000  plane waves:    2855
 k-point  16 :   0.5000 0.3333 0.0000  plane waves:    2866
 k-point  17 :   0.0000 0.5000 0.0000  plane waves:    2880
 k-point  18 :   0.1667 0.5000 0.0000  plane waves:    2868
 k-point  19 :   0.3333 0.5000 0.0000  plane waves:    2870
 k-point  20 :   0.5000 0.5000 0.0000  plane waves:    2872
 k-point  21 :   0.0000 0.0000 0.5000  plane waves:    2850
 k-point  22 :   0.1667 0.0000 0.5000  plane waves:    2864
 k-point  23 :   0.3333 0.0000 0.5000  plane waves:    2882
 k-point  24 :   0.5000 0.0000 0.5000  plane waves:    2896
 k-point  25 :   0.0000 0.1667 0.5000  plane waves:    2870
 k-point  26 :   0.1667 0.1667 0.5000  plane waves:    2876
 k-point  27 :   0.1667-0.1667 0.5000  plane waves:    2876
 k-point  28 :   0.3333 0.1667 0.5000  plane waves:    2872
 k-point  29 :   0.3333-0.1667 0.5000  plane waves:    2872
 k-point  30 :   0.5000 0.1667 0.5000  plane waves:    2872
 k-point  31 :   0.0000 0.3333 0.5000  plane waves:    2868
 k-point  32 :   0.1667 0.3333 0.5000  plane waves:    2864
 k-point  33 :   0.1667-0.3333 0.5000  plane waves:    2864
 k-point  34 :   0.3333 0.3333 0.5000  plane waves:    2866
 k-point  35 :   0.3333-0.3333 0.5000  plane waves:    2866
 k-point  36 :   0.5000 0.3333 0.5000  plane waves:    2864
 k-point  37 :   0.0000 0.5000 0.5000  plane waves:    2900
 k-point  38 :   0.1667 0.5000 0.5000  plane waves:    2872
 k-point  39 :   0.3333 0.5000 0.5000  plane waves:    2852
 k-point  40 :   0.5000 0.5000 0.5000  plane waves:    2856

 maximum and minimum number of plane-waves per node :       741      692

 maximum number of plane-waves:      2900
 maximum index in each direction: 
   IXMAX=    6   IYMAX=    6   IZMAX=   17
   IXMIN=   -6   IYMIN=   -6   IZMIN=  -17


 parallel 3D FFT for wavefunctions:
    minimum data exchange during FFTs selected (reduces bandwidth)
 parallel 3D FFT for charge:
    minimum data exchange during FFTs selected (reduces bandwidth)


 total amount of memory used by VASP MPI-rank0    38153. kBytes
=======================================================================

   base      :      30000. kBytes
   nonl-proj :       6352. kBytes
   fftplans  :        320. kBytes
   grid      :        462. kBytes
   one-center:         16. kBytes
   wavefun   :       1003. kBytes
 
     INWAV:  cpu time      0.0000: real time      0.0001
 Broyden mixing: mesh for mixing (old mesh)
   NGX = 13   NGY = 13   NGZ = 35
  (NGX  = 40   NGY  = 40   NGZ  =108)
  gives a total of   5915 points

 initial charge density was supplied:
 charge density of overlapping atoms calculated
 number of electron      40.0000000 magnetization 
 keeping initial charge density in first step


--------------------------------------------------------------------------------------------------------


 Maximum index for augmentation-charges            98 (set IRDMAX)


--------------------------------------------------------------------------------------------------------


 First call to EWALD:  gamma=   0.311
 Maximum number of real-space cells 4x 4x 2
 Maximum number of reciprocal cells 2x 2x 5

    FEWALD:  cpu time      0.0010: real time      0.0010


--------------------------------------- Ionic step        1  -------------------------------------------




--------------------------------------- Iteration      1(   1)  ---------------------------------------


    POTLOK:  cpu time      0.0062: real time      0.0065
    SETDIJ:  cpu time      0.1373: real time      0.1378
     EDDAV:  cpu time      0.2797: real time      0.2825
       DOS:  cpu time      0.0022: real time      0.0022
    --------------------------------------------
      LOOP:  cpu time      0.4254: real time      0.4290

 eigenvalue-minimisations  :  2560
 total energy-change (2. order) : 0.1289139E+03  (-0.1301144E+04)
 number of electron      40.0000000 magnetization 
 augmentation part       40.0000000 magnetization 

 Free energy of the ion-electron system (eV)
  ---------------------------------------------------
  alpha Z        PSCENC =        91.58338927
  Ewald energy   TEWEN  =     -1452.13567316
  -Hartree energ DENC   =      -114.09548315
  -exchange      EXHF   =         0.00000000
  -V(xc)+E(xc)   XCENC  =       -32.95587615
  PAW double counting   =      1193.78262552    -1080.73714043
  entropy T*S    EENTRO =        -0.00379948
  eigenvalues    EBANDS =        74.99122493
  atomic energy  EATOM  =      1448.48460880
  Solvation  Ediel_sol  =         0.00000000
  ---------------------------------------------------
  free energy    TOTEN  =       128.91387616 eV

  energy without entropy =      128.91767563  energy(sigma->0) =      128.91577590


--------------------------------------------------------------------------------------------------------




--------------------------------------- Iteration      1(   2)  ---------------------------------------


     EDDAV:  cpu time      0.3298: real time      0.3329
       DOS:  cpu time      0.0006: real time      0.0006
    --------------------------------------------
      LOOP:  cpu time      0.3304: real time      0.3335

 eigenvalue-minimisations  :  3776
 total energy-change (2. order) :-0.1549168E+03  (-0.1507432E+03)
 number of electron      40.0000000 magnetization 
 augmentation part       40.0000000 magnetization 

 Free energy of the ion-electron system (eV)
  ---------------------------------------------------
  alpha Z        PSCENC =        91.58338927
  Ewald energy   TEWEN  =     -1452.13567316
  -Hartree energ DENC   =      -114.09548315
  -exchange      EXHF   =         0.00000000
  -V(xc)+E(xc)   XCENC  =       -32.95587615
  PAW double counting   =      1193.78262552    -1080.73714043
  entropy T*S    EENTRO =        -0.00000000
  eigenvalues    EBANDS =       -79.92935007
  atomic energy  EATOM  =      1448.48460880
  Solvation  Ediel_sol  =         0.00000000
  ---------------------------------------------------
  free energy    TOTEN  =       -26.00289936 eV

  energy without entropy =      -26.00289936  energy(sigma->0) =      -26.00289936


--------------------------------------------------------------------------------------------------------




--------------------------------------- Iteration      1(   3)  ---------------------------------------


     EDDAV:  cpu time      0.2978: real time      0.3012
       DOS:  cpu time      0.0005: real time      0.0005
    --------------------------------------------
      LOOP:  cpu time      0.2983: real time      0.3017

 eigenvalue-minimisations  :  3136
 total energy-change (2. order) :-0.8052617E+01  (-0.8038722E+01)
 number of electron      40.0000000 magnetization 
 augmentation part       40.0000000 magnetization 

 Free energy of the ion-electron system (eV)
  ---------------------------------------------------
  alpha Z        PSCENC =        91.58338927
  Ewald energy   TEWEN  =     -1452.13567316
  -Hartree energ DENC   =      -114.09548315
  -exchange      EXHF   =         0.00000000
  -V(xc)+E(xc)   XCENC  =       -32.95587615
  PAW double counting   =      1193.78262552    -1080.73714043
  entropy T*S    EENTRO =        -0.00000000
  eigenvalues    EBANDS =       -87.98196726
  atomic energy  EATOM  =      1448.48460880
  Solvation  Ediel_sol  =         0.00000000
  ---------------------------------------------------
  free energy    TOTEN  =       -34.05551656 eV

  energy without entropy =      -34.05551656  energy(sigma->0) =      -34.05551656


--------------------------------------------------------------------------------------------------------




--------------------------------------- Iteration      1(   4)  ---------------------------------------


     EDDAV:  cpu time      0.3022: real time      0.3053
       DOS:  cpu time      0.0005: real time      0.0005
    --------------------------------------------
      LOOP:  cpu time      0.3028: real time      0.3059

 eigenvalue-minimisations  :  3232
 total energy-change (2. order) :-0.5091145E-01  (-0.5090265E-01)
 number of electron      40.0000000 magnetization 
 augmentation part       40.0000000 magnetization 

 Free energy of the ion-electron system (eV)
  ---------------------------------------------------
  alpha Z        PSCENC =        91.58338927
  Ewald energy   TEWEN  =     -1452.13567316
  -Hartree energ DENC   =      -114.09548315
  -exchange      EXHF   =         0.00000000
  -V(xc)+E(xc)   XCENC  =       -32.95587615
  PAW double counting   =      1193.78262552    -1080.73714043
  entropy T*S    EENTRO =        -0.00000000
  eigenvalues    EBANDS =       -88.03287871
  atomic energy  EATOM  =      1448.48460880
  Solvation  Ediel_sol  =         0.00000000
  ---------------------------------------------------
  free energy    TOTEN  =       -34.10642801 eV

  energy without entropy =      -34.10642801  energy(sigma->0) =      -34.10642801


--------------------------------------------------------------------------------------------------------




--------------------------------------- Iteration      1(   5)  ---------------------------------------


     EDDAV:  cpu time      0.3027: real time      0.3060
       DOS:  cpu time      0.0005: real time      0.0006
    CHARGE:  cpu time      0.0047: real time      0.0047
    MIXING:  cpu time      0.0007: real time      0.0007
    --------------------------------------------
      LOOP:  cpu time      0.3086: real time      0.3120

 eigenvalue-minimisations  :  3168
 total energy-change (2. order) :-0.2998711E-03  (-0.2998480E-03)
 number of electron      39.9999997 magnetization 
 augmentation part       -7.4181283 magnetization 

 Broyden mixing:
  rms(total) = 0.64920E+00    rms(broyden)= 0.64919E+00
  rms(prec ) = 0.72772E+00
  weight for this iteration     100.00

 Free energy of the ion-electron system (eV)
  ---------------------------------------------------
  alpha Z        PSCENC =        91.58338927
  Ewald energy   TEWEN  =     -1452.13567316
  -Hartree energ DENC   =      -114.09548315
  -exchange      EXHF   =         0.00000000
  -V(xc)+E(xc)   XCENC  =       -32.95587615
  PAW double counting   =      1193.78262552    -1080.73714043
  entropy T*S    EENTRO =        -0.00000000
  eigenvalues    EBANDS =       -88.03317858
  atomic energy  EATOM  =      1448.48460880
  Solvation  Ediel_sol  =         0.00000000
  ---------------------------------------------------
  free energy    TOTEN  =       -34.10672788 eV

  energy without entropy =      -34.10672788  energy(sigma->0) =      -34.10672788


--------------------------------------------------------------------------------------------------------




--------------------------------------- Iteration      1(   6)  ---------------------------------------


    POTLOK:  cpu time      0.0053: real time      0.0055
    SETDIJ:  cpu time      0.1376: real time      0.1383
     EDDAV:  cpu time      0.3085: real time      0.3119
       DOS:  cpu time      0.0009: real time      0.0009
    CHARGE:  cpu time      0.0048: real time      0.0048
    MIXING:  cpu time      0.0005: real time      0.0005
    --------------------------------------------
      LOOP:  cpu time      0.4577: real time      0.4621

 eigenvalue-minimisations  :  3168
 total energy-change (2. order) : 0.3797894E+00  (-0.7541758E-01)
 number of electron      39.9999996 magnetization 
 augmentation part       -7.3651280 magnetization 

 Broyden mixing:
  rms(total) = 0.40589E+00    rms(broyden)= 0.40589E+00
  rms(prec ) = 0.42444E+00
  weight for this iteration     100.00

 eigenvalues of (default mixing * dielectric matrix)
  average eigenvalue GAMMA=   2.2107
  2.2107

 Free energy of the ion-electron system (eV)
  ---------------------------------------------------
  alpha Z        PSCENC =        91.58338927
  Ewald energy   TEWEN  =     -1452.13567316
  -Hartree energ DENC   =      -119.54019405
  -exchange      EXHF   =         0.00000000
  -V(xc)+E(xc)   XCENC  =       -32.39135883
  PAW double counting   =      1457.73986955    -1345.00606565
  entropy T*S    EENTRO =        -0.00000000
  eigenvalues    EBANDS =       -82.46151439
  atomic energy  EATOM  =      1448.48460880
  Solvation  Ediel_sol  =         0.00000000
  ---------------------------------------------------
  free energy    TOTEN  =       -33.72693846 eV

  energy without entropy =      -33.72693846  energy(sigma->0) =      -33.72693846


--------------------------------------------------------------------------------------------------------




--------------------------------------- Iteration      1(   7)  ---------------------------------------


    POTLOK:  cpu time      0.0085: real time      0.0087
    SETDIJ:  cpu time      0.1375: real time      0.1383
     EDDAV:  cpu time      0.3101: real time      0.3134
       DOS:  cpu time      0.0006: real time      0.0006
    CHARGE:  cpu time      0.0044: real time      0.0044
    MIXING:  cpu time      0.0005: real time      0.0005
    --------------------------------------------
      LOOP:  cpu time      0.4617: real time      0.4659

 eigenvalue-minimisations  :  3344
 total energy-change (2. order) : 0.5390722E-02  (-0.2441735E-01)
 number of electron      39.9999995 magnetization 
 augmentation part       -7.3522295 magnetization 

 Broyden mixing:
  rms(total) = 0.12537E+00    rms(broyden)= 0.12537E+00
  rms(prec ) = 0.13362E+00
  weight for this iteration     100.00

 eigenvalues of (default mixing * dielectric matrix)
  average eigenvalue GAMMA=   1.8112
  1.2456  2.3768

 Free energy of the ion-electron system (eV)
  ---------------------------------------------------
  alpha Z        PSCENC =        91.58338927
  Ewald energy   TEWEN  =     -1452.13567316
  -Hartree energ DENC   =      -121.96206512
  -exchange      EXHF   =         0.00000000
  -V(xc)+E(xc)   XCENC  =       -31.95571742
  PAW double counting   =      1790.54262646    -1678.04928276
  entropy T*S    EENTRO =        -0.00000000
  eigenvalues    EBANDS =       -80.22943381
  atomic energy  EATOM  =      1448.48460880
  Solvation  Ediel_sol  =         0.00000000
  ---------------------------------------------------
  free energy    TOTEN  =       -33.72154774 eV

  energy without entropy =      -33.72154774  energy(sigma->0) =      -33.72154774


--------------------------------------------------------------------------------------------------------




--------------------------------------- Iteration      1(   8)  ---------------------------------------


    POTLOK:  cpu time      0.0052: real time      0.0054
    SETDIJ:  cpu time      0.1372: real time      0.1379
     EDDAV:  cpu time      0.2892: real time      0.2924
       DOS:  cpu time      0.0006: real time      0.0006
    CHARGE:  cpu time      0.0043: real time      0.0043
    MIXING:  cpu time      0.0005: real time      0.0005
    --------------------------------------------
      LOOP:  cpu time      0.4371: real time      0.4412

 eigenvalue-minimisations  :  3040
 total energy-change (2. order) : 0.2401692E-02  (-0.2871075E-02)
 number of electron      39.9999996 magnetization 
 augmentation part       -7.3632301 magnetization 

 Broyden mixing:
  rms(total) = 0.16974E-01    rms(broyden)= 0.16974E-01
  rms(prec ) = 0.20643E-01
  weight for this iteration     100.00

 eigenvalues of (default mixing * dielectric matrix)
  average eigenvalue GAMMA=   1.7144
  2.5251  1.3090  1.3090

 Free energy of the ion-electron system (eV)
  ---------------------------------------------------
  alpha Z        PSCENC =        91.58338927
  Ewald energy   TEWEN  =     -1452.13567316
  -Hartree energ DENC   =      -121.66400264
  -exchange      EXHF   =         0.00000000
  -V(xc)+E(xc)   XCENC  =       -31.86102222
  PAW double counting   =      1920.45104713    -1808.00936424
  entropy T*S    EENTRO =        -0.00000000
  eigenvalues    EBANDS =       -80.56812899
  atomic energy  EATOM  =      1448.48460880
  Solvation  Ediel_sol  =         0.00000000
  ---------------------------------------------------
  free energy    TOTEN  =       -33.71914605 eV

  energy without entropy =      -33.71914605  energy(sigma->0) =      -33.71914605


--------------------------------------------------------------------------------------------------------




--------------------------------------- Iteration      1(   9)  ---------------------------------------


    POTLOK:  cpu time      0.0052: real time      0.0054
    SETDIJ:  cpu time      0.1370: real time      0.1378
     EDDAV:  cpu time      0.2991: real time      0.3022
       DOS:  cpu time      0.0006: real time      0.0006
    CHARGE:  cpu time      0.0041: real time      0.0041
    MIXING:  cpu time      0.0007: real time      0.0007
    --------------------------------------------
      LOOP:  cpu time      0.4468: real time      0.4508

 eigenvalue-minimisations  :  3168
 total energy-change (2. order) :-0.1778666E-03  (-0.3373431E-03)
 number of electron      39.9999996 magnetization 
 augmentation part       -7.3613015 magnetization 

 Broyden mixing:
  rms(total) = 0.63822E-02    rms(broyden)= 0.63822E-02
  rms(prec ) = 0.70753E-02
  weight for this iteration     100.00

 eigenvalues of (default mixing * dielectric matrix)
  average eigenvalue GAMMA=   1.7535
  2.3204  2.3204  1.1866  1.1866

 Free energy of the ion-electron system (eV)
  ---------------------------------------------------
  alpha Z        PSCENC =        91.58338927
  Ewald energy   TEWEN  =     -1452.13567316
  -Hartree energ DENC   =      -122.03013054
  -exchange      EXHF   =         0.00000000
  -V(xc)+E(xc)   XCENC  =       -31.82102031
  PAW double counting   =      1935.14609179    -1822.71700255
  entropy T*S    EENTRO =        -0.00000000
  eigenvalues    EBANDS =       -80.22958721
  atomic energy  EATOM  =      1448.48460880
  Solvation  Ediel_sol  =         0.00000000
  ---------------------------------------------------
  free energy    TOTEN  =       -33.71932391 eV

  energy without entropy =      -33.71932391  energy(sigma->0) =      -33.71932391


--------------------------------------------------------------------------------------------------------




--------------------------------------- Iteration      1(  10)  ---------------------------------------


    POTLOK:  cpu time      0.0048: real time      0.0050
    SETDIJ:  cpu time      0.1375: real time      0.1380
     EDDAV:  cpu time      0.2193: real time      0.2203
       DOS:  cpu time      0.0003: real time      0.0003
    CHARGE:  cpu time      0.0035: real time      0.0035
    MIXING:  cpu time      0.0003: real time      0.0003
    --------------------------------------------
      LOOP:  cpu time      0.3657: real time      0.3674

 eigenvalue-minimisations  :  3088
 total energy-change (2. order) :-0.3353011E-04  (-0.2254469E-04)
 number of electron      39.9999996 magnetization 
 augmentation part       -7.3613502 magnetization 

 Broyden mixing:
  rms(total) = 0.23891E-02    rms(broyden)= 0.23891E-02
  rms(prec ) = 0.27870E-02
  weight for this iteration     100.00

 eigenvalues of (default mixing * dielectric matrix)
  average eigenvalue GAMMA=   1.7683
  2.7796  2.4797  1.1462  1.2181  1.2181

 Free energy of the ion-electron system (eV)
  ---------------------------------------------------
  alpha Z        PSCENC =        91.58338927
  Ewald energy   TEWEN  =     -1452.13567316
  -Hartree energ DENC   =      -122.03480672
  -exchange      EXHF   =         0.00000000
  -V(xc)+E(xc)   XCENC  =       -31.82165340
  PAW double counting   =      1927.50420376    -1815.06951964
  entropy T*S    EENTRO =        -0.00000000
  eigenvalues    EBANDS =       -80.22990635
  atomic energy  EATOM  =      1448.48460880
  Solvation  Ediel_sol  =         0.00000000
  ---------------------------------------------------
  free energy    TOTEN  =       -33.71935744 eV

  energy without entropy =      -33.71935744  energy(sigma->0) =      -33.71935744


--------------------------------------------------------------------------------------------------------




--------------------------------------- Iteration      1(  11)  ---------------------------------------


    POTLOK:  cpu time      0.0036: real time      0.0037
    SETDIJ:  cpu time      0.1363: real time      0.1369
     EDDAV:  cpu time      0.1988: real time      0.1998
       DOS:  cpu time      0.0004: real time      0.0004
    CHARGE:  cpu time      0.0034: real time      0.0034
    MIXING:  cpu time      0.0003: real time      0.0003
    --------------------------------------------
      LOOP:  cpu time      0.3428: real time      0.3445

 eigenvalue-minimisations  :  3152
 total energy-change (2. order) :-0.1959828E-04  (-0.3111696E-05)
 number of electron      39.9999996 magnetization 
 augmentation part       -7.3615338 magnetization 

 Broyden mixing:
  rms(total) = 0.11195E-02    rms(broyden)= 0.11195E-02
  rms(prec ) = 0.12396E-02
  weight for this iteration     100.00

 eigenvalues of (default mixing * dielectric matrix)
  average eigenvalue GAMMA=   1.7375
  2.4775  2.4775  2.2106  1.1753  1.1753  0.9089

 Free energy of the ion-electron system (eV)
  ---------------------------------------------------
  alpha Z        PSCENC =        91.58338927
  Ewald energy   TEWEN  =     -1452.13567316
  -Hartree energ DENC   =      -122.05672569
  -exchange      EXHF   =         0.00000000
  -V(xc)+E(xc)   XCENC  =       -31.81632289
  PAW double counting   =      1929.25805071    -1816.82378980
  entropy T*S    EENTRO =        -0.00000000
  eigenvalues    EBANDS =       -80.21291429
  atomic energy  EATOM  =      1448.48460880
  Solvation  Ediel_sol  =         0.00000000
  ---------------------------------------------------
  free energy    TOTEN  =       -33.71937704 eV

  energy without entropy =      -33.71937704  energy(sigma->0) =      -33.71937704


--------------------------------------------------------------------------------------------------------




--------------------------------------- Iteration      1(  12)  ---------------------------------------


    POTLOK:  cpu time      0.0036: real time      0.0037
    SETDIJ:  cpu time      0.1163: real time      0.1175
     EDDAV:  cpu time      0.2064: real time      0.2090
       DOS:  cpu time      0.0004: real time      0.0004
    --------------------------------------------
      LOOP:  cpu time      0.3267: real time      0.3305

 eigenvalue-minimisations  :  3104
 total energy-change (2. order) : 0.3994072E-06  (-0.4299607E-06)
 number of electron      39.9999996 magnetization 
 augmentation part       -7.3615338 magnetization 

 Free energy of the ion-electron system (eV)
  ---------------------------------------------------
  alpha Z        PSCENC =        91.58338927
  Ewald energy   TEWEN  =     -1452.13567316
  -Hartree energ DENC   =      -122.06542890
  -exchange      EXHF   =         0.00000000
  -V(xc)+E(xc)   XCENC  =       -31.81564914
  PAW double counting   =      1928.68249628    -1816.24799533
  entropy T*S    EENTRO =        -0.00000000
  eigenvalues    EBANDS =       -80.20512445
  atomic energy  EATOM  =      1448.48460880
  Solvation  Ediel_sol  =         0.00000000
  ---------------------------------------------------
  free energy    TOTEN  =       -33.71937664 eV

  energy without entropy =      -33.71937664  energy(sigma->0) =      -33.71937664


--------------------------------------------------------------------------------------------------------




 average (electrostatic) potential at core
  the test charge radii are     1.1631  1.0808
  (the norm of the test charge is              1.0000)
       1 -33.1321       2 -33.1321       3 -33.1321       4 -33.1321       5 -54.5914
       6 -54.5914       7 -54.5914       8 -54.5914
 
 
 
 E-fermi :   3.9213     XC(G=0):  -9.5329     alpha+bet : -9.1238

 Fermi energy:         3.9213055483

 k-point     1 :       0.0000    0.0000    0.0000
  band No.  band energies     occupation 
      1     -10.7036      2.00000
      2     -10.3400      2.00000
      3      -9.3929      2.00000
      4      -8.8195      2.00000
      5      -3.9874      2.00000
      6      -3.4678      2.00000
      7      -1.9949      2.00000
      8      -1.9013      2.00000
      9      -1.6638      2.00000
     10      -0.1637      2.00000
     11       0.2823      2.00000
     12       0.3525      2.00000
     13       0.4289      2.00000
     14       0.6499      2.00000
     15       1.1333      2.00000
     16       1.8427      2.00000
     17       2.1105      2.00000
     18       2.2854      2.00000
     19       2.9267      2.00000
     20       3.1428      2.00000
     21       4.3925      0.00000
     22       6.4471      0.00000
     23       6.6134      0.00000
     24       6.6216      0.00000
     25       7.0192      0.00000
     26       7.6061      0.00000
     27       7.6194      0.00000
     28       8.1631      0.00000
     29       8.5814      0.00000
     30       9.0180      0.00000
     31       9.2511      0.00000
     32       9.7095      0.00000

 k-point     2 :       0.1667    0.0000    0.0000
  band No.  band energies     occupation 
      1     -10.5279      2.00000
      2     -10.1813      2.00000
      3      -9.2975      2.00000
      4      -8.8024      2.00000
      5      -4.3997      2.00000
      6      -3.9727      2.00000
      7      -2.8271      2.00000
      8      -2.4082      2.00000
      9      -1.5251      2.00000
     10       0.0986      2.00000
     11       0.4895      2.00000
     12       0.6474      2.00000
     13       0.6482      2.00000
     14       0.8028      2.00000
     15       1.5851      2.00000
     16       2.0172      2.00000
     17       2.2582      2.00000
     18       2.7104      2.00000
     19       2.8710      2.00000
     20       2.9669      2.00000
     21       4.4860      0.00000
     22       6.2723      0.00000
     23       6.4985      0.00000
     24       6.7914      0.00000
     25       6.9125      0.00000
     26       7.1198      0.00000
     27       7.2909      0.00000
     28       7.4687      0.00000
     29       8.1754      0.00000
     30       8.2549      0.00000
     31       8.9633      0.00000
     32       8.9789      0.00000

 k-point     3 :       0.3333    0.0000    0.0000
  band No.  band energies     occupation 
      1     -10.0394      2.00000
      2      -9.7597      2.00000
      3      -9.1459      2.00000
      4      -8.9126      2.00000
      5      -5.0693      2.00000
      6      -4.6001      2.00000
      7      -4.1743      2.00000
      8      -3.5309      2.00000
      9      -0.9367      2.00000
     10       0.5474      2.00000
     11       0.9872      2.00000
     12       1.0291      2.00000
     13       1.2429      2.00000
     14       1.2924      2.00000
     15       2.0286      2.00000
     16       2.0977      2.00000
     17       2.5333      2.00000
     18       2.7625      2.00000
     19       2.8760      2.00000
     20       3.4639      2.00000
     21       4.7809      0.00000
     22       4.7879      0.00000
     23       5.5446      0.00000
     24       5.7225      0.00000
     25       6.0243      0.00000
     26       6.1423      0.00000
     27       6.3215      0.00000
     28       7.0669      0.00000
     29       7.2559      0.00000
     30       7.4662      0.00000
     31       8.2385      0.00000
     32       9.1108      0.00000

 k-point     4 :       0.5000    0.0000    0.0000
  band No.  band energies     occupation 
      1      -9.3916      2.00000
      2      -9.3916      2.00000
      3      -9.2921      2.00000
      4      -9.2921      2.00000
      5      -5.0755      2.00000
      6      -5.0755      2.00000
      7      -4.4359      2.00000
      8      -4.4359      2.00000
      9      -0.0591      2.00000
     10      -0.0591      2.00000
     11       1.5236      2.00000
     12       1.5236      2.00000
     13       1.5992      2.00000
     14       1.5992      2.00000
     15       2.0574      2.00000
     16       2.0574      2.00000
     17       2.7982      2.00000
     18       2.7982      2.00000
     19       2.9878      2.00000
     20       2.9878      2.00000
     21       5.0505      0.00000
     22       5.0505      0.00000
     23       5.0655      0.00000
     24       5.0655      0.00000
     25       5.4759      0.00000
     26       5.4759      0.00000
     27       6.0534      0.00000
     28       6.0534      0.00000
     29       6.5018      0.00000
     30       6.5018      0.00000
     31       8.7547      0.00000
     32       8.7547      0.00000

 k-point     5 :       0.0000    0.1667    0.0000
  band No.  band energies     occupation 
      1     -10.5494      2.00000
      2     -10.1929      2.00000
      3      -9.3447      2.00000
      4      -8.8187      2.00000
      5      -4.4353      2.00000
      6      -3.7256      2.00000
      7      -2.7593      2.00000
      8      -2.3451      2.00000
      9      -1.5040      2.00000
     10       0.0387      2.00000
     11       0.4769      2.00000
     12       0.4804      2.00000
     13       0.8415      2.00000
     14       1.0817      2.00000
     15       1.2685      2.00000
     16       1.9346      2.00000
     17       2.2974      2.00000
     18       2.7482      2.00000
     19       2.8096      2.00000
     20       3.1221      2.00000
     21       4.2817      0.00000
     22       5.9305      0.00000
     23       6.3653      0.00000
     24       6.5928      0.00000
     25       6.6318      0.00000
     26       6.9962      0.00000
     27       7.3200      0.00000
     28       7.8949      0.00000
     29       7.9317      0.00000
     30       8.4289      0.00000
     31       8.7887      0.00000
     32       8.9478      0.00000

 k-point     6 :       0.1667    0.1667    0.0000
  band No.  band energies     occupation 
      1     -10.3798      2.00000
      2     -10.0413      2.00000
      3      -9.2538      2.00000
      4      -8.7993      2.00000
      5      -4.6070      2.00000
      6      -3.9938      2.00000
      7      -3.0704      2.00000
      8      -2.7842      2.00000
      9      -1.3280      2.00000
     10      -0.6006      2.00000
     11      -0.3829      2.00000
     12       0.7196      2.00000
     13       1.0042      2.00000
     14       1.5398      2.00000
     15       1.6522      2.00000
     16       1.6943      2.00000
     17       2.8508      2.00000
     18       2.8821      2.00000
     19       3.0248      2.00000
     20       3.1118      2.00000
     21       4.4491      0.00000
     22       5.2849      0.00000
     23       5.6755      0.00000
     24       5.8289      0.00000
     25       6.7028      0.00000
     26       7.2999      0.00000
     27       7.6127      0.00000
     28       7.8100      0.00000
     29       8.2194      0.00000
     30       8.3806      0.00000
     31       8.4874      0.00000
     32       9.1314      0.00000

 k-point     7 :       0.1667   -0.1667    0.0000
  band No.  band energies     occupation 
      1     -10.3798      2.00000
      2     -10.0413      2.00000
      3      -9.2538      2.00000
      4      -8.7993      2.00000
      5      -4.6070      2.00000
      6      -3.9938      2.00000
      7      -3.0704      2.00000
      8      -2.7842      2.00000
      9      -1.3280      2.00000
     10      -0.6006      2.00000
     11      -0.3829      2.00000
     12       0.7196      2.00000
     13       1.0042      2.00000
     14       1.5398      2.00000
     15       1.6522      2.00000
     16       1.6943      2.00000
     17       2.8508      2.00000
     18       2.8821      2.00000
     19       3.0248      2.00000
     20       3.1118      2.00000
     21       4.4491      0.00000
     22       5.2849      0.00000
     23       5.6755      0.00000
     24       5.8289      0.00000
     25       6.7028      0.00000
     26       7.2999      0.00000
     27       7.6127      0.00000
     28       7.8100      0.00000
     29       8.2194      0.00000
     30       8.3806      0.00000
     31       8.4874      0.00000
     32       9.1314      0.00000

 k-point     8 :       0.3333    0.1667    0.0000
  band No.  band energies     occupation 
      1      -9.9131      2.00000
      2      -9.6449      2.00000
      3      -9.1060      2.00000
      4      -8.8865      2.00000
      5      -4.9713      2.00000
      6      -4.4475      2.00000
      7      -4.0905      2.00000
      8      -3.5760      2.00000
      9      -0.7927      2.00000
     10      -0.6154      2.00000
     11      -0.3616      2.00000
     12       0.6085      2.00000
     13       1.1341      2.00000
     14       1.3747      2.00000
     15       1.5215      2.00000
     16       2.0994      2.00000
     17       2.2338      2.00000
     18       2.5436      2.00000
     19       2.8049      2.00000
     20       3.1802      2.00000
     21       4.5516      0.00000
     22       5.2430      0.00000
     23       5.9103      0.00000
     24       5.9716      0.00000
     25       6.0555      0.00000
     26       6.8104      0.00000
     27       7.5027      0.00000
     28       7.8297      0.00000
     29       7.9934      0.00000
     30       8.4302      0.00000
     31       8.7390      0.00000
     32       9.0752      0.00000

 k-point     9 :       0.3333   -0.1667    0.0000
  band No.  band energies     occupation 
      1      -9.9131      2.00000
      2      -9.6449      2.00000
      3      -9.1060      2.00000
      4      -8.8865      2.00000
      5      -4.9713      2.00000
      6      -4.4475      2.00000
      7      -4.0905      2.00000
      8      -3.5760      2.00000
      9      -0.7927      2.00000
     10      -0.6154      2.00000
     11      -0.3616      2.00000
     12       0.6085      2.00000
     13       1.1341      2.00000
     14       1.3747      2.00000
     15       1.5215      2.00000
     16       2.0994      2.00000
     17       2.2338      2.00000
     18       2.5436      2.00000
     19       2.8049      2.00000
     20       3.1802      2.00000
     21       4.5516      0.00000
     22       5.2430      0.00000
     23       5.9103      0.00000
     24       5.9716      0.00000
     25       6.0555      0.00000
     26       6.8104      0.00000
     27       7.5027      0.00000
     28       7.8297      0.00000
     29       7.9934      0.00000
     30       8.4302      0.00000
     31       8.7390      0.00000
     32       9.0752      0.00000

 k-point    10 :       0.5000    0.1667    0.0000
  band No.  band energies     occupation 
      1      -9.3109      2.00000
      2      -9.3109      2.00000
      3      -9.2221      2.00000
      4      -9.2221      2.00000
      5      -4.9029      2.00000
      6      -4.9029      2.00000
      7      -4.3162      2.00000
      8      -4.3162      2.00000
      9      -0.1792      2.00000
     10      -0.1792      2.00000
     11       0.2360      2.00000
     12       0.2360      2.00000
     13       0.8171      2.00000
     14       0.8171      2.00000
     15       1.6518      2.00000
     16       1.6518      2.00000
     17       2.1338      2.00000
     18       2.1338      2.00000
     19       2.8819      2.00000
     20       2.8819      2.00000
     21       5.0015      0.00000
     22       5.0015      0.00000
     23       6.1463      0.00000
     24       6.1463      0.00000
     25       6.7310      0.00000
     26       6.7310      0.00000
     27       7.1573      0.00000
     28       7.1573      0.00000
     29       7.9913      0.00000
     30       7.9913      0.00000
     31       8.4335      0.00000
     32       8.4335      0.00000

 k-point    11 :       0.0000    0.3333    0.0000
  band No.  band energies     occupation 
      1     -10.1319      2.00000
      2      -9.7932      2.00000
      3      -9.3337      2.00000
      4      -8.9234      2.00000
      5      -5.0310      2.00000
      6      -4.1188      2.00000
      7      -4.0373      2.00000
      8      -3.2566      2.00000
      9      -0.9152      2.00000
     10       0.5986      2.00000
     11       0.6608      2.00000
     12       1.0106      2.00000
     13       1.5068      2.00000
     14       1.5787      2.00000
     15       1.5826      2.00000
     16       2.0181      2.00000
     17       2.4474      2.00000
     18       2.7950      2.00000
     19       3.0412      2.00000
     20       3.6424      2.00000
     21       4.6080      0.00000
     22       4.6990      0.00000
     23       4.9893      0.00000
     24       5.3741      0.00000
     25       5.8984      0.00000
     26       6.1959      0.00000
     27       6.2884      0.00000
     28       6.6348      0.00000
     29       7.1539      0.00000
     30       7.2437      0.00000
     31       8.7054      0.00000
     32       9.3536      0.00000

 k-point    12 :       0.1667    0.3333    0.0000
  band No.  band energies     occupation 
      1      -9.9827      2.00000
      2      -9.6658      2.00000
      3      -9.2451      2.00000
      4      -8.8849      2.00000
      5      -4.9385      2.00000
      6      -4.0726      2.00000
      7      -3.9852      2.00000
      8      -3.3537      2.00000
      9      -0.7712      2.00000
     10      -0.7161      2.00000
     11      -0.4956      2.00000
     12       0.5525      2.00000
     13       0.7286      2.00000
     14       1.3282      2.00000
     15       1.5991      2.00000
     16       2.1921      2.00000
     17       2.4394      2.00000
     18       2.7706      2.00000
     19       3.0170      2.00000
     20       3.1995      2.00000
     21       4.5428      0.00000
     22       4.9053      0.00000
     23       5.5753      0.00000
     24       5.7896      0.00000
     25       5.8602      0.00000
     26       6.7490      0.00000
     27       7.1763      0.00000
     28       7.8509      0.00000
     29       8.1721      0.00000
     30       8.5411      0.00000
     31       8.7391      0.00000
     32       8.9966      0.00000

 k-point    13 :       0.1667   -0.3333    0.0000
  band No.  band energies     occupation 
      1      -9.9827      2.00000
      2      -9.6658      2.00000
      3      -9.2451      2.00000
      4      -8.8849      2.00000
      5      -4.9385      2.00000
      6      -4.0726      2.00000
      7      -3.9852      2.00000
      8      -3.3537      2.00000
      9      -0.7712      2.00000
     10      -0.7161      2.00000
     11      -0.4956      2.00000
     12       0.5525      2.00000
     13       0.7286      2.00000
     14       1.3282      2.00000
     15       1.5991      2.00000
     16       2.1921      2.00000
     17       2.4394      2.00000
     18       2.7706      2.00000
     19       3.0170      2.00000
     20       3.1995      2.00000
     21       4.5428      0.00000
     22       4.9053      0.00000
     23       5.5753      0.00000
     24       5.7896      0.00000
     25       5.8602      0.00000
     26       6.7490      0.00000
     27       7.1763      0.00000
     28       7.8509      0.00000
     29       8.1721      0.00000
     30       8.5411      0.00000
     31       8.7391      0.00000
     32       8.9966      0.00000

 k-point    14 :       0.3333    0.3333    0.0000
  band No.  band energies     occupation 
      1      -9.5883      2.00000
      2      -9.3529      2.00000
      3      -9.0761      2.00000
      4      -8.8816      2.00000
      5      -4.7430      2.00000
      6      -4.0859      2.00000
      7      -4.0501      2.00000
      8      -3.7294      2.00000
      9      -1.4905      2.00000
     10      -1.2158      2.00000
     11      -0.6027      2.00000
     12      -0.3043      2.00000
     13       0.0918      2.00000
     14       0.5669      2.00000
     15       0.9499      2.00000
     16       1.2143      2.00000
     17       1.7331      2.00000
     18       2.0546      2.00000
     19       2.2441      2.00000
     20       2.6550      2.00000
     21       4.9715      0.00000
     22       6.5130      0.00000
     23       6.8633      0.00000
     24       6.9734      0.00000
     25       7.4981      0.00000
     26       7.7892      0.00000
     27       8.0894      0.00000
     28       8.1301      0.00000
     29       8.9500      0.00000
     30       9.0583      0.00000
     31       9.1313      0.00000
     32       9.7305      0.00000

 k-point    15 :       0.3333   -0.3333    0.0000
  band No.  band energies     occupation 
      1      -9.5883      2.00000
      2      -9.3529      2.00000
      3      -9.0761      2.00000
      4      -8.8816      2.00000
      5      -4.7430      2.00000
      6      -4.0859      2.00000
      7      -4.0501      2.00000
      8      -3.7294      2.00000
      9      -1.4905      2.00000
     10      -1.2158      2.00000
     11      -0.6027      2.00000
     12      -0.3043      2.00000
     13       0.0918      2.00000
     14       0.5669      2.00000
     15       0.9499      2.00000
     16       1.2143      2.00000
     17       1.7331      2.00000
     18       2.0546      2.00000
     19       2.2441      2.00000
     20       2.6550      2.00000
     21       4.9715      0.00000
     22       6.5130      0.00000
     23       6.8633      0.00000
     24       6.9734      0.00000
     25       7.4981      0.00000
     26       7.7892      0.00000
     27       8.0894      0.00000
     28       8.1301      0.00000
     29       8.9500      0.00000
     30       9.0583      0.00000
     31       9.1313      0.00000
     32       9.7304      0.00000

 k-point    16 :       0.5000    0.3333    0.0000
  band No.  band energies     occupation 
      1      -9.1333      2.00000
      2      -9.1333      2.00000
      3      -9.0757      2.00000
      4      -9.0757      2.00000
      5      -4.4620      2.00000
      6      -4.4620      2.00000
      7      -4.0590      2.00000
      8      -4.0590      2.00000
      9      -1.1484      2.00000
     10      -1.1484      2.00000
     11      -0.8474      2.00000
     12      -0.8474      2.00000
     13       0.0523      2.00000
     14       0.0523      2.00000
     15       0.7939      2.00000
     16       0.7939      2.00000
     17       1.2698      2.00000
     18       1.2698      2.00000
     19       2.2933      2.00000
     20       2.2933      2.00000
     21       6.0000      0.00000
     22       6.0000      0.00000
     23       7.5621      0.00000
     24       7.5621      0.00000
     25       8.2860      0.00000
     26       8.2860      0.00000
     27       8.4095      0.00000
     28       8.4095      0.00000
     29       9.0175      0.00000
     30       9.0175      0.00000
     31       9.5723      0.00000
     32       9.5723      0.00000

 k-point    17 :       0.0000    0.5000    0.0000
  band No.  band energies     occupation 
      1      -9.6232      2.00000
      2      -9.6232      2.00000
      3      -9.2876      2.00000
      4      -9.2876      2.00000
      5      -4.9305      2.00000
      6      -4.9305      2.00000
      7      -3.9832      2.00000
      8      -3.9832      2.00000
      9      -0.0483      2.00000
     10      -0.0483      2.00000
     11       1.2853      2.00000
     12       1.2853      2.00000
     13       1.6688      2.00000
     14       1.6688      2.00000
     15       2.1261      2.00000
     16       2.1261      2.00000
     17       2.6913      2.00000
     18       2.6913      2.00000
     19       3.1429      2.00000
     20       3.1429      2.00000
     21       4.7122      0.00000
     22       4.7122      0.00000
     23       5.2167      0.00000
     24       5.2167      0.00000
     25       5.2737      0.00000
     26       5.2737      0.00000
     27       5.8743      0.00000
     28       5.8743      0.00000
     29       6.1641      0.00000
     30       6.1641      0.00000
     31       9.2670      0.00000
     32       9.2670      0.00000

 k-point    18 :       0.1667    0.5000    0.0000
  band No.  band energies     occupation 
      1      -9.5091      2.00000
      2      -9.5091      2.00000
      3      -9.2036      2.00000
      4      -9.2036      2.00000
      5      -4.7803      2.00000
      6      -4.7803      2.00000
      7      -3.8956      2.00000
      8      -3.8956      2.00000
      9      -0.2463      2.00000
     10      -0.2463      2.00000
     11      -0.0234      2.00000
     12      -0.0234      2.00000
     13       0.5896      2.00000
     14       0.5896      2.00000
     15       1.7644      2.00000
     16       1.7644      2.00000
     17       2.5092      2.00000
     18       2.5092      2.00000
     19       2.9933      2.00000
     20       2.9933      2.00000
     21       5.0115      0.00000
     22       5.0115      0.00000
     23       5.5028      0.00000
     24       5.5028      0.00000
     25       6.3989      0.00000
     26       6.3989      0.00000
     27       7.2842      0.00000
     28       7.2842      0.00000
     29       7.8462      0.00000
     30       7.8462      0.00000
     31       8.9859      0.00000
     32       8.9859      0.00000

 k-point    19 :       0.3333    0.5000    0.0000
  band No.  band energies     occupation 
      1      -9.2376      2.00000
      2      -9.2376      2.00000
      3      -9.0390      2.00000
      4      -9.0390      2.00000
      5      -4.4201      2.00000
      6      -4.4201      2.00000
      7      -3.8085      2.00000
      8      -3.8085      2.00000
      9      -1.3640      2.00000
     10      -1.3640      2.00000
     11      -0.9946      2.00000
     12      -0.9946      2.00000
     13       0.1021      2.00000
     14       0.1021      2.00000
     15       0.8520      2.00000
     16       0.8520      2.00000
     17       1.3733      2.00000
     18       1.3733      2.00000
     19       2.3101      2.00000
     20       2.3101      2.00000
     21       5.9308      0.00000
     22       5.9308      0.00000
     23       7.6134      0.00000
     24       7.6134      0.00000
     25       8.2472      0.00000
     26       8.2472      0.00000
     27       8.4052      0.00000
     28       8.4052      0.00000
     29       8.9574      0.00000
     30       8.9574      0.00000
     31       9.5123      0.00000
     32       9.5123      0.00000

 k-point    20 :       0.5000    0.5000    0.0000
  band No.  band energies     occupation 
      1      -9.0298      2.00000
      2      -9.0298      2.00000
      3      -9.0039      2.00000
      4      -9.0039      2.00000
      5      -4.1362      2.00000
      6      -4.1362      2.00000
      7      -3.9429      2.00000
      8      -3.9429      2.00000
      9      -1.6160      2.00000
     10      -1.6160      2.00000
     11      -1.3512      2.00000
     12      -1.3512      2.00000
     13      -0.2927      2.00000
     14      -0.2927      2.00000
     15       0.1569      2.00000
     16       0.1569      2.00000
     17       1.4228      2.00000
     18       1.4228      2.00000
[...]
     32       8.2765      0.00000

 k-point    32 :       0.1667    0.3333    0.5000
  band No.  band energies     occupation 
      1      -9.8601      2.00000
      2      -9.8601      2.00000
      3      -9.0296      2.00000
      4      -9.0296      2.00000
      5      -4.6220      2.00000
      6      -4.6220      2.00000
      7      -3.6093      2.00000
      8      -3.6093      2.00000
      9      -0.6044      2.00000
     10      -0.6044      2.00000
     11       0.2401      2.00000
     12       0.2401      2.00000
     13       0.6040      2.00000
     14       0.6040      2.00000
     15       1.8959      2.00000
     16       1.8959      2.00000
     17       2.4380      2.00000
     18       2.4380      2.00000
     19       3.1538      2.00000
     20       3.1538      2.00000
     21       5.1379      0.00000
     22       5.1379      0.00000
     23       5.8005      0.00000
     24       5.8005      0.00000
     25       6.4670      0.00000
     26       6.4670      0.00000
     27       7.2869      0.00000
     28       7.2869      0.00000
     29       7.8885      0.00000
     30       7.8885      0.00000
     31       8.5719      0.00000
     32       8.5719      0.00000

 k-point    33 :       0.1667   -0.3333    0.5000
  band No.  band energies     occupation 
      1      -9.8601      2.00000
      2      -9.8601      2.00000
      3      -9.0296      2.00000
      4      -9.0296      2.00000
      5      -4.6220      2.00000
      6      -4.6220      2.00000
      7      -3.6093      2.00000
      8      -3.6093      2.00000
      9      -0.6044      2.00000
     10      -0.6044      2.00000
     11       0.2401      2.00000
     12       0.2401      2.00000
     13       0.6040      2.00000
     14       0.6040      2.00000
     15       1.8959      2.00000
     16       1.8959      2.00000
     17       2.4380      2.00000
     18       2.4380      2.00000
     19       3.1538      2.00000
     20       3.1538      2.00000
     21       5.1379      0.00000
     22       5.1379      0.00000
     23       5.8005      0.00000
     24       5.8005      0.00000
     25       6.4670      0.00000
     26       6.4670      0.00000
     27       7.2869      0.00000
     28       7.2869      0.00000
     29       7.8885      0.00000
     30       7.8885      0.00000
     31       8.5719      0.00000
     32       8.5719      0.00000

 k-point    34 :       0.3333    0.3333    0.5000
  band No.  band energies     occupation 
      1      -9.4946      2.00000
      2      -9.4946      2.00000
      3      -8.9549      2.00000
      4      -8.9549      2.00000
      5      -4.4814      2.00000
      6      -4.4814      2.00000
      7      -3.8569      2.00000
      8      -3.8569      2.00000
      9      -1.3218      2.00000
     10      -1.3218      2.00000
     11      -0.3005      2.00000
     12      -0.3005      2.00000
     13       0.2297      2.00000
     14       0.2297      2.00000
     15       0.9751      2.00000
     16       0.9751      2.00000
     17       1.7416      2.00000
     18       1.7416      2.00000
     19       2.6005      2.00000
     20       2.6005      2.00000
     21       6.2375      0.00000
     22       6.2375      0.00000
     23       6.6450      0.00000
     24       6.6450      0.00000
     25       7.0612      0.00000
     26       7.0612      0.00000
     27       8.0595      0.00000
     28       8.0595      0.00000
     29       8.7384      0.00000
     30       8.7384      0.00000
     31       9.9072      0.00000
     32       9.9072      0.00000

 k-point    35 :       0.3333   -0.3333    0.5000
  band No.  band energies     occupation 
      1      -9.4946      2.00000
      2      -9.4946      2.00000
      3      -8.9549      2.00000
      4      -8.9549      2.00000
      5      -4.4814      2.00000
      6      -4.4814      2.00000
      7      -3.8569      2.00000
      8      -3.8569      2.00000
      9      -1.3218      2.00000
     10      -1.3218      2.00000
     11      -0.3005      2.00000
     12      -0.3005      2.00000
     13       0.2297      2.00000
     14       0.2297      2.00000
     15       0.9751      2.00000
     16       0.9751      2.00000
     17       1.7416      2.00000
     18       1.7416      2.00000
     19       2.6005      2.00000
     20       2.6005      2.00000
     21       6.2375      0.00000
     22       6.2375      0.00000
     23       6.6450      0.00000
     24       6.6450      0.00000
     25       7.0612      0.00000
     26       7.0612      0.00000
     27       8.0595      0.00000
     28       8.0595      0.00000
     29       8.7384      0.00000
     30       8.7384      0.00000
     31       9.9072      0.00000
     32       9.9072      0.00000

 k-point    36 :       0.5000    0.3333    0.5000
  band No.  band energies     occupation 
      1      -9.1049      2.00000
      2      -9.1049      2.00000
      3      -9.1049      2.00000
      4      -9.1049      2.00000
      5      -4.2737      2.00000
      6      -4.2737      2.00000
      7      -4.2737      2.00000
      8      -4.2737      2.00000
      9      -0.9357      2.00000
     10      -0.9357      2.00000
     11      -0.9357      2.00000
     12      -0.9357      2.00000
     13       0.2018      2.00000
     14       0.2018      2.00000
     15       0.2018      2.00000
     16       0.2018      2.00000
     17       1.9694      2.00000
     18       1.9694      2.00000
     19       1.9694      2.00000
     20       1.9694      2.00000
     21       6.5648      0.00000
     22       6.5648      0.00000
     23       6.5648      0.00000
     24       6.5648      0.00000
     25       8.1253      0.00000
     26       8.1253      0.00000
     27       8.1253      0.00000
     28       8.1253      0.00000
     29       9.6445      0.00000
     30       9.6445      0.00000
     31       9.6445      0.00000
     32       9.6445      0.00000

 k-point    37 :       0.0000    0.5000    0.5000
  band No.  band energies     occupation 
      1      -9.6183      2.00000
      2      -9.6183      2.00000
      3      -9.2947      2.00000
      4      -9.2947      2.00000
      5      -4.8171      2.00000
      6      -4.8171      2.00000
      7      -4.1616      2.00000
      8      -4.1616      2.00000
      9       0.6793      2.00000
     10       0.6793      2.00000
     11       1.0649      2.00000
     12       1.0649      2.00000
     13       1.2941      2.00000
     14       1.2941      2.00000
     15       1.6554      2.00000
     16       1.6554      2.00000
     17       2.9289      2.00000
     18       2.9289      2.00000
     19       3.0271      2.00000
     20       3.0271      2.00000
     21       4.8253      0.00000
     22       4.8253      0.00000
     23       5.2054      0.00000
     24       5.2054      0.00000
     25       5.2976      0.00000
     26       5.2976      0.00000
     27       6.0577      0.00000
     28       6.0577      0.00000
     29       6.8342      0.00000
     30       6.8342      0.00000
     31       8.1130      0.00000
     32       8.1130      0.00000

 k-point    38 :       0.1667    0.5000    0.5000
  band No.  band energies     occupation 
      1      -9.5045      2.00000
      2      -9.5045      2.00000
      3      -9.2100      2.00000
      4      -9.2100      2.00000
      5      -4.6808      2.00000
      6      -4.6808      2.00000
      7      -4.0486      2.00000
      8      -4.0486      2.00000
      9      -0.0747      2.00000
     10      -0.0747      2.00000
     11      -0.0118      2.00000
     12      -0.0118      2.00000
     13       1.0418      2.00000
     14       1.0418      2.00000
     15       1.1546      2.00000
     16       1.1546      2.00000
     17       2.3232      2.00000
     18       2.3232      2.00000
     19       2.8780      2.00000
     20       2.8780      2.00000
     21       5.5470      0.00000
     22       5.5470      0.00000
     23       5.6822      0.00000
     24       5.6822      0.00000
     25       6.3763      0.00000
     26       6.3763      0.00000
     27       7.4085      0.00000
     28       7.4085      0.00000
     29       7.8668      0.00000
     30       7.8668      0.00000
     31       7.9240      0.00000
     32       7.9240      0.00000

 k-point    39 :       0.3333    0.5000    0.5000
  band No.  band energies     occupation 
      1      -9.2341      2.00000
      2      -9.2341      2.00000
      3      -9.0432      2.00000
      4      -9.0432      2.00000
      5      -4.3626      2.00000
      6      -4.3626      2.00000
      7      -3.8896      2.00000
      8      -3.8896      2.00000
      9      -1.1831      2.00000
     10      -1.1831      2.00000
     11      -1.1486      2.00000
     12      -1.1486      2.00000
     13       0.3589      2.00000
     14       0.3589      2.00000
     15       0.3700      2.00000
     16       0.3700      2.00000
     17       1.7321      2.00000
     18       1.7321      2.00000
     19       2.1931      2.00000
     20       2.1931      2.00000
     21       6.2249      0.00000
     22       6.2249      0.00000
     23       7.0030      0.00000
     24       7.0030      0.00000
     25       7.9646      0.00000
     26       7.9646      0.00000
     27       8.0828      0.00000
     28       8.0828      0.00000
     29       9.4456      0.00000
     30       9.4456      0.00000
     31       9.6715      0.00000
     32       9.6715      0.00000

 k-point    40 :       0.5000    0.5000    0.5000
  band No.  band energies     occupation 
      1      -9.0169      2.00000
      2      -9.0169      2.00000
      3      -9.0169      2.00000
      4      -9.0169      2.00000
      5      -4.0490      2.00000
      6      -4.0490      2.00000
      7      -4.0490      2.00000
      8      -4.0490      2.00000
      9      -1.3629      2.00000
     10      -1.3629      2.00000
     11      -1.3629      2.00000
     12      -1.3629      2.00000
     13      -0.3616      2.00000
     14      -0.3616      2.00000
     15      -0.3616      2.00000
     16      -0.3616      2.00000
     17       2.0023      2.00000
     18       2.0023      2.00000
     19       2.0023      2.00000
     20       2.0023      2.00000
     21       6.3398      0.00000
     22       6.3398      0.00000
     23       6.3398      0.00000
     24       6.3398      0.00000
     25       9.1882      0.00000
     26       9.1882      0.00000
     27       9.1882      0.00000
     28       9.1882      0.00000
     29      10.3562      0.00000
     30      10.3562      0.00000
     31      10.3562      0.00000
     32      10.3562      0.00000


--------------------------------------------------------------------------------------------------------


 soft charge-density along one line, spin component            1
         0         1         2         3         4         5         6         7         8         9
 total charge-density along one line
 
 pseudopotential strength for first ion, spin component:            1
 14.406  17.970   0.033   0.044  -0.000   0.059   0.078  -0.000
 17.970  22.430   0.042   0.055  -0.000   0.075   0.099  -0.000
  0.033   0.042   3.206  -0.002   0.000   5.456  -0.003   0.000
  0.044   0.055  -0.002   3.204  -0.000  -0.003   5.452  -0.000
 -0.000  -0.000   0.000  -0.000   3.207   0.000  -0.000   5.457
  0.059   0.075   5.456  -0.003   0.000   9.342  -0.006   0.000
  0.078   0.099  -0.003   5.452  -0.000  -0.006   9.334  -0.000
 -0.000  -0.000   0.000  -0.000   5.457   0.000  -0.000   9.343
  0.000   0.000  -0.000   0.000   0.005  -0.000   0.000   0.010
 -0.004  -0.005   0.012   0.010   0.000   0.021   0.018   0.000
 -0.003  -0.004  -0.003   0.010   0.000  -0.006   0.020   0.000
 -0.000  -0.000   0.000  -0.000   0.012   0.000  -0.000   0.021
  0.000   0.000  -0.010  -0.000  -0.000  -0.018  -0.000  -0.000
 total augmentation occupancy for first ion, spin component:            1
  2.712  -0.710   0.258   0.367  -0.000  -0.044  -0.068   0.000   0.000  -0.012  -0.002  -0.000   0.012
 -0.710   0.703  -0.338  -0.468   0.000   0.051   0.073  -0.000  -0.000   0.010   0.006  -0.000  -0.011
  0.258  -0.338   1.169   0.033  -0.000  -0.190   0.006   0.000   0.000   0.029  -0.071   0.000   0.009
  0.367  -0.468   0.033   1.305   0.000   0.006  -0.215  -0.000  -0.000  -0.012   0.120   0.000   0.000
 -0.000   0.000  -0.000   0.000   1.213   0.000  -0.000  -0.210   0.113   0.000  -0.000   0.026   0.000
 -0.044   0.051  -0.190   0.006   0.000   0.035  -0.003  -0.000   0.000  -0.005   0.012  -0.000  -0.002
 -0.068   0.073   0.006  -0.215  -0.000  -0.003   0.040   0.000  -0.000   0.002  -0.021   0.000   0.000
  0.000  -0.000   0.000  -0.000  -0.210  -0.000   0.000   0.040  -0.019  -0.000  -0.000  -0.004  -0.000
  0.000  -0.000   0.000  -0.000   0.113   0.000  -0.000  -0.019   0.033   0.000  -0.000   0.001   0.000
 -0.012   0.010   0.029  -0.012   0.000  -0.005   0.002  -0.000   0.000   0.011  -0.005   0.000   0.001
 -0.002   0.006  -0.071   0.120  -0.000   0.012  -0.021  -0.000  -0.000  -0.005   0.034  -0.000  -0.003
 -0.000  -0.000   0.000   0.000   0.026  -0.000   0.000  -0.004   0.001   0.000  -0.000   0.010   0.000
  0.012  -0.011   0.009   0.000   0.000  -0.002   0.000  -0.000   0.000   0.001  -0.003   0.000   0.009


------------------------ aborting loop because EDIFF is reached ----------------------------------------


    CHARGE:  cpu time      0.0035: real time      0.0035
    FORLOC:  cpu time      0.0002: real time      0.0002
    FORNL :  cpu time      0.0181: real time      0.0182
    STRESS:  cpu time      0.1798: real time      0.1805
    FORCOR:  cpu time      0.0033: real time      0.0033
    FORHAR:  cpu time      0.0009: real time      0.0009
    MIXING:  cpu time      0.0004: real time      0.0004
    OFIELD:  cpu time      0.0000: real time      0.0000

  FORCE on cell =-STRESS in cart. coord.  units (eV):
  Direction    XX          YY          ZZ          XY          YZ          ZX
  --------------------------------------------------------------------------------------
  Alpha Z    91.58339    91.58339    91.58339
  Ewald    -449.44464  -493.91782  -508.77513    -0.00000     0.00000    -0.00000
  Hartree    54.73838    40.72986    26.60179     0.00000    -0.00000    -0.00000
  E(xc)    -141.06051  -141.19019  -141.76575    -0.00000    -0.00000    -0.00000
  Local    -174.36780  -121.52320   -95.17366    -0.00000     0.00000    -0.00000
  n-local   239.96329   239.18271   242.67990     0.00000     0.00000     0.00000
  augment   -11.33674   -11.77118   -12.09211     0.00000    -0.00000    -0.00000
  Kinetic   390.30639   399.90761   398.43676    -0.00000     0.00000     0.00000
  Fock        0.00000     0.00000     0.00000     0.00000     0.00000     0.00000
  -------------------------------------------------------------------------------------
  Total       0.38176     3.00117     1.49519    -0.00000     0.00000     0.00000
  in kB       3.30594    25.98909    12.94781    -0.00001     0.00001     0.00000
  external pressure =       14.08 kB  Pullay stress =        0.00 kB


 VOLUME and BASIS-vectors are now :
 -----------------------------------------------------------------------------
  energy-cutoff  :      360.00
  volume of cell :      185.02
      direct lattice vectors                 reciprocal lattice vectors
     4.050000000  0.000000000  0.000000000     0.246913580  0.000000000  0.000000000
     0.000000000  4.100000000  0.000000000     0.000000000  0.243902439  0.000000000
     0.000000000  0.000000000 11.142221000     0.000000000  0.000000000  0.089748713

  length of vectors
     4.050000000  4.100000000 11.142221000     0.246913580  0.243902439  0.089748713


 FORCES acting on ions
    electron-ion (+dipol)            ewald-force                    non-local-force                 convergence-correction
 -----------------------------------------------------------------------------------------------
   -.132E-05 0.932E+01 0.252E+02   0.113E-13 -.115E+02 -.278E+02   0.794E-06 0.210E+01 0.270E+01   0.741E-06 -.155E-03 -.118E-02
   -.384E-06 0.932E+01 -.252E+02   0.532E-14 -.115E+02 0.278E+02   0.406E-06 0.210E+01 -.270E+01   0.102E-06 -.155E-03 0.117E-02
   0.715E-06 -.932E+01 -.252E+02   -.558E-14 0.115E+02 0.278E+02   -.558E-06 -.210E+01 -.270E+01   -.237E-06 0.155E-03 0.118E-02
   0.120E-05 -.932E+01 0.252E+02   -.247E-14 0.115E+02 -.278E+02   -.828E-06 -.210E+01 0.270E+01   -.648E-06 0.155E-03 -.117E-02
   -.936E-06 -.864E+01 -.274E+02   -.768E-14 0.962E+01 0.292E+02   0.132E-06 -.901E+00 -.178E+01   0.708E-06 0.297E-03 0.203E-02
   0.766E-06 -.864E+01 0.274E+02   -.705E-14 0.962E+01 -.292E+02   -.292E-06 -.901E+00 0.178E+01   -.690E-06 0.298E-03 -.203E-02
   -.345E-06 0.864E+01 0.274E+02   0.379E-14 -.962E+01 -.292E+02   0.119E-06 0.901E+00 0.178E+01   0.410E-06 -.297E-03 -.203E-02
   0.167E-05 0.864E+01 -.274E+02   0.144E-14 -.962E+01 0.292E+02   -.749E-06 0.901E+00 -.178E+01   -.774E-06 -.298E-03 0.204E-02
 -----------------------------------------------------------------------------------------------
   0.137E-05 0.337E-06 -.451E-05   -.938E-15 0.178E-14 0.107E-13   -.977E-06 0.194E-06 0.101E-05   -.388E-06 -.503E-06 0.273E-05
 
 
 POSITION                                       TOTAL-FORCE (eV/Angst)
 -----------------------------------------------------------------------------------
      1.01250      0.39761      1.45445         0.000000     -0.056364      0.020065
      3.03750      2.44761      4.11666         0.000000     -0.056364     -0.020064
      3.03750      3.70239      9.68777        -0.000000      0.056364     -0.020065
      1.01250      1.65239      7.02556        -0.000000      0.056364      0.020064
      1.01250      0.04177      4.00286        -0.000000      0.072001     -0.008077
      3.03750      2.09177      1.56825        -0.000000      0.072001      0.008077
      3.03750      4.05823      7.13936         0.000000     -0.072001      0.008077
      1.01250      2.00823      9.57397         0.000000     -0.072001     -0.008078
 -----------------------------------------------------------------------------------
    total drift:                                0.000000      0.000000     -0.000001


--------------------------------------------------------------------------------------------------------



  FREE ENERGIE OF THE ION-ELECTRON SYSTEM (eV)
  ---------------------------------------------------
  free  energy   TOTEN  =       -33.71937664 eV

  energy  without entropy=      -33.71937664  energy(sigma->0) =      -33.71937664
 


--------------------------------------------------------------------------------------------------------


    POTLOK:  cpu time      0.1134: real time      0.1139


--------------------------------------------------------------------------------------------------------


     LOOP+:  cpu time      4.9347: real time      4.9785
    4ORBIT:  cpu time      0.0000: real time      0.0000

 total amount of memory used by VASP MPI-rank0    38153. kBytes
=======================================================================

   base      :      30000. kBytes
   nonl-proj :       6352. kBytes
   fftplans  :        320. kBytes
   grid      :        462. kBytes
   one-center:         16. kBytes
   wavefun   :       1003. kBytes
 
  
  
 General timing and accounting informations for this job:
 ========================================================
  
                  Total CPU time used (sec):        5.721
                            User time (sec):        5.437
                          System time (sec):        0.285
                         Elapsed time (sec):        7.065
  
                   Maximum memory used (kb):      189224.
                   Average memory used (kb):          N/A
  
                          Minor page faults:        21595
                          Major page faults:           40
                 Voluntary context switches:         2551
