 vasp.6.4.1 05Apr23 (build May 18 2023 13:19:41) complex                         
 executed on    LinuxNV_CrayMPICH date 2023.11.15  06:48:58
 running  256 mpi-ranks, with    1 threads/rank, on    7 nodes
 distrk:  each k-point on  128 cores,    2 groups
 distr:  one band on NCORE=  16 cores,    8 groups


--------------------------------------------------------------------------------------------------------


 INCAR:
   SIGMA = 0.010000
   EDIFF = 1.00e-06
   ALGO = N
   GGA = PE
   PREC = Accurate
   SYSTEM = 02_SCF
   ICHARG = 0
   ISMEAR = 0
   ISPIN = 2
   ISTART = 1
   KPAR = 2
   LORBIT = 11
   NBANDS = 896
   NELMIN = 5
   NPAR = 8
   IVDW = 11
   LCHARG = .TRUE.
   LWAVE = .TRUE.
   LREAL = .FALSE.
   MAGMOM = 242*0.0000 1*1.0000 125*0.0000

 POTCAR:   PAW_PBE C 08Apr2002                    
 POTCAR:    PAW_PBE S 17Jan2003                   
 POTCAR:   PAW_PBE O 08Apr2002                    
 POTCAR:   PAW_PBE H 15Jun2001                    
 POTCAR:   PAW_PBE C 08Apr2002                    
   VRHFIN =C: s2p2                                                                                  
   LEXCH  = PE                                                                                      
   EATOM  =   147.1560 eV,   10.8157 Ry                                                             
                                                                                                    
   TITEL  = PAW_PBE C 08Apr2002                                                                     
   LULTRA =        F    use ultrasoft PP ?                                                          
   IUNSCR =        0    unscreen: 0-lin 1-nonlin 2-no                                               
   RPACOR =     .000    partial core radius                                                         
   POMASS =   12.011; ZVAL   =    4.000    mass and valenz                                          
   RCORE  =    1.500    outmost cutoff radius                                                       
   RWIGS  =    1.630; RWIGS  =     .863    wigner-seitz radius (au A)                               
   ENMAX  =  400.000; ENMIN  =  300.000 eV                                                          
   ICORE  =        2    local potential                                                             
   LCOR   =        T    correct aug charges                                                         
   LPAW   =        T    paw PP                                                                      
   EAUG   =  644.873                                                                                
   DEXC   =     .000                                                                                
   RMAX   =    2.266    core radius for proj-oper                                                   
   RAUG   =    1.300    factor for augmentation sphere                                              
   RDEP   =    1.501    radius for radial grids                                                     
   RDEPT  =    1.300    core radius for aug-charge                                                  
   QCUT   =   -5.516; QGAM   =   11.032    optimization parameters                                  
                                                                                                    
   Description                                                                                      
     l     E      TYP  RCUT    TYP  RCUT                                                            
     0   .000     23  1.200                                                                         
     0   .000     23  1.200                                                                         
     1   .000     23  1.500                                                                         
     1  2.500     23  1.500                                                                         
     2   .000      7  1.500                                                                         
  local pseudopotential read in
  atomic valenz-charges read in
  non local Contribution for L=            0  read in
    real space projection operators read in
  non local Contribution for L=            0  read in
    real space projection operators read in
  non local Contribution for L=            1  read in
    real space projection operators read in
  non local Contribution for L=            1  read in
    real space projection operators read in
    PAW grid and wavefunctions read in
 
   number of l-projection  operators is LMAX  =            4
   number of lm-projection operators is LMMAX =            8
 
 POTCAR:    PAW_PBE S 17Jan2003                   
   VRHFIN =S : s2p4                                                                                 
   LEXCH  = PE                                                                                      
   EATOM  =   276.8230 eV,   20.3459 Ry                                                             
                                                                                                    
   TITEL  = PAW_PBE S 17Jan2003                                                                     
   LULTRA =        F    use ultrasoft PP ?                                                          
   IUNSCR =        1    unscreen: 0-lin 1-nonlin 2-no                                               
   RPACOR =    1.500    partial core radius                                                         
   POMASS =   32.066; ZVAL   =    6.000    mass and valenz                                          
   RCORE  =    1.900    outmost cutoff radius                                                       
   RWIGS  =    2.200; RWIGS  =    1.164    wigner-seitz radius (au A)                               
   ENMAX  =  280.000; ENMIN  =  194.016 eV                                                          
   ICORE  =        2    local potential                                                             
   LCOR   =        T    correct aug charges                                                         
   LPAW   =        T    paw PP                                                                      
   EAUG   =  335.092                                                                                
   DEXC   =     .000                                                                                
   RMAX   =    2.867    core radius for proj-oper                                                   
   RAUG   =    1.300    factor for augmentation sphere                                              
   RDEP   =    1.954    radius for radial grids                                                     
   QCUT   =   -4.360; QGAM   =    8.721    optimization parameters                                  
                                                                                                    
   Description                                                                                      
     l     E      TYP  RCUT    TYP  RCUT                                                            
     0   .000     23  1.900                                                                         
     0   .000     23  1.900                                                                         
     1   .000     23  1.900                                                                         
     1   .000     23  1.900                                                                         
     2   .000     23  1.900                                                                         
  local pseudopotential read in
  partial core-charges read in
  atomic valenz-charges read in
  non local Contribution for L=            0  read in
    real space projection operators read in
  non local Contribution for L=            0  read in
    real space projection operators read in
  non local Contribution for L=            1  read in
    real space projection operators read in
  non local Contribution for L=            1  read in
    real space projection operators read in
    PAW grid and wavefunctions read in
 
   number of l-projection  operators is LMAX  =            4
   number of lm-projection operators is LMMAX =            8
 
 POTCAR:   PAW_PBE O 08Apr2002                    
   VRHFIN =O: s2p4                                                                                  
   LEXCH  = PE                                                                                      
   EATOM  =   432.3788 eV,   31.7789 Ry                                                             
                                                                                                    
   TITEL  = PAW_PBE O 08Apr2002                                                                     
   LULTRA =        F    use ultrasoft PP ?                                                          
   IUNSCR =        0    unscreen: 0-lin 1-nonlin 2-no                                               
   RPACOR =     .000    partial core radius                                                         
   POMASS =   16.000; ZVAL   =    6.000    mass and valenz                                          
   RCORE  =    1.520    outmost cutoff radius                                                       
   RWIGS  =    1.550; RWIGS  =     .820    wigner-seitz radius (au A)                               
   ENMAX  =  400.000; ENMIN  =  300.000 eV                                                          
   ICORE  =        2    local potential                                                             
   LCOR   =        T    correct aug charges                                                         
   LPAW   =        T    paw PP                                                                      
   EAUG   =  605.392                                                                                
   DEXC   =     .000                                                                                
   RMAX   =    2.264    core radius for proj-oper                                                   
   RAUG   =    1.300    factor for augmentation sphere                                              
   RDEP   =    1.550    radius for radial grids                                                     
   QCUT   =   -5.520; QGAM   =   11.041    optimization parameters                                  
                                                                                                    
   Description                                                                                      
     l     E      TYP  RCUT    TYP  RCUT                                                            
     0   .000     23  1.200                                                                         
     0  -.700     23  1.200                                                                         
     1   .000     23  1.520                                                                         
     1   .600     23  1.520                                                                         
     2   .000      7  1.500                                                                         
  local pseudopotential read in
  atomic valenz-charges read in
  non local Contribution for L=            0  read in
    real space projection operators read in
  non local Contribution for L=            0  read in
    real space projection operators read in
  non local Contribution for L=            1  read in
    real space projection operators read in
  non local Contribution for L=            1  read in
    real space projection operators read in
    PAW grid and wavefunctions read in
 
   number of l-projection  operators is LMAX  =            4
   number of lm-projection operators is LMMAX =            8
 
 POTCAR:   PAW_PBE H 15Jun2001                    
   VRHFIN =H: ultrasoft test                                                                        
   LEXCH  = PE                                                                                      
   EATOM  =    12.4884 eV,     .9179 Ry                                                             
                                                                                                    
   TITEL  = PAW_PBE H 15Jun2001                                                                     
   LULTRA =        F    use ultrasoft PP ?                                                          
   IUNSCR =        0    unscreen: 0-lin 1-nonlin 2-no                                               
   RPACOR =     .000    partial core radius                                                         
   POMASS =    1.000; ZVAL   =    1.000    mass and valenz                                          
   RCORE  =    1.100    outmost cutoff radius                                                       
   RWIGS  =     .700; RWIGS  =     .370    wigner-seitz radius (au A)                               
   ENMAX  =  250.000; ENMIN  =  200.000 eV                                                          
   RCLOC  =     .701    cutoff for local pot                                                        
   LCOR   =        T    correct aug charges                                                         
   LPAW   =        T    paw PP                                                                      
   EAUG   =  400.000                                                                                
   RMAX   =    2.174    core radius for proj-oper                                                   
   RAUG   =    1.200    factor for augmentation sphere                                              
   RDEP   =    1.112    radius for radial grids                                                     
   QCUT   =   -5.749; QGAM   =   11.498    optimization parameters                                  
                                                                                                    
   Description                                                                                      
     l     E      TYP  RCUT    TYP  RCUT                                                            
     0   .000     23  1.100                                                                         
     0   .500     23  1.100                                                                         
     1  -.300     23  1.100                                                                         
  local pseudopotential read in
  atomic valenz-charges read in
  non local Contribution for L=            0  read in
    real space projection operators read in
  non local Contribution for L=            0  read in
    real space projection operators read in
  non local Contribution for L=            1  read in
    real space projection operators read in
    PAW grid and wavefunctions read in
 
   number of l-projection  operators is LMAX  =            3
   number of lm-projection operators is LMMAX =            5
 
 -----------------------------------------------------------------------------
|                                                                             |
|               ----> ADVICE to this user running VASP <----                  |
|                                                                             |
|     You have a (more or less) 'large supercell' and for larger cells it     |
|     might be more efficient to use real-space projection operators.         |
|     Therefore, try LREAL= Auto in the INCAR file.                           |
|     Mind: If you want to do very accurate calculations, keep the            |
|     reciprocal projection scheme (i.e. LREAL=.FALSE.).                      |
|                                                                             |
 -----------------------------------------------------------------------------

 PAW_PBE C 08Apr2002                    :
 energy of atom  1       EATOM= -147.1560
 kinetic energy error for atom=    0.0288 (will be added to EATOM!!)
  PAW_PBE S 17Jan2003                   :
 energy of atom  2       EATOM= -276.8230
 kinetic energy error for atom=    0.0046 (will be added to EATOM!!)
 PAW_PBE O 08Apr2002                    :
 energy of atom  3       EATOM= -432.3788
 kinetic energy error for atom=    0.1156 (will be added to EATOM!!)
 PAW_PBE H 15Jun2001                    :
 energy of atom  4       EATOM=  -12.4884
 kinetic energy error for atom=    0.0098 (will be added to EATOM!!)
 
 
 POSCAR:  C  S  O  H
  positions in cartesian coordinates
  No initial velocities read in
 exchange correlation table for  LEXCH =        8
   RHO(1)=    0.500       N(1)  =     2000
   RHO(2)=  100.500       N(2)  =     4000
 


--------------------------------------------------------------------------------------------------------


 ion  position               nearest neighbor table
   1  0.371  0.539  0.002-  85 1.42 363 1.42 288 1.43
   2  0.368  0.544  0.063- 108 1.42  85 1.42   3 1.43
   3  0.338  0.595  0.061-   4 1.42   8 1.42   2 1.43
   4  0.320  0.612  0.030-   3 1.42 288 1.42   5 1.43
   5  0.278  0.629  0.028- 310 1.42  10 1.42   4 1.43
   6  0.366  0.549  0.123- 131 1.42 108 1.42   7 1.43
   7  0.334  0.599  0.122-   8 1.42  16 1.42   6 1.43
   8  0.316  0.614  0.090-   7 1.42   3 1.42   9 1.43
   9  0.273  0.629  0.089-  10 1.42  18 1.42   8 1.43
  10  0.253  0.627  0.057-   9 1.42   5 1.42  11 1.43
  11  0.212  0.603  0.056-  12 1.42  20 1.42  10 1.43
  12  0.195  0.584  0.024-  11 1.42 311 1.42  13 1.43
  13  0.168  0.528  0.023- 329 1.42  22 1.42  12 1.43
  14  0.364  0.555  0.184- 154 1.42 131 1.42  15 1.43
  15  0.331  0.602  0.182-  16 1.42  28 1.42  14 1.43
  16  0.313  0.617  0.151-  15 1.42   7 1.42  17 1.43
  17  0.269  0.629  0.149-  18 1.42  30 1.42  16 1.43
  18  0.249  0.626  0.118-  17 1.42   9 1.42  19 1.43
  19  0.208  0.600  0.116-  20 1.42  32 1.42  18 1.43
  20  0.192  0.580  0.085-  19 1.42  11 1.42  21 1.43
  21  0.166  0.522  0.083-  22 1.42  34 1.42  20 1.43
  22  0.159  0.491  0.052-  21 1.42  13 1.42  23 1.43
  23  0.155  0.420  0.050-  24 1.42  36 1.42  22 1.43
  24  0.159  0.388  0.019-  23 1.42 330 1.42  25 1.43
  25  0.178  0.324  0.017- 344 1.42  38 1.42  24 1.43
  26  0.361  0.560  0.244- 177 1.42 154 1.42  27 1.43
  27  0.327  0.606  0.242-  28 1.42  45 1.42  26 1.43
  28  0.309  0.619  0.211-  27 1.42  15 1.42  29 1.43
  29  0.265  0.629  0.209-  30 1.42  47 1.42  28 1.43
  30  0.245  0.625  0.178-  29 1.42  17 1.42  31 1.43
  31  0.205  0.596  0.176-  32 1.42  49 1.42  30 1.43
  32  0.189  0.575  0.145-  31 1.42  19 1.42  33 1.43
  33  0.164  0.516  0.143-  34 1.42  51 1.42  32 1.43
  34  0.158  0.485  0.112-  33 1.42  21 1.42  35 1.43
  35  0.155  0.414  0.110-  36 1.42  53 1.42  34 1.43
  36  0.160  0.382  0.079-  35 1.42  23 1.42  37 1.43
  37  0.181  0.319  0.078-  38 1.42  55 1.42  36 1.43
  38  0.195  0.295  0.046-  37 1.42  25 1.42  39 1.43
  39  0.233  0.260  0.045-  40 1.42  57 1.42  38 1.43
  40  0.253  0.252  0.013-  39 1.42 345 1.42  41 1.43
  41  0.297  0.254  0.012- 355 1.42  59 1.42  40 1.43
  42  0.371  0.539  0.336-  43 1.42 199 1.42  64 1.43
  43  0.359  0.565  0.305-  42 1.42 177 1.42  44 1.43
  44  0.324  0.609  0.303-  45 1.42  66 1.42  43 1.43
  45  0.305  0.621  0.272-  44 1.42  27 1.42  46 1.43
  46  0.261  0.628  0.270-  47 1.42  68 1.42  45 1.43
  47  0.241  0.623  0.239-  46 1.42  29 1.42  48 1.43
  48  0.202  0.592  0.237-  49 1.42  70 1.42  47 1.43
  49  0.186  0.570  0.206-  48 1.42  31 1.42  50 1.43
  50  0.163  0.510  0.204-  51 1.42  72 1.42  49 1.43
  51  0.157  0.479  0.173-  50 1.42  33 1.42  52 1.43
  52  0.156  0.407  0.171-  53 1.42  74 1.42  51 1.43
  53  0.161  0.375  0.140-  52 1.42  35 1.42  54 1.43
  54  0.183  0.314  0.138-  55 1.42  76 1.42  53 1.43
  55  0.198  0.291  0.107-  54 1.42  37 1.42  56 1.43
  56  0.237  0.257  0.105-  57 1.42  78 1.42  55 1.43
  57  0.257  0.251  0.074-  56 1.42  39 1.42  58 1.43
  58  0.301  0.255  0.072-  59 1.42  80 1.42  57 1.43
  59  0.320  0.266  0.041-  58 1.42  41 1.42  60 1.43
  60  0.355  0.308  0.039-  61 1.42  82 1.42  59 1.43
  61  0.368  0.334  0.008-  60 1.42 356 1.42  62 1.43
  62  0.385  0.400  0.006- 362 1.42  84 1.42  61 1.43
  63  0.370  0.544  0.396-  64 1.41  87 1.43 221 1.44
  64  0.357  0.570  0.365-  63 1.41  42 1.43  65 1.43
  65  0.320  0.611  0.363-  66 1.42  89 1.42  64 1.43
  66  0.301  0.622  0.332-  65 1.42  44 1.42  67 1.43
  67  0.257  0.627  0.330-  91 1.42  68 1.42  66 1.43
  68  0.237  0.621  0.299-  67 1.42  46 1.42  69 1.43
  69  0.198  0.588  0.297-  70 1.42  93 1.42  68 1.43
  70  0.184  0.565  0.266-  69 1.42  48 1.42  71 1.43
  71  0.161  0.504  0.264-  72 1.42  95 1.42  70 1.43
  72  0.156  0.472  0.233-  71 1.42  50 1.42  73 1.43
  73  0.156  0.401  0.231-  74 1.42  97 1.42  72 1.43
  74  0.162  0.369  0.200-  73 1.42  52 1.42  75 1.43
  75  0.186  0.309  0.198-  76 1.42  99 1.42  74 1.43
  76  0.201  0.287  0.167-  75 1.42  54 1.42  77 1.43
  77  0.241  0.256  0.165-  78 1.42 101 1.42  76 1.43
  78  0.261  0.250  0.134-  77 1.42  56 1.42  79 1.43
  79  0.304  0.257  0.132-  80 1.42 103 1.42  78 1.43
  80  0.323  0.269  0.101-  79 1.42  58 1.42  81 1.43
  81  0.358  0.313  0.100-  82 1.42 105 1.42  80 1.43
  82  0.370  0.339  0.068-  81 1.42  60 1.42  83 1.43
  83  0.386  0.406  0.067-  84 1.42 107 1.42  82 1.43
  84  0.388  0.439  0.035-  83 1.42  62 1.42  85 1.43
  85  0.380  0.509  0.034-   1 1.42   2 1.42  84 1.43
  86  0.367  0.550  0.457- 110 1.40  87 1.40 243 1.53
  87  0.353  0.573  0.426-  86 1.40  88 1.43  63 1.43
  88  0.316  0.611  0.424- 112 1.42  89 1.42  87 1.43
  89  0.297  0.622  0.393-  88 1.42  65 1.42  90 1.43
  90  0.253  0.626  0.391-  91 1.42 114 1.42  89 1.43
  91  0.233  0.618  0.360-  90 1.42  67 1.42  92 1.43
  92  0.195  0.584  0.358-  93 1.42 116 1.42  91 1.43
  93  0.181  0.560  0.327-  92 1.42  69 1.42  94 1.43
  94  0.159  0.498  0.325-  95 1.42 118 1.42  93 1.43
  95  0.155  0.466  0.294-  94 1.42  71 1.42  96 1.43
  96  0.157  0.394  0.292-  97 1.42 120 1.42  95 1.43
  97  0.164  0.363  0.261-  96 1.42  73 1.42  98 1.43
  98  0.189  0.304  0.259-  99 1.42 122 1.42  97 1.43
  99  0.204  0.283  0.228-  98 1.42  75 1.42 100 1.43
 100  0.244  0.254  0.226- 101 1.42 124 1.42  99 1.43
 101  0.265  0.249  0.195- 100 1.42  77 1.42 102 1.43
 102  0.308  0.259  0.193- 103 1.42 126 1.42 101 1.43
 103  0.327  0.272  0.162- 102 1.42  79 1.42 104 1.43
 104  0.361  0.318  0.160- 105 1.42 128 1.42 103 1.43
 105  0.372  0.345  0.129- 104 1.42  81 1.42 106 1.43
 106  0.387  0.412  0.127- 107 1.42 130 1.42 105 1.43
 107  0.388  0.445  0.096- 106 1.42  83 1.42 108 1.43
 108  0.378  0.515  0.094-   2 1.42   6 1.42 107 1.43
 109  0.365  0.555  0.517- 133 1.42 265 1.43 110 1.43
 110  0.350  0.577  0.486-  86 1.40 111 1.43 109 1.43
 111  0.312  0.614  0.484- 112 1.42 135 1.42 110 1.43
 112  0.293  0.623  0.453- 111 1.42  88 1.42 113 1.43
 113  0.249  0.625  0.451- 114 1.42 137 1.42 112 1.43
 114  0.229  0.616  0.420- 113 1.42  90 1.42 115 1.43
 115  0.192  0.579  0.418- 116 1.42 139 1.42 114 1.43
 116  0.178  0.555  0.387- 115 1.42  92 1.42 117 1.43
 117  0.158  0.491  0.385- 118 1.42 141 1.42 116 1.43
 118  0.154  0.459  0.354- 117 1.42  94 1.42 119 1.43
 119  0.158  0.388  0.352- 120 1.42 143 1.42 118 1.43
 120  0.165  0.357  0.321- 119 1.42  96 1.42 121 1.43
 121  0.191  0.300  0.319- 122 1.42 145 1.42 120 1.43
 122  0.208  0.279  0.288- 121 1.42  98 1.42 123 1.43
 123  0.248  0.253  0.286- 124 1.42 147 1.42 122 1.43
 124  0.269  0.249  0.255- 123 1.42 100 1.42 125 1.43
 125  0.312  0.261  0.253- 126 1.42 149 1.42 124 1.43
 126  0.330  0.276  0.222- 125 1.42 102 1.42 127 1.43
 127  0.363  0.323  0.220- 128 1.42 151 1.42 126 1.43
 128  0.374  0.351  0.189- 127 1.42 104 1.42 129 1.43
 129  0.387  0.419  0.187- 130 1.42 153 1.42 128 1.43
 130  0.387  0.452  0.156- 129 1.42 106 1.42 131 1.43
 131  0.376  0.521  0.154-   6 1.42  14 1.42 130 1.43
 132  0.362  0.560  0.578- 156 1.42 287 1.42 133 1.42
 133  0.348  0.583  0.546- 109 1.42 132 1.42 134 1.43
 134  0.309  0.618  0.544- 135 1.42 158 1.42 133 1.43
 135  0.289  0.625  0.513- 134 1.42 111 1.42 136 1.43
 136  0.245  0.623  0.512- 160 1.42 137 1.42 135 1.43
 137  0.226  0.614  0.480- 113 1.42 136 1.42 138 1.43
 138  0.189  0.575  0.479- 139 1.42 162 1.42 137 1.43
 139  0.175  0.550  0.447- 138 1.42 115 1.42 140 1.43
 140  0.157  0.485  0.446- 141 1.42 164 1.42 139 1.43
 141  0.154  0.453  0.414- 140 1.42 117 1.42 142 1.43
 142  0.159  0.382  0.413- 143 1.42 166 1.42 141 1.43
 143  0.167  0.351  0.382- 142 1.42 119 1.42 144 1.43
 144  0.194  0.295  0.380- 145 1.42 168 1.42 143 1.43
 145  0.211  0.276  0.349- 144 1.42 121 1.42 146 1.43
 146  0.252  0.252  0.347- 147 1.42 170 1.42 145 1.43
 147  0.273  0.250  0.316- 146 1.42 123 1.42 148 1.43
 148  0.316  0.264  0.314- 149 1.42 172 1.42 147 1.43
 149  0.334  0.279  0.283- 148 1.42 125 1.42 150 1.43
 150  0.366  0.328  0.281- 151 1.42 174 1.42 149 1.43
 151  0.376  0.356  0.250- 150 1.42 127 1.42 152 1.43
 152  0.387  0.425  0.248- 153 1.42 176 1.42 151 1.43
 153  0.387  0.458  0.217- 152 1.42 129 1.42 154 1.43
 154  0.375  0.527  0.215-  14 1.42  26 1.42 153 1.43
 155  0.359  0.565  0.638- 179 1.42 156 1.42 309 1.43
 156  0.344  0.588  0.607- 132 1.42 155 1.42 157 1.43
 157  0.305  0.621  0.605- 181 1.42 158 1.42 156 1.43
 158  0.285  0.627  0.574- 134 1.42 157 1.42 159 1.43
 159  0.241  0.622  0.572- 160 1.42 183 1.42 158 1.43
 160  0.222  0.611  0.541- 159 1.42 136 1.42 161 1.43
 161  0.186  0.570  0.539- 185 1.42 162 1.42 160 1.43
 162  0.173  0.544  0.508- 161 1.42 138 1.42 163 1.43
 163  0.156  0.479  0.506- 164 1.42 187 1.42 162 1.43
 164  0.153  0.446  0.475- 163 1.42 140 1.42 165 1.43
 165  0.160  0.375  0.473- 166 1.42 189 1.42 164 1.43
 166  0.169  0.345  0.442- 165 1.42 142 1.42 167 1.43
 167  0.197  0.291  0.440- 168 1.42 191 1.42 166 1.43
 168  0.214  0.273  0.409- 167 1.42 144 1.42 169 1.43
 169  0.256  0.252  0.407- 170 1.42 193 1.42 168 1.43
 170  0.277  0.250  0.376- 169 1.42 146 1.42 171 1.43
 171  0.319  0.268  0.374- 172 1.42 195 1.42 170 1.43
 172  0.337  0.283  0.343- 171 1.42 148 1.42 173 1.42
 173  0.368  0.334  0.341- 174 1.42 197 1.42 172 1.42
 174  0.378  0.362  0.310- 173 1.42 150 1.42 175 1.43
 175  0.388  0.432  0.308- 176 1.42 199 1.42 174 1.43
 176  0.387  0.465  0.277- 175 1.42 152 1.42 177 1.43
 177  0.373  0.533  0.275-  26 1.42  43 1.42 176 1.43
 178  0.356  0.570  0.698- 201 1.42 179 1.42 328 1.43
 179  0.341  0.592  0.667- 155 1.42 178 1.42 180 1.43
 180  0.301  0.623  0.665- 203 1.42 181 1.42 179 1.43
 181  0.281  0.628  0.634- 157 1.42 180 1.42 182 1.43
 182  0.237  0.621  0.632- 183 1.42 205 1.42 181 1.43
 183  0.219  0.609  0.601- 182 1.42 159 1.42 184 1.43
 184  0.184  0.565  0.600- 207 1.42 185 1.42 183 1.43
 185  0.171  0.539  0.568- 161 1.42 184 1.42 186 1.43
 186  0.155  0.472  0.567- 187 1.42 209 1.42 185 1.43
 187  0.153  0.439  0.535- 186 1.42 163 1.42 188 1.43
 188  0.162  0.369  0.534- 189 1.42 211 1.42 187 1.43
 189  0.171  0.340  0.502- 188 1.42 165 1.42 190 1.43
 190  0.201  0.287  0.501- 191 1.42 213 1.42 189 1.43
 191  0.218  0.270  0.469- 190 1.42 167 1.42 192 1.42
 192  0.260  0.251  0.468- 193 1.42 215 1.42 191 1.42
 193  0.280  0.252  0.437- 192 1.42 169 1.42 194 1.42
 194  0.323  0.272  0.435- 195 1.42 193 1.42 217 1.43
 195  0.340  0.289  0.404- 194 1.42 171 1.42 196 1.42
 196  0.370  0.341  0.402- 197 1.42 195 1.42 219 1.43
 197  0.379  0.369  0.370- 196 1.42 198 1.42 173 1.42
 198  0.388  0.439  0.368- 199 1.42 221 1.42 197 1.42
 199  0.386  0.472  0.337- 198 1.42 175 1.42  42 1.42
 200  0.353  0.574  0.759- 223 1.42 201 1.42 343 1.43
 201  0.338  0.595  0.728- 178 1.42 200 1.42 202 1.43
 202  0.297  0.625  0.726- 203 1.42 225 1.42 201 1.43
 203  0.277  0.629  0.695- 202 1.42 180 1.42 204 1.43
 204  0.234  0.619  0.693- 227 1.42 205 1.42 203 1.43
 205  0.215  0.606  0.662- 182 1.42 204 1.42 206 1.43
 206  0.181  0.560  0.660- 207 1.42 229 1.42 205 1.43
 207  0.169  0.533  0.629- 206 1.42 184 1.42 208 1.43
 208  0.155  0.466  0.627- 209 1.42 231 1.42 207 1.43
 209  0.154  0.433  0.596- 208 1.42 186 1.42 210 1.43
 210  0.164  0.363  0.594- 211 1.42 233 1.42 209 1.43
 211  0.173  0.334  0.563- 210 1.42 188 1.42 212 1.43
 212  0.204  0.283  0.561- 213 1.42 235 1.42 211 1.43
 213  0.222  0.267  0.530- 212 1.42 190 1.42 214 1.43
 214  0.264  0.250  0.528- 215 1.42 237 1.42 213 1.43
 215  0.285  0.252  0.497- 214 1.42 192 1.42 216 1.42
 216  0.326  0.275  0.495- 239 1.42 215 1.42 217 1.42
 217  0.343  0.294  0.464- 218 1.42 216 1.42 194 1.43
 218  0.372  0.348  0.462- 217 1.42 241 1.43 219 1.43
 219  0.381  0.377  0.431- 220 1.41 196 1.43 218 1.43
 220  0.391  0.446  0.429- 219 1.41 221 1.41 243 1.50
 221  0.387  0.478  0.398- 220 1.41 198 1.42  63 1.44
 222  0.350  0.579  0.819- 223 1.42 245 1.42 354 1.43
 223  0.334  0.599  0.788- 222 1.42 200 1.42 224 1.43
 224  0.293  0.626  0.786- 247 1.42 225 1.42 223 1.43
 225  0.273  0.629  0.755- 224 1.42 202 1.42 226 1.43
 226  0.230  0.617  0.753- 227 1.42 249 1.42 225 1.43
 227  0.212  0.603  0.722- 226 1.42 204 1.42 228 1.43
 228  0.179  0.555  0.720- 229 1.42 251 1.42 227 1.43
 229  0.168  0.528  0.689- 228 1.42 206 1.42 230 1.43
 230  0.155  0.459  0.688- 231 1.42 253 1.42 229 1.43
 231  0.154  0.426  0.656- 230 1.42 208 1.42 232 1.43
 232  0.165  0.357  0.655- 233 1.42 255 1.42 231 1.43
 233  0.176  0.329  0.623- 232 1.42 210 1.42 234 1.43
 234  0.207  0.280  0.622- 235 1.42 257 1.42 233 1.43
 235  0.225  0.264  0.590- 234 1.42 212 1.42 236 1.43
 236  0.268  0.250  0.588- 237 1.42 259 1.42 235 1.43
 237  0.289  0.252  0.557- 214 1.42 236 1.42 238 1.43
 238  0.330  0.277  0.555- 239 1.42 261 1.42 237 1.43
 239  0.346  0.297  0.524- 216 1.42 238 1.42 240 1.42
 240  0.374  0.352  0.523- 263 1.42 239 1.42 241 1.43
 241  0.382  0.383  0.492- 242 1.41 240 1.43 218 1.43
 242  0.392  0.453  0.490- 241 1.41 265 1.42 243 1.50
 243  0.396  0.490  0.458- 368 1.12 242 1.50 220 1.50  86 1.53
 244  0.347  0.583  0.880- 245 1.42 267 1.42 361 1.43
 245  0.331  0.603  0.849- 244 1.42 222 1.42 246 1.43
 246  0.289  0.627  0.847- 247 1.42 269 1.42 245 1.43
 247  0.269  0.629  0.816- 246 1.42 224 1.42 248 1.43
 248  0.226  0.615  0.814- 249 1.42 271 1.42 247 1.43
 249  0.208  0.599  0.783- 248 1.42 226 1.42 250 1.43
 250  0.176  0.550  0.781- 251 1.42 273 1.42 249 1.43
 251  0.166  0.522  0.750- 250 1.42 228 1.42 252 1.43
 252  0.155  0.453  0.748- 253 1.42 275 1.42 251 1.43
 253  0.155  0.420  0.717- 252 1.42 230 1.42 254 1.43
 254  0.167  0.351  0.715- 255 1.42 277 1.42 253 1.43
 255  0.178  0.324  0.684- 254 1.42 232 1.42 256 1.43
 256  0.211  0.276  0.682- 257 1.42 279 1.42 255 1.43
 257  0.229  0.262  0.651- 256 1.42 234 1.42 258 1.43
 258  0.273  0.249  0.649- 259 1.42 281 1.42 257 1.43
 259  0.293  0.253  0.618- 258 1.42 236 1.42 260 1.43
 260  0.334  0.279  0.616- 261 1.42 283 1.42 259 1.43
 261  0.350  0.300  0.585- 260 1.42 238 1.42 262 1.42
 262  0.376  0.357  0.583- 285 1.42 263 1.42 261 1.42
 263  0.383  0.388  0.552- 240 1.42 262 1.42 264 1.42
 264  0.388  0.459  0.550- 265 1.42 287 1.42 263 1.42
 265  0.385  0.491  0.519- 242 1.42 264 1.42 109 1.43
 266  0.344  0.587  0.940- 267 1.42 289 1.42 364 1.43
 267  0.327  0.606  0.909- 266 1.42 244 1.42 268 1.43
 268  0.286  0.628  0.907- 269 1.42 291 1.42 267 1.43
 269  0.265  0.629  0.876- 268 1.42 246 1.42 270 1.43
 270  0.223  0.612  0.874- 271 1.42 293 1.42 269 1.43
 271  0.205  0.596  0.843- 270 1.42 248 1.42 272 1.43
 272  0.174  0.545  0.841- 273 1.42 295 1.42 271 1.43
 273  0.164  0.516  0.810- 272 1.42 250 1.42 274 1.43
 274  0.154  0.446  0.808- 275 1.42 297 1.42 273 1.43
 275  0.155  0.413  0.777- 274 1.42 252 1.42 276 1.43
 276  0.169  0.346  0.775- 277 1.42 299 1.42 275 1.43
 277  0.181  0.319  0.744- 276 1.42 254 1.42 278 1.43
 278  0.215  0.273  0.742- 279 1.42 301 1.42 277 1.43
 279  0.233  0.259  0.711- 278 1.42 256 1.42 280 1.43
 280  0.277  0.249  0.709- 281 1.42 303 1.42 279 1.43
 281  0.297  0.254  0.678- 280 1.42 258 1.42 282 1.43
 282  0.337  0.283  0.676- 283 1.42 305 1.42 281 1.43
 283  0.353  0.304  0.645- 282 1.42 260 1.42 284 1.43
 284  0.378  0.362  0.644- 285 1.42 307 1.42 283 1.43
 285  0.384  0.394  0.612- 284 1.42 262 1.42 286 1.43
 286  0.387  0.465  0.611- 309 1.42 287 1.42 285 1.43
 287  0.383  0.497  0.580- 264 1.42 286 1.42 132 1.42
 288  0.341  0.591  0.001- 289 1.42   4 1.42   1 1.43
 289  0.324  0.609  0.969- 288 1.42 266 1.42 290 1.43
 290  0.282  0.629  0.968- 291 1.42 310 1.42 289 1.43
 291  0.261  0.629  0.937- 290 1.42 268 1.42 292 1.43
 292  0.219  0.609  0.935- 293 1.42 312 1.42 291 1.43
 293  0.202  0.592  0.904- 292 1.42 270 1.42 294 1.43
 294  0.172  0.539  0.902- 295 1.42 314 1.42 293 1.43
 295  0.163  0.510  0.871- 294 1.42 272 1.42 296 1.43
 296  0.154  0.440  0.869- 297 1.42 316 1.42 295 1.43
 297  0.156  0.407  0.838- 296 1.42 274 1.42 298 1.43
 298  0.171  0.340  0.836- 299 1.42 318 1.42 297 1.43
 299  0.183  0.314  0.805- 298 1.42 276 1.42 300 1.43
 300  0.218  0.270  0.803- 301 1.42 320 1.42 299 1.43
 301  0.237  0.257  0.772- 300 1.42 278 1.42 302 1.43
 302  0.281  0.250  0.770- 303 1.42 322 1.42 301 1.43
 303  0.301  0.255  0.739- 302 1.42 280 1.42 304 1.43
 304  0.340  0.286  0.737- 305 1.42 324 1.42 303 1.43
 305  0.355  0.308  0.706- 304 1.42 282 1.42 306 1.43
 306  0.379  0.368  0.704- 307 1.42 326 1.42 305 1.43
 307  0.385  0.400  0.673- 306 1.42 284 1.42 308 1.43
 308  0.386  0.471  0.671- 309 1.42 328 1.42 307 1.43
 309  0.381  0.503  0.640- 286 1.42 308 1.42 155 1.43
 310  0.257  0.628  0.997-   5 1.42 290 1.42 311 1.43
 311  0.215  0.606  0.995- 312 1.42  12 1.42 310 1.43
 312  0.198  0.588  0.964- 311 1.42 292 1.42 313 1.43
 313  0.170  0.534  0.962- 314 1.42 329 1.42 312 1.43
 314  0.161  0.504  0.931- 313 1.42 294 1.42 315 1.43
 315  0.154  0.433  0.929- 316 1.42 331 1.42 314 1.43
 316  0.157  0.401  0.898- 315 1.42 296 1.42 317 1.43
 317  0.174  0.335  0.896- 318 1.42 333 1.42 316 1.43
 318  0.186  0.309  0.865- 317 1.42 298 1.42 319 1.43
 319  0.222  0.267  0.863- 320 1.42 335 1.42 318 1.43
 320  0.241  0.256  0.832- 319 1.42 300 1.42 321 1.43
 321  0.285  0.250  0.830- 322 1.42 337 1.42 320 1.43
 322  0.305  0.257  0.799- 321 1.42 302 1.42 323 1.43
 323  0.344  0.290  0.797- 324 1.42 339 1.42 322 1.43
 324  0.358  0.313  0.766- 323 1.42 304 1.42 325 1.43
 325  0.381  0.374  0.764- 326 1.42 341 1.42 324 1.43
 326  0.386  0.406  0.733- 325 1.42 306 1.42 327 1.43
 327  0.385  0.478  0.731- 328 1.42 343 1.42 326 1.43
 328  0.379  0.509  0.700- 327 1.42 308 1.42 178 1.43
 329  0.160  0.498  0.991-  13 1.42 313 1.42 330 1.43
 330  0.155  0.427  0.990- 331 1.42  24 1.42 329 1.43
 331  0.158  0.394  0.958- 330 1.42 315 1.42 332 1.43
 332  0.176  0.329  0.957- 333 1.42 344 1.42 331 1.43
 333  0.189  0.304  0.926- 332 1.42 317 1.42 334 1.43
 334  0.226  0.264  0.924- 335 1.42 346 1.42 333 1.43
 335  0.245  0.254  0.893- 334 1.42 319 1.42 336 1.43
 336  0.289  0.251  0.891- 337 1.42 348 1.42 335 1.43
 337  0.308  0.259  0.860- 336 1.42 321 1.42 338 1.43
 338  0.347  0.294  0.858- 339 1.42 350 1.42 337 1.43
 339  0.361  0.318  0.827- 338 1.42 323 1.42 340 1.43
 340  0.382  0.381  0.825- 341 1.42 352 1.42 339 1.43
 341  0.387  0.413  0.794- 340 1.42 325 1.42 342 1.43
 342  0.384  0.484  0.792- 343 1.42 354 1.42 341 1.43
 343  0.378  0.515  0.761- 342 1.42 327 1.42 200 1.43
 344  0.192  0.300  0.986-  25 1.42 332 1.42 345 1.43
 345  0.229  0.262  0.984- 346 1.42  40 1.42 344 1.43
 346  0.249  0.253  0.953- 345 1.42 334 1.42 347 1.43
 347  0.293  0.253  0.951- 348 1.42 355 1.42 346 1.43
 348  0.312  0.261  0.920- 347 1.42 336 1.42 349 1.43
 349  0.350  0.299  0.918- 350 1.42 357 1.42 348 1.43
 350  0.363  0.323  0.887- 349 1.42 338 1.42 351 1.43
 351  0.383  0.387  0.885- 352 1.42 359 1.42 350 1.43
 352  0.387  0.419  0.854- 351 1.42 340 1.42 353 1.43
 353  0.383  0.490  0.852- 354 1.42 361 1.42 352 1.43
 354  0.376  0.521  0.821- 353 1.42 342 1.42 222 1.43
 355  0.316  0.264  0.980-  41 1.42 347 1.42 356 1.43
 356  0.353  0.303  0.979- 357 1.42  61 1.42 355 1.43
 357  0.366  0.328  0.947- 356 1.42 349 1.42 358 1.43
 358  0.384  0.393  0.946- 359 1.42 362 1.42 357 1.43
 359  0.388  0.426  0.915- 358 1.42 351 1.42 360 1.43
 360  0.382  0.497  0.913- 361 1.42 364 1.42 359 1.43
 361  0.375  0.527  0.882- 360 1.42 353 1.42 244 1.43
 362  0.388  0.432  0.975-  62 1.42 358 1.42 363 1.43
 363  0.381  0.503  0.973- 364 1.42   1 1.42 362 1.43
 364  0.373  0.533  0.942- 363 1.42 360 1.42 266 1.43
 365  0.480  0.431  0.500- 366 1.46 367 1.46
 366  0.487  0.377  0.476- 365 1.46
 367  0.488  0.499  0.489- 365 1.46
 368  0.428  0.511  0.458- 243 1.12
 
  LATTYP: Found a simple orthorhombic cell.
 ALAT       =    19.9214134216
 B/A-ratio  =     1.6250001197
 C/A-ratio  =     2.0303804144
  
  Lattice vectors:
  
 A1 = (   0.0000000000, -19.9214134216,   0.0000000000)
 A2 = (  32.3722991943,   0.0000000000,   0.0000000000)
 A3 = (   0.0000000000,   0.0000000000,  40.4480476379)


Analysis of symmetry for initial positions (statically):
=====================================================================
 Subroutine PRICEL returns:
 Original cell was already a primitive cell.
 

 Routine SETGRP: Setting up the symmetry group for a 
 simple orthorhombic supercell.


 Subroutine GETGRP returns: Found  1 space group operations
 (whereof  1 operations were pure point group operations)
 out of a pool of  8 trial point group operations.


The static configuration has the point symmetry C_1 .


Analysis of symmetry for dynamics (positions and initial velocities):
=====================================================================
 Subroutine PRICEL returns:
 Original cell was already a primitive cell.
 

 Routine SETGRP: Setting up the symmetry group for a 
 simple orthorhombic supercell.


 Subroutine GETGRP returns: Found  1 space group operations
 (whereof  1 operations were pure point group operations)
 out of a pool of  8 trial point group operations.


The dynamic configuration has the point symmetry C_1 .


Analysis of constrained symmetry for selective dynamics:
=====================================================================
 Subroutine PRICEL returns:
 Original cell was already a primitive cell.
 

 Routine SETGRP: Setting up the symmetry group for a 
 simple orthorhombic supercell.


 Subroutine GETGRP returns: Found  1 space group operations
 (whereof  1 operations were pure point group operations)
 out of a pool of  8 trial point group operations.


The constrained configuration has the point symmetry C_1 .


Analysis of structural, dynamic, and magnetic symmetry:
=====================================================================
 Subroutine PRICEL returns:
 Original cell was already a primitive cell.
 

 Routine SETGRP: Setting up the symmetry group for a 
 simple orthorhombic supercell.


 Subroutine GETGRP returns: Found  1 space group operations
 (whereof  1 operations were pure point group operations)
 out of a pool of  8 trial point group operations.


The overall configuration has the point symmetry C_1 .


 Subroutine INISYM returns: Found  1 space group operations
 (whereof  1 operations are pure point group operations),
 and found     1 'primitive' translations


----------------------------------------------------------------------------------------

                                     Primitive cell                                     

  volume of cell :   26085.0250

  direct lattice vectors                    reciprocal lattice vectors
    32.372299194  0.000000000  0.000000000     0.030890608  0.000000000  0.000000000
     0.000000000 19.921413422  0.000000000     0.000000000  0.050197241  0.000000000
     0.000000000  0.000000000 40.448047638     0.000000000  0.000000000  0.024723072

  length of vectors
    32.372299194 19.921413422 40.448047638     0.030890608  0.050197241  0.024723072

  position of ions in fractional coordinates (direct lattice)
     0.370679791  0.538516046  0.002444012
     0.368471711  0.544034466  0.062884263
     0.337758284  0.595234187  0.061081345
     0.320211233  0.611637915  0.029918927
     0.277525578  0.628975228  0.028100693
     0.366139025  0.549451561  0.123315479
     0.334359975  0.598915551  0.121521424
     0.316484637  0.614320112  0.090362157
     0.273452672  0.629253780  0.088539673
     0.253257500  0.627046753  0.057380152
     0.211826980  0.602986227  0.055562508
     0.195344990  0.583857555  0.024403334
     0.167840030  0.528052287  0.022587162
     0.363683465  0.554746727  0.183744875
     0.330882695  0.602420857  0.181967208
     0.312688860  0.616798706  0.150807760
     0.269373221  0.629307293  0.148988208
     0.249241712  0.625968010  0.117821609
     0.208356195  0.599561635  0.116001875
     0.192295165  0.579531261  0.084840828
     0.166000035  0.522198163  0.083013309
     0.158771405  0.491448403  0.051864858
     0.154844483  0.420230498  0.050043440
     0.158609081  0.387868704  0.018895182
     0.178235457  0.323879348  0.017088756
     0.361165101  0.559917181  0.244162664
     0.327370206  0.605662567  0.242413771
     0.308861395  0.619048089  0.211262969
     0.265290251  0.629052366  0.209445085
     0.245249768  0.624637902  0.178280153
     0.204943617  0.595908944  0.176448242
     0.189331002  0.575005437  0.145285040
     0.164269697  0.516231775  0.143442380
     0.157717455  0.485094020  0.112288421
     0.155297433  0.413708637  0.110468186
     0.159746163  0.381581682  0.079316213
     0.180707540  0.318717019  0.077508007
     0.194867645  0.295145186  0.046365788
     0.233018156  0.259514722  0.044550328
     0.252696578  0.251553004  0.013405447
     0.296673067  0.253829706  0.011604446
     0.371037996  0.538623863  0.335663105
     0.358778275  0.565032913  0.304599596
     0.323835729  0.608596168  0.302861989
     0.305030480  0.620935949  0.271763520
     0.261217948  0.628347858  0.269925300
     0.241289399  0.622894466  0.238756287
     0.201607797  0.591983418  0.236900954
     0.186452841  0.570259467  0.205720681
     0.162644675  0.510145214  0.203864361
     0.156764210  0.478676359  0.172706923
     0.155857086  0.407187350  0.170889554
     0.160991993  0.375341381  0.139742876
     0.183264859  0.313670675  0.137933666
     0.197932372  0.290922543  0.106791614
     0.236808210  0.257445617  0.104984433
     0.256651831  0.250594850  0.073835687
     0.300554549  0.255352725  0.072037346
     0.319656954  0.266450824  0.040892593
     0.355481160  0.307975368  0.039075911
     0.368165303  0.333689403  0.007926470
     0.385289135  0.399556790  0.006124508
     0.369789530  0.544456528  0.396049612
     0.356504211  0.569748110  0.365224279
     0.320127789  0.610608891  0.363385667
     0.301108359  0.621997046  0.332284364
     0.257187879  0.627026253  0.330408276
     0.237377821  0.620691638  0.299206120
     0.198319089  0.587793426  0.297333156
     0.183615864  0.565348887  0.266150201
     0.161038222  0.503957753  0.264285447
     0.155876875  0.472191570  0.233130316
     0.156486472  0.400692217  0.231315516
     0.162345098  0.369162351  0.200170887
     0.185916674  0.308796464  0.198366430
     0.201060004  0.286870309  0.167221092
     0.240624738  0.255593248  0.165426022
     0.260603728  0.249839390  0.134278391
     0.304383871  0.257068233  0.132477221
     0.323247881  0.269241729  0.101334597
     0.358161353  0.312757488  0.099516740
     0.370301546  0.339176689  0.068368433
     0.386011668  0.405963557  0.066568231
     0.387856214  0.438771045  0.035415683
     0.379696762  0.509036257  0.033599386
     0.366776934  0.549722893  0.456642399
     0.353049433  0.572720607  0.425788033
     0.315961839  0.611319253  0.423805716
     0.296929787  0.622278511  0.392638062
     0.253000680  0.625600479  0.390788517
     0.233374298  0.618366450  0.359615114
     0.194907890  0.583542304  0.357748634
     0.180767409  0.560249967  0.326577903
     0.159454349  0.497693250  0.324719098
     0.155030544  0.465644379  0.293549775
     0.157183046  0.394247366  0.291740500
     0.163753623  0.363062504  0.260596319
     0.188644695  0.304096362  0.258798757
     0.204265277  0.283023854  0.227664984
     0.244484581  0.253997623  0.225881847
     0.264571120  0.249352879  0.194733607
     0.308163250  0.259039172  0.192926161
     0.326753503  0.272252286  0.161773734
     0.360709541  0.317718898  0.159949460
     0.372296047  0.344783985  0.128805077
     0.386566688  0.412426984  0.126997125
     0.387726891  0.445313112  0.095854890
     0.378098241  0.515084498  0.094038598
     0.364890903  0.554894626  0.517250200
     0.350068723  0.576872160  0.485677603
     0.312210685  0.613591614  0.484005506
     0.292821020  0.623034095  0.452981355
     0.248735898  0.624571921  0.451167323
     0.229304945  0.616030141  0.420041206
     0.191580349  0.579235165  0.418191858
     0.177935402  0.555107689  0.387001776
     0.157989878  0.491402565  0.385165678
     0.154231554  0.459114514  0.353990110
     0.157948568  0.387850607  0.352180160
     0.165224411  0.357065233  0.321043727
     0.191420731  0.299592554  0.319246477
     0.207536840  0.279446848  0.288119350
     0.248366684  0.252805932  0.286349276
     0.268546292  0.249222146  0.255193549
     0.311899369  0.261372582  0.253374071
     0.330201043  0.275501726  0.222218429
     0.363181984  0.322857141  0.220377436
     0.374160611  0.350542605  0.189233983
     0.386993946  0.418932369  0.187408060
     0.387438405  0.451862656  0.156272129
     0.376350867  0.521046995  0.154464511
     0.361603442  0.560123867  0.577651071
     0.347582851  0.583075260  0.546240569
     0.308857291  0.617643348  0.544427999
     0.288991163  0.624573068  0.513325859
     0.245026418  0.623174602  0.511560046
     0.225517667  0.613644044  0.480432891
     0.188591318  0.574733701  0.478624842
     0.175287578  0.549959998  0.447471053
     0.156735720  0.485043922  0.445650704
     0.153634428  0.452559802  0.414480141
     0.158873245  0.381551002  0.412659831
     0.166813567  0.351192361  0.381501779
     0.194267847  0.295334851  0.379697276
     0.210852290  0.276146982  0.348565914
     0.252285924  0.252068274  0.346797321
     0.272527112  0.249538211  0.315660938
     0.315607693  0.264150474  0.313832681
     0.333595134  0.279143482  0.282672822
     0.365589166  0.328213335  0.280803517
     0.375953125  0.356447656  0.249637451
     0.387346093  0.425483007  0.247782213
     0.387073273  0.458403076  0.216664326
     0.374516083  0.526944999  0.214875576
     0.358662113  0.564982953  0.638031909
     0.344110388  0.587742396  0.606835683
     0.305067190  0.620777289  0.604944905
     0.285257799  0.626846263  0.573687554
     0.241315499  0.622105988  0.571947894
     0.222051822  0.611111660  0.540875571
     0.185991463  0.570054754  0.539090303
     0.173129637  0.544444331  0.507958994
     0.155941617  0.478643159  0.506158580
     0.153392264  0.445991981  0.474968079
     0.160165297  0.375350670  0.473145520
     0.168584623  0.345449405  0.441967699
     0.197265068  0.291213154  0.440145024
     0.214220101  0.273057453  0.409020255
     0.256218836  0.251707303  0.407230606
     0.276515150  0.250491500  0.376125004
     0.319175154  0.267867295  0.374314810
     0.336878584  0.283428185  0.343103495
     0.367897452  0.333977809  0.341190380
     0.377752342  0.362497898  0.310028293
     0.387721325  0.432166422  0.308122720
     0.386665590  0.464999035  0.277033530
     0.372694459  0.532796746  0.275288288
     0.355874867  0.569746053  0.698448802
     0.340754790  0.591684623  0.667284605
     0.301176684  0.622862763  0.665412923
     0.281245311  0.628393819  0.634195840
     0.237436394  0.620969597  0.632419848
     0.218596733  0.608587413  0.601292958
     0.183555494  0.565326414  0.599530059
     0.171222235  0.538966617  0.568407609
     0.155429716  0.472227402  0.566623616
     0.153475349  0.439434230  0.535468887
     0.161719963  0.369187914  0.533641356
     0.170739217  0.339794012  0.502465647
     0.200509373  0.287205220  0.500645674
     0.217790813  0.270157582  0.469457344
     0.260167309  0.251467701  0.467637453
     0.280479449  0.251887951  0.436514414
     0.322557358  0.272339213  0.434697853
     0.339863827  0.288917562  0.403553302
     0.369819147  0.341159076  0.401649209
     0.379392154  0.369161200  0.370418483
     0.388294615  0.438958787  0.368422062
     0.386334164  0.471711567  0.337320727
     0.353096780  0.574404275  0.758868770
     0.337501123  0.595494894  0.727714446
     0.297288657  0.624526775  0.725877097
     0.277212424  0.629095491  0.694703539
     0.233618473  0.619303441  0.692899459
     0.215061944  0.605938864  0.661736557
     0.181078261  0.560497540  0.659970079
     0.169417478  0.533422522  0.628848046
     0.155064909  0.465813166  0.627070614
     0.153831426  0.432896675  0.595929987
     0.163521778  0.363170273  0.594097825
     0.173109285  0.334258656  0.562917302
     0.203962336  0.283292343  0.561080328
     0.221511411  0.267138859  0.529893858
     0.264298418  0.250481882  0.528047069
     0.284515924  0.252455149  0.496894309
     0.326142856  0.275133484  0.495078706
     0.342981909  0.294397021  0.463970151
     0.371996177  0.347648717  0.462183948
     0.380929160  0.377401930  0.430804260
     0.390891098  0.445955958  0.428511467
     0.387402991  0.478337545  0.397668972
     0.350251238  0.578909935  0.819298150
     0.334205368  0.599118622  0.788151590
     0.293401805  0.625870638  0.786336311
     0.273223111  0.629363750  0.755175434
     0.229869347  0.617175546  0.753361716
     0.211590454  0.602894404  0.722201769
     0.178625741  0.555496067  0.720422556
     0.167628979  0.527755076  0.689286242
     0.154765631  0.459382108  0.687500688
     0.154258350  0.426421460  0.656357647
     0.165394899  0.357254792  0.654527592
     0.175597777  0.328867201  0.623364731
     0.207457827  0.279543880  0.621526842
     0.225349166  0.264316341  0.590344637
     0.268408670  0.249687095  0.588490462
     0.288575480  0.252400951  0.557306860
     0.329900486  0.276872168  0.555498440
     0.346146977  0.296895648  0.524376979
     0.373713404  0.352464522  0.522669664
     0.382157939  0.383475801  0.491630731
     0.391562637  0.452743277  0.490345903
     0.396154446  0.489942042  0.458335271
     0.347315254  0.583252844  0.879740588
     0.330851994  0.602541019  0.848589955
     0.289498857  0.626962784  0.846784154
     0.269256431  0.629341321  0.815632028
     0.226180464  0.614738871  0.813813565
     0.208201158  0.599478033  0.782662091
     0.176265076  0.550285992  0.780870545
     0.165886553  0.521971339  0.749718826
     0.154512288  0.452899872  0.747921855
     0.154743552  0.419950632  0.716782477
     0.167317537  0.351427397  0.714960173
     0.178141123  0.323621201  0.683801350
     0.210976947  0.276039998  0.681968880
     0.229174804  0.261721927  0.650790652
     0.272504987  0.249338482  0.648941313
     0.292625916  0.252880501  0.617771589
     0.333502518  0.279345637  0.615986555
     0.349535891  0.299720393  0.584852761
     0.376024306  0.356744370  0.583171219
     0.383364911  0.387821708  0.552090311
     0.387749030  0.458838562  0.550459100
     0.385430405  0.491429167  0.519328702
     0.344250018  0.587409502  0.940187429
     0.327403193  0.605759959  0.909032203
     0.285552012  0.627839395  0.907225763
     0.265280286  0.629073624  0.876076316
     0.222544678  0.612072526  0.874255546
     0.204899841  0.595825492  0.843104546
     0.174010471  0.544906313  0.841306135
     0.164230706  0.516048011  0.810155769
     0.154327178  0.446374104  0.808346541
     0.155293372  0.413469029  0.777203948
     0.169302814  0.345694161  0.775390061
     0.180718844  0.318505102  0.744231715
     0.214526197  0.272745969  0.742405449
     0.233022342  0.259401065  0.711241334
     0.276587985  0.249382684  0.709402892
     0.296636820  0.253941684  0.678234243
     0.336929116  0.282640685  0.676447314
     0.352552932  0.303677884  0.645295920
     0.377659600  0.362400499  0.643557268
     0.384353338  0.393632613  0.612467479
     0.386773423  0.465042240  0.610737470
     0.382506640  0.497378631  0.579661818
     0.341062291  0.591400116  0.000636186
     0.323855814  0.608790768  0.969476575
     0.281562673  0.628510849  0.967664080
     0.261291063  0.628599688  0.936511783
     0.218939718  0.609222915  0.934690724
     0.201658137  0.592000198  0.903539400
     0.171854299  0.539396268  0.901736499
     0.162696402  0.510012061  0.870589047
     0.154265233  0.439840139  0.868771325
     0.155933312  0.407011363  0.837625122
     0.171378848  0.340064620  0.835817390
     0.183372019  0.313528099  0.804665322
     0.218136865  0.269695535  0.802843896
     0.236906941  0.257375276  0.771684677
     0.280654413  0.249784999  0.769855925
     0.300596583  0.255394134  0.738686938
     0.340255702  0.286352054  0.736888241
     0.355419065  0.308186585  0.705740543
     0.379192497  0.368357741  0.703960127
     0.385105999  0.399913264  0.672842176
     0.386002084  0.471386749  0.671071701
     0.380936669  0.503333870  0.639948112
     0.257284970  0.627924942  0.996944891
     0.215366749  0.606190357  0.995125476
     0.198474798  0.588005895  0.963971832
     0.169798852  0.533777275  0.962163217
     0.161273151  0.503897242  0.931015832
     0.154332192  0.433298103  0.929194952
     0.156701367  0.400590719  0.898048381
     0.173566965  0.334552429  0.896244686
     0.186127192  0.308716710  0.865095338
     0.221801859  0.266870533  0.863274406
     0.240830044  0.255607914  0.832119308
     0.284713858  0.250475172  0.830299030
     0.304527965  0.257163912  0.799135021
     0.343511237  0.290316417  0.797327242
     0.358188647  0.312976409  0.766172820
     0.380664985  0.374439944  0.764369765
     0.385866626  0.406282526  0.733230977
     0.385244182  0.477778970  0.731442804
     0.379453133  0.509377266  0.700314495
     0.159964360  0.497709327  0.991439256
     0.154525327  0.426757329  0.989617430
     0.157592881  0.394200672  0.958471629
     0.175850594  0.329147423  0.956667876
     0.188963922  0.304039573  0.925520610
     0.225511909  0.264229539  0.923699384
     0.244776334  0.254051144  0.892549254
     0.288744569  0.251393584  0.890736886
     0.308411931  0.259190998  0.859576636
     0.346677776  0.294486172  0.857762566
     0.360873194  0.317940774  0.826604620
     0.382049284  0.380619068  0.824792067
     0.386562513  0.412721917  0.793643802
     0.384419580  0.484140526  0.791845998
     0.377929762  0.515386551  0.760708564
     0.191881980  0.299522164  0.985943390
     0.229255000  0.261786630  0.984123474
     0.248734129  0.252700076  0.952977031
     0.292735588  0.252510601  0.951172201
     0.312234931  0.261429378  0.920016477
     0.349732544  0.298837632  0.918198700
     0.363440275  0.323063512  0.887041658
     0.383288135  0.386877234  0.885229274
     0.387130792  0.419209165  0.854072130
     0.383477863  0.490465533  0.852269426
     0.376328333  0.521312458  0.821123149
     0.315993356  0.263835839  0.980454549
     0.352675575  0.303326336  0.978636791
     0.365873237  0.328315282  0.947482410
     0.384374524  0.393190221  0.945675294
     0.387550204  0.425717795  0.914515486
     0.382398707  0.496733705  0.912707643
     0.374607477  0.527163728  0.881557342
     0.387797672  0.432241034  0.974965687
     0.381137609  0.502920602  0.973153288
     0.372729932  0.532897650  0.941998964
     0.480294021  0.430516603  0.499701575
     0.487393866  0.377030227  0.475779737
     0.487871386  0.499424799  0.488904802
     0.428297001  0.510631692  0.457629741

  ion indices of the primitive-cell ions
   primitive index   ion index
                 1           1
                 2           2
                 3           3
                 4           4
                 5           5
                 6           6
                 7           7
                 8           8
                 9           9
                10          10
                11          11
                12          12
                13          13
                14          14
                15          15
                16          16
                17          17
                18          18
                19          19
                20          20
                21          21
                22          22
                23          23
                24          24
                25          25
                26          26
                27          27
                28          28
                29          29
                30          30
                31          31
                32          32
                33          33
                34          34
                35          35
                36          36
                37          37
                38          38
                39          39
                40          40
                41          41
                42          42
                43          43
                44          44
                45          45
                46          46
                47          47
                48          48
                49          49
                50          50
                51          51
                52          52
                53          53
                54          54
                55          55
                56          56
                57          57
                58          58
                59          59
                60          60
                61          61
                62          62
                63          63
                64          64
                65          65
                66          66
                67          67
                68          68
                69          69
                70          70
                71          71
                72          72
                73          73
                74          74
                75          75
                76          76
                77          77
                78          78
                79          79
                80          80
                81          81
                82          82
                83          83
                84          84
                85          85
                86          86
                87          87
                88          88
                89          89
                90          90
                91          91
                92          92
                93          93
                94          94
                95          95
                96          96
                97          97
                98          98
                99          99
               100         100
               101         101
               102         102
               103         103
               104         104
               105         105
               106         106
               107         107
               108         108
               109         109
               110         110
               111         111
               112         112
               113         113
               114         114
               115         115
               116         116
               117         117
               118         118
               119         119
               120         120
               121         121
               122         122
               123         123
               124         124
               125         125
               126         126
               127         127
               128         128
               129         129
               130         130
               131         131
               132         132
               133         133
               134         134
               135         135
               136         136
               137         137
               138         138
               139         139
               140         140
               141         141
               142         142
               143         143
               144         144
               145         145
               146         146
               147         147
               148         148
               149         149
               150         150
               151         151
               152         152
               153         153
               154         154
               155         155
               156         156
               157         157
               158         158
               159         159
               160         160
               161         161
               162         162
               163         163
               164         164
               165         165
               166         166
               167         167
               168         168
               169         169
               170         170
               171         171
               172         172
               173         173
               174         174
               175         175
               176         176
               177         177
               178         178
               179         179
               180         180
               181         181
               182         182
               183         183
               184         184
               185         185
               186         186
               187         187
               188         188
               189         189
               190         190
               191         191
               192         192
               193         193
               194         194
               195         195
               196         196
               197         197
               198         198
               199         199
               200         200
               201         201
               202         202
               203         203
               204         204
               205         205
               206         206
               207         207
               208         208
               209         209
               210         210
               211         211
               212         212
               213         213
               214         214
               215         215
               216         216
               217         217
               218         218
               219         219
               220         220
               221         221
               222         222
               223         223
               224         224
               225         225
               226         226
               227         227
               228         228
               229         229
               230         230
               231         231
               232         232
               233         233
               234         234
               235         235
               236         236
               237         237
               238         238
               239         239
               240         240
               241         241
               242         242
               243         243
               244         244
               245         245
               246         246
               247         247
               248         248
               249         249
               250         250
               251         251
               252         252
               253         253
               254         254
               255         255
               256         256
               257         257
               258         258
               259         259
               260         260
               261         261
               262         262
               263         263
               264         264
               265         265
               266         266
               267         267
               268         268
               269         269
               270         270
               271         271
               272         272
               273         273
               274         274
               275         275
               276         276
               277         277
               278         278
               279         279
               280         280
               281         281
               282         282
               283         283
               284         284
               285         285
               286         286
               287         287
               288         288
               289         289
               290         290
               291         291
               292         292
               293         293
               294         294
               295         295
               296         296
               297         297
               298         298
               299         299
               300         300
               301         301
               302         302
               303         303
               304         304
               305         305
               306         306
               307         307
               308         308
               309         309
               310         310
               311         311
               312         312
               313         313
               314         314
               315         315
               316         316
               317         317
               318         318
               319         319
               320         320
               321         321
               322         322
               323         323
               324         324
               325         325
               326         326
               327         327
               328         328
               329         329
               330         330
               331         331
               332         332
               333         333
               334         334
               335         335
               336         336
               337         337
               338         338
               339         339
               340         340
               341         341
               342         342
               343         343
               344         344
               345         345
               346         346
               347         347
               348         348
               349         349
               350         350
               351         351
               352         352
               353         353
               354         354
               355         355
               356         356
               357         357
               358         358
               359         359
               360         360
               361         361
               362         362
               363         363
               364         364
               365         365
               366         366
               367         367
               368         368

----------------------------------------------------------------------------------------

 
 
 KPOINTS: KPOINTS created by Atomic Simulation Env

Automatic generation of k-mesh.
 Grid dimensions read from file:
 generate k-points for:    1    1    2

 Generating k-lattice:

  Cartesian coordinates                     Fractional coordinates (reciprocal lattice)
     0.030890608  0.000000000  0.000000000     1.000000000  0.000000000  0.000000000
     0.000000000  0.050197241  0.000000000     0.000000000  1.000000000  0.000000000
     0.000000000  0.000000000  0.012361536     0.000000000  0.000000000  0.500000000

  Length of vectors
     0.030890608  0.050197241  0.012361536

  Shift w.r.t. Gamma in fractional coordinates (k-lattice)
     0.000000000  0.000000000  0.000000000

 
 Subroutine IBZKPT returns following result:
 ===========================================
 
 Found      2 irreducible k-points:
 
 Following reciprocal coordinates:
            Coordinates               Weight
  0.000000  0.000000  0.000000      1.000000
  0.000000  0.000000  0.500000      1.000000
 
 Following cartesian coordinates:
            Coordinates               Weight
  0.000000  0.000000  0.000000      1.000000
  0.000000  0.000000  0.012362      1.000000
 


--------------------------------------------------------------------------------------------------------




 Dimension of arrays:
   k-points           NKPTS =      2   k-points in BZ     NKDIM =      2   number of bands    NBANDS=    896
   number of dos      NEDOS =    301   number of ions     NIONS =    368
   non local maximal  LDIM  =      4   non local SUM 2l+1 LMDIM =      8
   total plane-waves  NPLWV = ******
   max r-space proj   IRMAX =      1   max aug-charges    IRDMAX=  10060
   dimension x,y,z NGX =   216 NGY =  140 NGZ =  270
   dimension x,y,z NGXF=   432 NGYF=  280 NGZF=  540
   support grid    NGXF=   432 NGYF=  280 NGZF=  540
   ions per type =             364   1   2   1
   NGX,Y,Z   is equivalent  to a cutoff of  11.09, 11.68, 11.10 a.u.
   NGXF,Y,Z  is equivalent  to a cutoff of  22.19, 23.37, 22.19 a.u.

 SYSTEM =  02_SCF                                  
 POSCAR =   C  S  O  H                             

 Startparameter for this run:
   NWRITE =      2    write-flag & timer
   PREC   = accura    normal or accurate (medium, high low for compatibility)
   ISTART =      0    job   : 0-new  1-cont  2-samecut
   ICHARG =      2    charge: 1-file 2-atom 10-const
   ISPIN  =      2    spin polarized calculation?
   LNONCOLLINEAR =      F non collinear calculations
   LSORBIT =      F    spin-orbit coupling
   INIWAV =      1    electr: 0-lowe 1-rand  2-diag
   LASPH  =      F    aspherical Exc in radial PAW
 Electronic Relaxation 1
   ENCUT  =  400.0 eV  29.40 Ry    5.42 a.u.  52.79 32.49 65.96*2*pi/ulx,y,z
   ENINI  =  400.0     initial cutoff
   ENAUG  =  644.9 eV  augmentation charge cutoff
   NELM   =     60;   NELMIN=  5; NELMDL=  0     # of ELM steps 
   EDIFF  = 0.1E-05   stopping-criterion for ELM
   LREAL  =      F    real-space projection
   NLSPLINE    = F    spline interpolate recip. space projectors
   LCOMPAT=      F    compatible to vasp.4.4
   GGA_COMPAT  = T    GGA compatible to vasp.4.4-vasp.4.6
   LMAXPAW     = -100 max onsite density
   LMAXMIX     =    2 max onsite mixed and CHGCAR
   VOSKOWN=      0    Vosko Wilk Nusair interpolation
   ROPT   =    0.00000   0.00000   0.00000   0.00000
 Ionic relaxation
   EDIFFG = 0.1E-04   stopping-criterion for IOM
   NSW    =      0    number of steps for IOM
   NBLOCK =      1;   KBLOCK =      1    inner block; outer block 
   IBRION =     -1    ionic relax: 0-MD 1-quasi-New 2-CG
   NFREE  =      0    steps in history (QN), initial steepest desc. (CG)
   ISIF   =      2    stress and relaxation
   IWAVPR =     10    prediction:  0-non 1-charg 2-wave 3-comb
   ISYM   =      2    0-nonsym 1-usesym 2-fastsym
   LCORR  =      T    Harris-Foulkes like correction to forces

   POTIM  = 0.5000    time-step for ionic-motion
   TEIN   =    0.0    initial temperature
   TEBEG  =    0.0;   TEEND  =   0.0 temperature during run
   SMASS  =  -3.00    Nose mass-parameter (am)
   estimated Nose-frequenzy (Omega)   =  0.10E-29 period in steps = 0.13E+47 mass=  -0.239E-25a.u.
   SCALEE = 1.0000    scale energy and forces
   NPACO  =    256;   APACO  = 10.0  distance and # of slots for P.C.
   PSTRESS=    0.0 pullay stress

  Mass of Ions in am
   POMASS =  12.01 32.07 16.00  1.00
  Ionic Valenz
   ZVAL   =   4.00  6.00  6.00  1.00
  Atomic Wigner-Seitz radii
   RWIGS  =  -1.00 -1.00 -1.00 -1.00
  virtual crystal weights 
   VCA    =   1.00  1.00  1.00  1.00
   NELECT =    1475.0000    total number of electrons
   NUPDOWN=      -1.0000    fix difference up-down

 DOS related values:
   EMIN   =  10.00;   EMAX   =-10.00  energy-range for DOS
   EFERMI =   0.00;   METHOD = LEGACY      
   ISMEAR =     0;   SIGMA  =   0.01  broadening in eV -4-tet -1-fermi 0-gaus

 Electronic relaxation 2 (details)
   IALGO  =     38    algorithm
   LDIAG  =      T    sub-space diagonalisation (order eigenvalues)
   LSUBROT=      F    optimize rotation matrix (better conditioning)
   TURBO    =      0    0=normal 1=particle mesh
   IRESTART =      0    0=no restart 2=restart with 2 vectors
   NREBOOT  =      0    no. of reboots
   NMIN     =      0    reboot dimension
   EREF     =   0.00    reference energy to select bands
   IMIX   =      4    mixing-type and parameters
     AMIX     =   0.40;   BMIX     =  1.00
     AMIX_MAG =   1.60;   BMIX_MAG =  1.00
     AMIN     =   0.10
     WC   =   100.;   INIMIX=   1;  MIXPRE=   1;  MAXMIX= -45

 Intra band minimization:
   WEIMIN = 0.0000     energy-eigenvalue tresh-hold
   EBREAK =  0.28E-09  absolut break condition
   DEPER  =   0.30     relativ break condition  

   TIME   =   0.40     timestep for ELM

  volume/ion in A,a.u.               =      70.88       478.34
  Fermi-wavevector in a.u.,A,eV,Ry     =   0.628360  1.187428  5.372071  0.394836
  Thomas-Fermi vector in A             =   1.690278
 
 Write flags
   LWAVE        =      T    write WAVECAR
   LDOWNSAMPLE  =      F    k-point downsampling of WAVECAR
   LCHARG       =      T    write CHGCAR
   LVTOT        =      F    write LOCPOT, total local potential
   LVHAR        =      F    write LOCPOT, Hartree potential only
   LELF         =      F    write electronic localiz. function (ELF)
   LORBIT       =     11    0 simple, 1 ext, 2 COOP (PROOUT), +10 PAW based schemes


 Dipole corrections
   LMONO  =      F    monopole corrections only (constant potential shift)
   LDIPOL =      F    correct potential (dipole corrections)
   IDIPOL =      0    1-x, 2-y, 3-z, 4-all directions 
   EPSILON=  1.0000000 bulk dielectric constant

 Exchange correlation treatment:
   GGA     =    PE    GGA type
   LEXCH   =     8    internal setting for exchange type
   LIBXC   =     F    Libxc                    
   VOSKOWN =     0    Vosko Wilk Nusair interpolation
   LHFCALC =     F    Hartree Fock is set to
   LHFONE  =     F    Hartree Fock one center treatment
   AEXX    =    0.0000 exact exchange contribution

 Linear response parameters
   LEPSILON=     F    determine dielectric tensor
   LRPA    =     F    only Hartree local field effects (RPA)
   LNABLA  =     F    use nabla operator in PAW spheres
   LVEL    =     F    velocity operator in full k-point grid
   CSHIFT  =0.1000    complex shift for real part using Kramers Kronig
   OMEGAMAX=  -1.0    maximum frequency
   DEG_THRESHOLD= 0.2000000E-02 threshold for treating states as degnerate
   RTIME   =   -0.100 relaxation time in fs
  (WPLASMAI=    0.000 imaginary part of plasma frequency in eV, 0.658/RTIME)
   DFIELD  = 0.0000000 0.0000000 0.0000000 field for delta impulse in time
 
  Optional k-point grid parameters
   LKPOINTS_OPT  =     F    use optional k-point grid
   KPOINTS_OPT_MODE=     1    mode for optional k-point grid
 
 Orbital magnetization related:
   ORBITALMAG=     F  switch on orbital magnetization
   LCHIMAG   =     F  perturbation theory with respect to B field
   DQ        =  0.001000  dq finite difference perturbation B field
   LLRAUG    =     F  two centre corrections for induced B field
   LBONE     =     F  B-component reconstruction in AE one-centre
   LVGVCALC  =     T  calculate vGv susceptibility
   LVGVAPPL  =     F  apply vGv susceptibility instead of pGv for G=0

 Random number generation:
   RANDOM_GENERATOR = DEFAULT
   PCG_SEED         = not used


--------------------------------------------------------------------------------------------------------


 Static calculation
 charge density and potential will be updated during run
 spin polarized calculation
 Variant of blocked Davidson
 Davidson routine will perform the subspace rotation
 perform sub-space diagonalisation
    after iterative eigenvector-optimisation
 modified Broyden-mixing scheme, WC =      100.0
 initial mixing is a Kerker type mixing with AMIX =  0.4000 and BMIX =      1.0000
 Hartree-type preconditioning will be used
 using additional bands           158
 reciprocal scheme for non local part
 use partial core corrections
 calculate Harris-corrections to forces 
   (improved forces if not selfconsistent)
 use gradient corrections 
 use of overlap-Matrix (Vanderbilt PP)
 Gauss-broadening in eV      SIGMA  =   0.01


--------------------------------------------------------------------------------------------------------


  energy-cutoff  :      400.00
  volume of cell :    26085.03
      direct lattice vectors                 reciprocal lattice vectors
    32.372299194  0.000000000  0.000000000     0.030890608  0.000000000  0.000000000
     0.000000000 19.921413422  0.000000000     0.000000000  0.050197241  0.000000000
     0.000000000  0.000000000 40.448047638     0.000000000  0.000000000  0.024723072

  length of vectors
    32.372299194 19.921413422 40.448047638     0.030890608  0.050197241  0.024723072


 
 k-points in units of 2pi/SCALE and weight: KPOINTS created by Atomic Simulation Env
   0.00000000  0.00000000  0.00000000       0.500
   0.00000000  0.00000000  0.01236154       0.500
 
 k-points in reciprocal lattice and weights: KPOINTS created by Atomic Simulation Env
   0.00000000  0.00000000  0.00000000       0.500
   0.00000000  0.00000000  0.50000000       0.500
 
 position of ions in fractional coordinates (direct lattice) 
   0.37067979  0.53851605  0.00244401
   0.36847171  0.54403447  0.06288426
   0.33775828  0.59523419  0.06108134
   0.32021123  0.61163792  0.02991893
   0.27752558  0.62897523  0.02810069
   0.36613902  0.54945156  0.12331548
   0.33435997  0.59891555  0.12152142
   0.31648464  0.61432011  0.09036216
   0.27345267  0.62925378  0.08853967
   0.25325750  0.62704675  0.05738015
   0.21182698  0.60298623  0.05556251
   0.19534499  0.58385756  0.02440333
   0.16784003  0.52805229  0.02258716
   0.36368347  0.55474673  0.18374488
   0.33088269  0.60242086  0.18196721
   0.31268886  0.61679871  0.15080776
   0.26937322  0.62930729  0.14898821
   0.24924171  0.62596801  0.11782161
   0.20835619  0.59956163  0.11600187
   0.19229517  0.57953126  0.08484083
   0.16600003  0.52219816  0.08301331
   0.15877141  0.49144840  0.05186486
   0.15484448  0.42023050  0.05004344
   0.15860908  0.38786870  0.01889518
   0.17823546  0.32387935  0.01708876
   0.36116510  0.55991718  0.24416266
   0.32737021  0.60566257  0.24241377
   0.30886139  0.61904809  0.21126297
   0.26529025  0.62905237  0.20944509
   0.24524977  0.62463790  0.17828015
   0.20494362  0.59590894  0.17644824
   0.18933100  0.57500544  0.14528504
   0.16426970  0.51623178  0.14344238
   0.15771746  0.48509402  0.11228842
   0.15529743  0.41370864  0.11046819
   0.15974616  0.38158168  0.07931621
   0.18070754  0.31871702  0.07750801
   0.19486765  0.29514519  0.04636579
   0.23301816  0.25951472  0.04455033
   0.25269658  0.25155300  0.01340545
   0.29667307  0.25382971  0.01160445
   0.37103800  0.53862386  0.33566311
   0.35877827  0.56503291  0.30459960
   0.32383573  0.60859617  0.30286199
   0.30503048  0.62093595  0.27176352
   0.26121795  0.62834786  0.26992530
   0.24128940  0.62289447  0.23875629
   0.20160780  0.59198342  0.23690095
   0.18645284  0.57025947  0.20572068
   0.16264467  0.51014521  0.20386436
   0.15676421  0.47867636  0.17270692
   0.15585709  0.40718735  0.17088955
   0.16099199  0.37534138  0.13974288
   0.18326486  0.31367067  0.13793367
   0.19793237  0.29092254  0.10679161
   0.23680821  0.25744562  0.10498443
   0.25665183  0.25059485  0.07383569
   0.30055455  0.25535273  0.07203735
[...]
  243        set_dd_paw                            0.007655                            1   3
  244          set_rsgf_all                          0.000000                          1   4
  245          m_sumb_d                              0.004683                          8   4
  246        strkin                                0.037050                            1   3
  247          m_sumb_d                              0.002235                          1   4
  248        strelo                                0.023640                            1   3
  249          m_sumb_d                              0.000592                          2   4
  250        strenl                               74.962273                            1   3
  251          spher                                 0.357471                         19   4
  252          phase                                 0.000006                          9   4
  253          proj1                                73.931855                       2016   4
  254            crexp_mul_wave                       19.638027                   741888   5
  255            m_sumb_d                              4.498064                     2016   5
  256          m_sumb_d                              0.658906                          1   4
  257        m_sumb_d                              0.001944                            6   3
  258        fft3d_mpi                             0.265542                           22   3
  259          fftbrc_mpi                            0.257181                         22   4
  260            fftbas_plan_mpi                       0.257169                       22   5
  261              dfftw_execute                         0.074294                     66   6
  262              map_forward                           0.085831                     20   6
  263                map_gather                            0.009253                   10   7
  264                m_alltoallv_z                         0.065838                   10   7
  265                map_scatter                           0.010561                   10   7
  266              map_backward                          0.096631                     24   6
  267                map_gather                            0.014178                   12   7
  268                m_alltoallv_z                         0.073465                   12   7
  269                map_scatter                           0.008775                   12   7
  270        forhar                                0.303577                            2   3
  271          m_sumb_d                              0.011961                          2   4
  272        strehar                               0.010745                            1   3
  273          m_sumb_d                              0.001367                          1   4
  274        chggra                                0.052568                            1   3
  275          fft3d_mpi                             0.036186                          3   4
  276            fftbrc_mpi                            0.035814                        3   5
  277              fftbas_plan_mpi                       0.035811                      3   6
  278                dfftw_execute                         0.010349                    9   7
  279                map_backward                          0.007007                    2   7
  280                  map_gather                            0.001127                  1   8
  281                  m_alltoallv_z                         0.005218                  1   8
  282                  map_scatter                           0.000648                  1   8
  283                map_forward                           0.018405                    4   7
  284                  map_gather                            0.002324                  2   8
  285                  m_alltoallv_z                         0.013790                  2   8
  286                  map_scatter                           0.002265                  2   8
  287          m_sumb_d                              0.000028                          2   4
  288          pothar                                0.003881                          1   4
  289            m_sumb_d                              0.000993                        1   5
  290        brmix                                 0.039582                            1   3
  291          m_sumb_d                              0.021382                          6   4
  292          brpre                                 0.000071                          2   4
  293          setg0                                 0.002002                          1   4
  294          broyd                                 0.010862                          1   4
  295            m_sumb_d                              0.001055                       37   5
  296            brsav                                 0.000414                       36   5
  297            brget                                 0.002321                      159   5
  298          m_bcast_z                             0.000705                          1   4
  299          m_bcast_d                             0.000035                          1   4
  300        m_bcast_d                             0.205224                            2   3
  301      potlok                                0.724125                              1   2
  302        fft3d_mpi                             0.305888                           26   3
  303          fftbrc_mpi                            0.297420                         26   4
  304            fftbas_plan_mpi                       0.297407                       26   5
  305              dfftw_execute                         0.088705                     78   6
  306              map_forward                           0.105391                     28   6
  307                map_gather                            0.009793                   16   7
  308                m_alltoallv_z                         0.074663                   16   7
  309                map_scatter                           0.020712                   16   7
  310              map_backward                          0.102866                     24   6
  311                map_gather                            0.015771                   12   7
  312                m_alltoallv_z                         0.076208                   12   7
  313                map_scatter                           0.010700                   12   7
  314        m_sumb_d                              0.000969                            5   3
  315        pothar                                0.003589                            1   3
  316          m_sumb_d                              0.000043                          1   4
  317        m_bcast_d                             0.012444                            2   3
  318      potlok_metagga                        0.000000                              1   2
  319      set_dd_magatom                        0.000000                              1   2
  320      set_dd_paw                            0.009664                              1   2
  321        set_rsgf_all                          0.000001                            1   3
  322        m_sumb_d                              0.006580                            8   3
  323      m_alltoall_d                        114.871883                         119010   2
  324      densta                                0.032911                              1   2
  325        m_sumb_d                              0.001218                           11   3
  326        m_alltoall_d                          0.016330                          314   3
 
 Flat profile
 ============
 
             routine name                   CPU           calls
 ---------------------------------------------------------------
 gemm                                  722.738387     8551952
 proj1                                 430.220259       17639
 dfftw_execute                         288.837338      159690
 m_alltoall_d                          280.127242      327849
 work_mul_crexp                        250.501243     8551952
 orth1                                 215.913224       69773
 ggemm                                 182.592200       31079
 crexp_mul_wave                        174.471673     6491152
 total_time                            160.613239           1
 fornl                                  86.047388           1
 vhamil                                 72.433703       23239
 m_alltoallv_z                          66.070500       53356
 m_sumb_d                               47.067950      156392
 lincom                                 36.673324          72
 eddav                                  34.445525          35
 fftwav_mpi                             25.088880       29005
 m_bcast_z                              23.382449       27340
 wfinit                                 22.374391           1
 map_gather                             22.051382       53356
 map_scatter                            20.566072       53356
 fftext_mpi                             20.053057       23239
 map_forward                            15.328986       58940
 potlok                                 12.257461          32
 pdssyex_zheevx                          9.983750          70
 eccp                                    9.915229        7840
 pw_charge                               9.876834        5766
 vnlac0                                  8.262706       23239
 redis_pw                                3.899760       62021
 lapack                                  3.846214       23239
 w1_copy                                 3.475536       69717
 force_and_stress                        2.732466           1
 hamiltmu                                1.755957       23239
 sphpro_fast                             1.589004           2
 kinhamil                                1.468498       23239
 m_bcast_d                               1.389337       46578
 fftbas_plan_mpi                         1.275924       53230
 setup_precond                           1.064662        7840
 elmin                                   0.406309           1
 apply_precond                           0.392603       15399
 spher                                   0.380785          20
 fft3d_mpi                               0.372001       53230
 soft_charge                             0.347800          31
 setdij_                                 0.325422          59
 forhar                                  0.291616           2
 stufak                                  0.290161           1
 augmentation_charge                     0.289832          31
 forloc                                  0.284352           1
 redis_proj                              0.198190       77422
 brmix                                   0.175764          31
 overl1                                  0.171425       23239
 phase                                   0.168463          82
 overl                                   0.145200       38640
 map_backward                            0.138999       47520
 choleski                                0.125978           2
 newband                                 0.113419       23309
 pothar                                  0.105570          33
 set_dd_paw                              0.099792          33
 broyd                                   0.069369          31
 setg0                                   0.067540          33
 set_charge                              0.043003          31
 w1_projall                              0.039935       15399
 fft_gq                                  0.037614          31
 fftbas_mpi                              0.035698       52244
 strkin                                  0.034815           1
 brget                                   0.034566        2598
 strelo                                  0.023048           1
 densta                                  0.021793          36
 orthch                                  0.015789           1
 strenl                                  0.014035           1
 depsum                                  0.013124          31
 chggra                                  0.012473           1
 strehar                                 0.009378           1
 inisym                                  0.007836           1
 brsav                                   0.006962         626
 truncate_high_frequency_w1              0.005714       31079
 rsp                                     0.004598           1
 brpre                                   0.002244          62
 fewald                                  0.001375           1
 proj                                    0.000656           1
 fftbrc_mpi                              0.000650         986
 brgrid                                  0.000379           1
 rcp                                     0.000298           1
 posmap                                  0.000128           2
 fordep                                  0.000114           1
 crpa_reader                             0.000049           1
 set_rsgf_all                            0.000022          33
 potlok_metagga                          0.000017          32
 FERMAT_RAZOR                            0.000014           1
 vectorpot                               0.000008          32
 proall                                  0.000005           1
 redis_pw_over_bands                     0.000001           1
 set_dd_magatom                          0.000001          33
 rotate_active_occupied_orbital          0.000000           1
 ---------------------------------------------------------------
  summed up times     3275.718682050705     
 
 Accumulative profile
 ====================
 
             routine name                   CPU           calls
 ---------------------------------------------------------------
 total_time                           3275.718682           1
 elmin                                2772.115903           1
 eddav                                2684.776547          35
 hamiltmu                             1255.562570       23239
 vnlac0                                985.201454       23239
 gemm                                  722.738387     8551952
 proj1                                 628.619220       17639
 w1_projall                            546.355017       15399
 fft3d_mpi                             414.677551       53230
 fftbas_plan_mpi                       414.269201       53230
 fftbas_mpi                            401.000466       52244
 dfftw_execute                         288.837338      159690
 m_alltoall_d                          280.127242      327849
 fftwav_mpi                            251.678710       29005
 work_mul_crexp                        250.501243     8551952
 orth1                                 215.913224       69773
 kinhamil                              196.000032       23239
 fftext_mpi                            194.531534       23239
 ggemm                                 182.592200       31079
 crexp_mul_wave                        174.471673     6491152
 force_and_stress                      168.401038           1
 fornl                                  87.325013           1
 newband                                87.235609       23309
 strenl                                 74.962273           1
 map_forward                            73.006070       58940
 vhamil                                 72.433703       23239
 redis_pw                               70.180427       62021
 m_alltoallv_z                          66.070500       53356
 set_charge                             61.338651          31
 soft_charge                            60.148799          31
 redis_proj                             59.055134       77422
 map_backward                           51.149869       47520
 m_sumb_d                               47.067950      156392
 wfinit                                 44.871916           1
 lincom                                 36.673324          72
 potlok                                 24.839122          32
 m_bcast_z                              23.382449       27340
 map_gather                             22.051382       53356
 map_scatter                            20.566072       53356
 fftbrc_mpi                             13.305084         986
 eccp                                   10.242157        7840
 pdssyex_zheevx                          9.983764          70
 pw_charge                               9.876834        5766
 proall                                  8.541380           1
 proj                                    8.372938           1
 lapack                                  3.846214       23239
 w1_copy                                 3.475536       69717
 orthch                                  2.177278           1
 sphpro_fast                             2.118045           2
 densta                                  1.491868          36
 m_bcast_d                               1.389337       46578
 setup_precond                           1.157990        7840
 augmentation_charge                     1.109359          31
 brmix                                   1.097084          31
 setdij_                                 0.623281          59
 set_dd_paw                              0.504215          33
 fft_gq                                  0.411388          31
 apply_precond                           0.392603       15399
 spher                                   0.380785          20
 forhar                                  0.303577           2
 forloc                                  0.292257           1
 stufak                                  0.290161           1
 fewald                                  0.207707           1
 overl1                                  0.171425       23239
 phase                                   0.168463          82
 overl                                   0.145200       38640
 broyd                                   0.137190          31
 choleski                                0.125978           2
 pothar                                  0.125050          33
 setg0                                   0.067540          33
 chggra                                  0.052568           1
 fordep                                  0.043899           1
 depsum                                  0.037490          31
 strkin                                  0.037050           1
 brget                                   0.034566        2598
 strelo                                  0.023640           1
 strehar                                 0.010745           1
 inisym                                  0.007964           1
 brsav                                   0.006962         626
 truncate_high_frequency_w1              0.005714       31079
 rsp                                     0.004598           1
 brpre                                   0.002244          62
 brgrid                                  0.000379           1
 rcp                                     0.000298           1
 posmap                                  0.000128           2
 crpa_reader                             0.000049           1
 set_rsgf_all                            0.000022          33
 potlok_metagga                          0.000017          32
 FERMAT_RAZOR                            0.000014           1
 vectorpot                               0.000008          32
 redis_pw_over_bands                     0.000001           1
 set_dd_magatom                          0.000001          33
 rotate_active_occupied_orbital          0.000000           1
 ---------------------------------------------------------------
 
Profiling took   4.469636  2.092730  0.004554  0.004506 seconds
Profiling took   4.036614 seconds
