 running  256 mpi-ranks, with    1 threads/rank, on    7 nodes
 distrk:  each k-point on  128 cores,    2 groups
 distr:  one band on   16 cores,    8 groups
 vasp.6.4.1 05Apr23 (build May 18 2023 13:19:41) complex                         
 POSCAR found type information on POSCAR C S O H 
 POSCAR found :  4 types and     368 ions
 Reading from existing POTCAR
 scaLAPACK will be used
 Reading from existing POTCAR
 -----------------------------------------------------------------------------
|                                                                             |
|               ----> ADVICE to this user running VASP <----                  |
|                                                                             |
|     You have a (more or less) 'large supercell' and for larger cells it     |
|     might be more efficient to use real-space projection operators.         |
|     Therefore, try LREAL= Auto in the INCAR file.                           |
|     Mind: If you want to do very accurate calculations, keep the            |
|     reciprocal projection scheme (i.e. LREAL=.FALSE.).                      |
|                                                                             |
 -----------------------------------------------------------------------------

 LDA part: xc-table for Pade appr. of Perdew
 POSCAR, INCAR and KPOINTS ok, starting setup
 FFT: planning ... GRIDC
 FFT: planning ... GRID_SOFT
 FFT: planning ... GRID
 WAVECAR not read
 WARNING: random wavefunctions but no delay for mixing, default for NELMDL
 entering main loop
       N       E                     dE             d eps       ncg     rms          rms(c)
DAV:   1     0.134785407720E+05    0.13479E+05   -0.45406E+05  8968   0.941E+02
DAV:   2     0.187497722026E+03   -0.13291E+05   -0.12515E+05 10600   0.245E+02
DAV:   3    -0.335608080057E+04   -0.35436E+04   -0.34923E+04  8920   0.133E+02
DAV:   4    -0.355725095479E+04   -0.20117E+03   -0.19789E+03  8592   0.404E+01
DAV:   5    -0.356288011731E+04   -0.56292E+01   -0.55551E+01  9504   0.604E+00    0.750E+01
DAV:   6    -0.339099452721E+04    0.17189E+03   -0.17747E+02  7872   0.121E+01    0.394E+01
DAV:   7    -0.332924000434E+04    0.61755E+02   -0.17864E+02  7944   0.123E+01    0.746E+00
DAV:   8    -0.332876734100E+04    0.47266E+00   -0.72724E+00  8688   0.271E+00    0.427E+00
DAV:   9    -0.332824804190E+04    0.51930E+00   -0.11912E+00  8336   0.113E+00    0.178E+00
DAV:  10    -0.332815747033E+04    0.90572E-01   -0.19203E-01  8304   0.485E-01    0.860E-01
DAV:  11    -0.332814677744E+04    0.10693E-01   -0.92584E-02  8048   0.264E-01    0.544E-01
DAV:  12    -0.332815769044E+04   -0.10913E-01   -0.57886E-02  7760   0.199E-01    0.332E-01
DAV:  13    -0.332819145559E+04   -0.33765E-01   -0.27040E-02  7816   0.142E-01    0.197E-01
DAV:  14    -0.332821895216E+04   -0.27497E-01   -0.11272E-02  7448   0.922E-02    0.131E-01
DAV:  15    -0.332823879603E+04   -0.19844E-01   -0.43830E-03  7792   0.529E-02    0.841E-02
DAV:  16    -0.332826329229E+04   -0.24496E-01   -0.25559E-03  7720   0.362E-02    0.638E-02
DAV:  17    -0.332829045475E+04   -0.27162E-01   -0.19400E-03  7688   0.305E-02    0.361E-02
DAV:  18    -0.332830487754E+04   -0.14423E-01   -0.93489E-04  8264   0.199E-02    0.254E-02
DAV:  19    -0.332831503959E+04   -0.10162E-01   -0.65739E-04  8064   0.168E-02    0.135E-02
DAV:  20    -0.332831887003E+04   -0.38304E-02   -0.15998E-04  8296   0.886E-03    0.971E-03
DAV:  21    -0.332832073239E+04   -0.18624E-02   -0.49767E-05  6912   0.537E-03    0.624E-03
DAV:  22    -0.332832269704E+04   -0.19647E-02   -0.68981E-05  6544   0.526E-03    0.456E-03
DAV:  23    -0.332832366374E+04   -0.96670E-03   -0.31318E-05  6832   0.374E-03    0.310E-03
DAV:  24    -0.332832417802E+04   -0.51428E-03   -0.15225E-05  6368   0.265E-03    0.192E-03
DAV:  25    -0.332832442875E+04   -0.25073E-03   -0.69240E-06  6528   0.202E-03    0.114E-03
DAV:  26    -0.332832451900E+04   -0.90253E-04   -0.15408E-06  5616   0.130E-03    0.707E-04
DAV:  27    -0.332832456175E+04   -0.42754E-04   -0.34394E-07  4832   0.722E-04    0.462E-04
DAV:  28    -0.332832459796E+04   -0.36211E-04   -0.26530E-07  4576   0.586E-04    0.272E-04
DAV:  29    -0.332832461952E+04   -0.21560E-04   -0.13351E-07  4640   0.444E-04    0.195E-04
DAV:  30    -0.332832462898E+04   -0.94536E-05    0.59793E-09  4432   0.261E-04    0.146E-04
DAV:  31    -0.332832464263E+04   -0.13650E-04    0.25389E-08  4472   0.280E-04    0.811E-05
DAV:  32    -0.332832464832E+04   -0.56928E-05    0.54629E-08  4392   0.175E-04    0.785E-05
DAV:  33    -0.332832465093E+04   -0.26125E-05    0.71525E-08  4456   0.120E-04    0.474E-05
DAV:  34    -0.332832465223E+04   -0.12984E-05    0.74480E-08  4304   0.900E-05    0.380E-05
DAV:  35    -0.332832465254E+04   -0.31025E-06    0.78760E-08  4400   0.469E-05
   1 F= -.33425117E+04 E0= -.33425117E+04  d E =-.881582E-25  mag=     1.0000
 writing wavefunctions
 PROFILE, used timers:     326
