576  
8    

1    
  0.0064867383094889   0.0076106652865705   0.0000000000000000
  -0.0315861600   -0.0405069900   -0.0087812200
   0.0059663800   -0.0073086100   -0.0021562000
   0.0006916300   -0.0022006300   -0.0016396300
   0.0001833900   -0.0014523500   -0.0015727800
   0.0000461000   -0.0016461600   -0.0015491500
   0.0022099000   -0.0040907700   -0.0018074800
  -0.0013045900    0.0000563100   -0.0015125900
   0.0008677400    0.0008408700   -0.0013200500
   0.0003730200   -0.0012208400   -0.0016183600
   0.0001476200   -0.0013433500   -0.0015749600
   0.0001450700   -0.0013301600   -0.0015237100
   0.0004166300   -0.0022852500   -0.0015209500
  -0.0000281000   -0.0011735900   -0.0016089900
  -0.0000369100   -0.0011588300   -0.0016053000
   0.0001005600   -0.0011007200   -0.0016161200
   0.0000614900   -0.0012837100   -0.0015877700
   0.0000161300   -0.0014039400   -0.0015429100
  -0.0001067000   -0.0012075400   -0.0015953600
  -0.0000104900   -0.0012433600   -0.0015794700
  -0.0000112900   -0.0012428200   -0.0015802600
  -0.0000026400   -0.0012546600   -0.0015772600
   0.0000163100   -0.0012757300   -0.0015690500
   0.0000054000   -0.0012627400   -0.0015764100
   0.0000033900   -0.0012539000   -0.0015791400
  -0.0000282800   -0.0011732900   -0.0015716700
  -0.0001000100   -0.0012126900   -0.0015571200
  -0.0001191700   -0.0012881600   -0.0015663300
   0.0000615300   -0.0012844100   -0.0015548100
   0.0002339500   -0.0012163800   -0.0015634900
  -0.0000417600   -0.0011534100   -0.0015767800
  -0.0012835900    0.0000379700   -0.0014247600
  -0.0011964800   -0.0009113600   -0.0015236300
   0.0001970600   -0.0013747000   -0.0015451400
   0.0001474300   -0.0013439600   -0.0015656700
   0.0003191500   -0.0011803800   -0.0015279300
   0.0024504400   -0.0005232900   -0.0018628300
  -0.0000221100   -0.0014194000   -0.0015866300
  -0.0000410800   -0.0013553100   -0.0015424200
   0.0000229600   -0.0013278300   -0.0015412900
   0.0000339700   -0.0013288700   -0.0015501500
   0.0000282000   -0.0013324700   -0.0015532600
   0.0000150300   -0.0014015000   -0.0015475800
  -0.0000293100   -0.0013300900   -0.0015535300
   0.0000022500   -0.0012943700   -0.0015717900
   0.0000226200   -0.0013160900   -0.0015545100
   0.0000269600   -0.0013234300   -0.0015573500
   0.0000097000   -0.0013452900   -0.0015609100
  -0.0000257700   -0.0013620200   -0.0015698400
  -0.0000083300   -0.0012916600   -0.0015643000
  -0.0000023200   -0.0012830600   -0.0015643200
   0.0000105300   -0.0012897400   -0.0015624300
   0.0000116000   -0.0013083300   -0.0015629000
  -0.0000012700   -0.0013184500   -0.0015659600
  -0.0000123800   -0.0013065300   -0.0015634600
  -0.0000040400   -0.0012873400   -0.0015703400
  -0.0000043600   -0.0012876900   -0.0015703200
  -0.0000004000   -0.0012942300   -0.0015694100
   0.0000031700   -0.0013001100   -0.0015696500
   0.0000038200   -0.0012987800   -0.0015674600
   0.0000019400   -0.0012917700   -0.0015695400
  -0.0000078200   -0.0012910700   -0.0015717900
  -0.0000214000   -0.0012987000   -0.0015732700
  -0.0000124300   -0.0013082500   -0.0015675700
   0.0000117700   -0.0013086600   -0.0015612200
   0.0000211800   -0.0012983400   -0.0015705300
   0.0000066600   -0.0012893500   -0.0015716500
  -0.0000287100   -0.0013312500   -0.0015687900
  -0.0000524200   -0.0013416000   -0.0015627500
  -0.0000010700   -0.0013369200   -0.0015419500
   0.0000275200   -0.0013232900   -0.0015500900
   0.0000326300   -0.0013250000   -0.0015605800
   0.0000284600   -0.0013168200   -0.0015478800
  -0.0000631000    0.0011878000    0.0016851500
  -0.0000028200    0.0012828500    0.0016613400
   0.0000426700    0.0013058300    0.0015859200
   0.0000466300    0.0013073500    0.0015712600
   0.0000249500    0.0013058300    0.0015864000
  -0.0000030000    0.0012391200    0.0015866500
  -0.0000203000    0.0013656200    0.0015729500
   0.0000324900    0.0013561200    0.0015580200
   0.0000382200    0.0013374600    0.0015578200
   0.0000283000    0.0013288600    0.0015641200
  -0.0000106700    0.0013194600    0.0015618500
  -0.0000642400    0.0013276700    0.0015563000
  -0.0000040000    0.0013540200    0.0015496800
   0.0000069200    0.0013507600    0.0015473200
   0.0000177800    0.0013433300    0.0015502000
   0.0000059000    0.0013342700    0.0015507400
  -0.0000134600    0.0013344200    0.0015526800
  -0.0000105100    0.0013482300    0.0015517700
  -0.0000013300    0.0013467400    0.0015368600
   0.0000003200    0.0013378500    0.0015371400
  -0.0000043300    0.0013176700    0.0015530500
  -0.0000010400    0.0013218300    0.0015539800
   0.0000085300    0.0013440200    0.0015418500
   0.0000013500    0.0013487300    0.0015372700
  -0.0000072800    0.0013432300    0.0015062300
  -0.0000295000    0.0012792100    0.0015627100
  -0.0000098200    0.0012722000    0.0015844100
   0.0000288600    0.0013046300    0.0015655600
   0.0000147100    0.0013166100    0.0015671200
   0.0000147400    0.0013618100    0.0015294800
  -0.0000482500    0.0013719400    0.0015030300
  -0.0000843400    0.0012232400    0.0016717500
   0.0000317600    0.0012951400    0.0015973400
   0.0000431500    0.0013041100    0.0015713900
   0.0000297200    0.0013200900    0.0015468200
  -0.0000424200    0.0013776600    0.0015402800
   0.0001583300    0.0022033500   -0.0001135200
   0.0002768300    0.0014613200    0.0013261300
   0.0001287400    0.0013581200    0.0015182700
   0.0000753000    0.0013128400    0.0015626400
   0.0000952800    0.0013050600    0.0015749400
  -0.0005498900    0.0015939500    0.0019119400
  -0.0000482200    0.0014395800    0.0014965100
   0.0000831700    0.0014114000    0.0014851900
   0.0000757400    0.0013659300    0.0015300900
   0.0000412000    0.0013371000    0.0015619400
  -0.0000220300    0.0013227400    0.0015692400
  -0.0001403800    0.0013604500    0.0015240000
  -0.0000082700    0.0013761900    0.0015478500
   0.0000081000    0.0013722800    0.0015468800
   0.0000231100    0.0013604400    0.0015470100
   0.0000090800    0.0013497900    0.0015578000
  -0.0000177200    0.0013527500    0.0015531000
  -0.0000145200    0.0013700800    0.0015510500
  -0.0000138300    0.0013863900    0.0015774000
  -0.0000150800    0.0013681200    0.0015744500
  -0.0000074300    0.0013251400    0.0015706600
   0.0000306300    0.0013562200    0.0015770200
   0.0000037600    0.0013845500    0.0015785400
  -0.0000015600    0.0013967200    0.0015764300
  -0.0000981900    0.0014592800    0.0017394800
  -0.0001081200    0.0012901900    0.0016502800
   0.0000160000    0.0011977800    0.0015343600
   0.0001005300    0.0012713700    0.0015688600
   0.0001838800    0.0015361800    0.0017810400
  -0.0001250700    0.0014351100    0.0017676500
  -0.0011204000    0.0008099200    0.0022349300
   0.0000702300    0.0009376300    0.0011525900
   0.0001121100    0.0012724900    0.0014951800
   0.0001103900    0.0012720900    0.0015541300
   0.0003011700    0.0011373600    0.0016319000
   0.0004837500    0.0021596900    0.0036110300
  -0.0000576000    0.0014893900    0.0072462400
   0.0003803900   -0.0014027900    0.0022316500
   0.0001994500   -0.0013788700    0.0016394100
   0.0001148600   -0.0013370400    0.0015601100
   0.0001276500   -0.0012328000    0.0015921800
  -0.0006012200   -0.0018098300    0.0005754400
  -0.0000283200   -0.0010988100    0.0017257900
   0.0000344400   -0.0010278600    0.0019461600
   0.0001234100   -0.0012715500    0.0016338000
   0.0001067200   -0.0013283100    0.0015687900
  -0.0000264600   -0.0015687800    0.0014703100
  -0.0001644100   -0.0011400300    0.0017565500
  -0.0000103000   -0.0012343100    0.0015982400
  -0.0000064800   -0.0012316700    0.0016018200
   0.0000563900   -0.0012184800    0.0016164700
   0.0000212200   -0.0013274800    0.0015701200
  -0.0000330400   -0.0012592200    0.0015867100
  -0.0000084700   -0.0012431400    0.0015947000
  -0.0000142600   -0.0012359500    0.0015723900
  -0.0000366400   -0.0012559500    0.0015760800
  -0.0000258100   -0.0012881700    0.0015766900
   0.0001020200   -0.0012591900    0.0015811500
  -0.0000027100   -0.0012355400    0.0015576600
  -0.0000035700   -0.0012395200    0.0015780400
  -0.0001189600   -0.0011765600    0.0015661600
  -0.0003154500   -0.0013224600    0.0015532900
   0.0000826600   -0.0013073700    0.0015171700
   0.0001475400   -0.0012932400    0.0015302800
   0.0003186600   -0.0012690500    0.0015296400
  -0.0000704400   -0.0010637500    0.0014979600
  -0.0022673400   -0.0003853400    0.0012686700
   0.0003553800   -0.0014294300    0.0013251700
   0.0001812200   -0.0013955400    0.0015606200
   0.0001326400   -0.0013222300    0.0015310500
   0.0001545400   -0.0012078500    0.0013060100
   0.0015947000    0.0000791500   -0.0022659600
   0.0000029000   -0.0013378000    0.0013923500
   0.0000346700   -0.0013303700    0.0014755700
   0.0000395800   -0.0013309700    0.0015383700
   0.0000337800   -0.0013373100    0.0015570800
   0.0000025200   -0.0013725300    0.0015755100
  -0.0001079900   -0.0013775300    0.0015140200
  -0.0000147400   -0.0012722700    0.0015220100
   0.0000218000   -0.0012736000    0.0015178400
   0.0000290400   -0.0013019600    0.0015495400
   0.0000146500   -0.0013262000    0.0015604100
  -0.0000177200   -0.0013323100    0.0015559400
  -0.0000305300   -0.0013122400    0.0015414800
  -0.0000042300   -0.0012813800    0.0015621700
   0.0000037800   -0.0012811200    0.0015632700
   0.0000065400   -0.0012939700    0.0015661400
   0.0000026700   -0.0013030200    0.0015644200
  -0.0000034500   -0.0012994500    0.0015625900
  -0.0000059100   -0.0012876900    0.0015617100
  -0.0000088300   -0.0012854800    0.0015777000
  -0.0000100500   -0.0012929500    0.0015765700
  -0.0000006200   -0.0013000300    0.0015722000
   0.0000094000   -0.0012969100    0.0015743900
   0.0000111500   -0.0012877700    0.0015759300
  -0.0000016300   -0.0012838200    0.0015778600
  -0.0000453300   -0.0012975200    0.0015993000
  -0.0000330500   -0.0013198000    0.0015753700
   0.0000086500   -0.0013203800    0.0015558700
   0.0000353500   -0.0013077300    0.0015695500
   0.0000367400   -0.0012844100    0.0016137500
   0.0000001600   -0.0012845400    0.0016011100
  -0.0000754500   -0.0014043500    0.0015769300
  -0.0000069300   -0.0013652900    0.0015154000
   0.0000330100   -0.0013372700    0.0015417300
   0.0000407800   -0.0013323900    0.0015649400
   0.0000432500   -0.0013382800    0.0015985400
  -0.0000291700   -0.0013109800    0.0017735500
  -0.0001952300    0.0004088000   -0.0023996400
  -0.0001225900    0.0008949300   -0.0009751000
   0.0000861400    0.0012875200   -0.0014589000
   0.0000706800    0.0013036000   -0.0015433300
   0.0000659600    0.0012849300   -0.0015816100
   0.0000830500    0.0012197700   -0.0015882400
  -0.0002113400    0.0013738000   -0.0013976900
   0.0000820400    0.0014324900   -0.0013568100
   0.0000798300    0.0013683000   -0.0014910100
   0.0000606400    0.0013365300   -0.0015466200
   0.0000394100    0.0013169400   -0.0015769400
  -0.0000679300    0.0013036200   -0.0016495300
  -0.0000295100    0.0013704400   -0.0015340100
   0.0000036900    0.0013802900   -0.0015348700
   0.0000372500    0.0013700000   -0.0015248300
   0.0000256600    0.0013482700   -0.0015504300
   0.0000003500    0.0013355600   -0.0015693800
  -0.0000367100    0.0013390900   -0.0015359600
  -0.0000041700    0.0013641000   -0.0015667000
  -0.0000009700    0.0013574800   -0.0015658000
   0.0000061500    0.0013540900   -0.0015680000
   0.0000085000    0.0013460400   -0.0015756300
  -0.0000037900    0.0013395000   -0.0015681500
   0.0000008500    0.0013571300   -0.0015663200
   0.0000001100    0.0013693000   -0.0016178000
  -0.0000240800    0.0013689600   -0.0016220300
  -0.0000400300    0.0013091700   -0.0015825400
   0.0000182700    0.0012856200   -0.0015620600
   0.0000368400    0.0013395500   -0.0016139300
   0.0000096600    0.0013680500   -0.0016301100
   0.0000329400    0.0015269200   -0.0017806700
  -0.0001664500    0.0012496400   -0.0016607500
   0.0000045200    0.0011695800   -0.0014784700
   0.0000527300    0.0012799600   -0.0015421000
   0.0000609800    0.0013116100   -0.0016027800
   0.0000517600    0.0013050500   -0.0016511400
  -0.0001889500    0.0004169900   -0.0021018200
  -0.0002117900    0.0009700400   -0.0018394000
   0.0000777900    0.0012948700   -0.0016507500
   0.0000703100    0.0013037900   -0.0015890700
   0.0000744500    0.0012780300   -0.0015728600
   0.0001688000    0.0011464600   -0.0015963100
  -0.0002108200    0.0013732100   -0.0016096600
   0.0000817900    0.0014330300   -0.0015389400
   0.0000888000    0.0013608700   -0.0015756200
   0.0000602600    0.0013366500   -0.0015706200
   0.0000307500    0.0013249300   -0.0015720300
  -0.0000678800    0.0013041900   -0.0015477700
  -0.0000293700    0.0013700000   -0.0015575600
   0.0000073300    0.0013766100   -0.0015529200
   0.0000383500    0.0013691100   -0.0015535400
   0.0000256600    0.0013485700   -0.0015551600
  -0.0000009000    0.0013364400   -0.0015564000
  -0.0000402700    0.0013411900   -0.0015539300
  -0.0000040000    0.0013650100   -0.0015346000
   0.0000006000    0.0013571600   -0.0015367700
   0.0000095600    0.0013514200   -0.0015386400
   0.0000086600    0.0013461700   -0.0015410200
  -0.0000077500    0.0013426800   -0.0015357700
  -0.0000007200    0.0013592300   -0.0015372300
   0.0000000100    0.0013687300   -0.0014771400
  -0.0000067800    0.0013540500   -0.0014842800
  -0.0000196600    0.0012918300   -0.0015395300
   0.0000189700    0.0012862900   -0.0015649300
   0.0000157800    0.0013572900   -0.0014937300
  -0.0000073800    0.0013820700   -0.0014696300
   0.0000339300    0.0015232600   -0.0012860800
  -0.0000910300    0.0011844800   -0.0016011500
  -0.0000499300    0.0012162300   -0.0016650500
   0.0000531600    0.0012791600   -0.0015927600
   0.0001141400    0.0012648200   -0.0015471500
  -0.0000235000    0.0013697400   -0.0012418900
  -0.0000484800    0.0105825700   -0.0076041800
   0.0001310000    0.0106225400   -0.0079911800
  -0.0000223800    0.0105591600   -0.0078490300
  -0.0000427500    0.0105750300   -0.0077971300
  -0.0000333600    0.0105932700   -0.0077675400
  -0.0000235400    0.0106611900   -0.0077226900
   0.0000773900    0.0105062200   -0.0078920200
  -0.0000346600    0.0104805800   -0.0079145800
  -0.0000249500    0.0105269300   -0.0078419100
  -0.0000284900    0.0105497900   -0.0077986000
  -0.0000143900    0.0105822800   -0.0077705500
   0.0000255000    0.0105660200   -0.0077464800
   0.0000120000    0.0105231300   -0.0078126100
  -0.0000022700    0.0105177500   -0.0078112800
  -0.0000168700    0.0105215200   -0.0078155700
  -0.0000108400    0.0105398000   -0.0077946500
   0.0000005200    0.0105482700   -0.0077771500
   0.0000149000    0.0105380900   -0.0078040100
   0.0000043300    0.0105359200   -0.0077875700
   0.0000089100    0.0105385100   -0.0077883100
   0.0000081900    0.0105406700   -0.0077785500
  -0.0000021400    0.0105501600   -0.0077753000
  -0.0000149000    0.0105490200   -0.0077904700
  -0.0000060900    0.0105406700   -0.0077865300
   0.0000139100    0.0105615700   -0.0077668800
   0.0000511500    0.0105569600   -0.0077446400
   0.0000205400    0.0105718400   -0.0077582900
  -0.0000236300    0.0105756300   -0.0077853400
  -0.0000275500    0.0105749200   -0.0077561400
  -0.0000286600    0.0105584600   -0.0077611300
   0.0000384700    0.0106682200   -0.0076908300
   0.0000540300    0.0105980600   -0.0077188300
  -0.0000331500    0.0106203900   -0.0078533100
  -0.0000411800    0.0105850700   -0.0077952200
  -0.0000366600    0.0105871200   -0.0077584000
   0.0000319200    0.0106238700   -0.0077982000
   0.0000327800    0.0111204300   -0.0074203000
  -0.0001098300    0.0105724400   -0.0072431400
  -0.0001446300    0.0106150400   -0.0077053300
  -0.0000786400    0.0105906300   -0.0077593000
  -0.0000554300    0.0105974700   -0.0077739500
   0.0000498400    0.0107439800   -0.0075366400
   0.0001474400    0.0103999500   -0.0077259100
  -0.0000215400    0.0103802200   -0.0077523200
  -0.0000631700    0.0105196300   -0.0077710400
  -0.0000455700    0.0105535500   -0.0077789400
  -0.0000129100    0.0105813800   -0.0077792500
   0.0000254400    0.0106285200   -0.0078110600
   0.0000145800    0.0105115800   -0.0077960200
   0.0000019300    0.0105053800   -0.0077995300
  -0.0000203900    0.0105048300   -0.0077940200
  -0.0000151000    0.0105324300   -0.0077909700
  -0.0000022800    0.0105469400   -0.0077926300
   0.0000193400    0.0105229900   -0.0077861500
   0.0000126700    0.0105086500   -0.0078175300
   0.0000211800    0.0105136100   -0.0078155500
   0.0000139500    0.0105194600   -0.0078118800
  -0.0000186700    0.0105181500   -0.0078152700
  -0.0000234200    0.0105224000   -0.0078112000
  -0.0000070500    0.0105118300   -0.0078146600
   0.0000700400    0.0104563700   -0.0078927500
   0.0001257300    0.0104619900   -0.0078828800
   0.0000732400    0.0105296100   -0.0078102600
  -0.0000791000    0.0105906100   -0.0077669300
  -0.0001554600    0.0104576200   -0.0078826100
  -0.0000120200    0.0104809000   -0.0078961600
   0.0004256900    0.0111545300   -0.0077440100
   0.0003068200    0.0104885200   -0.0077460600
  -0.0001656800    0.0107780400   -0.0076238800
  -0.0001068000    0.0106156700   -0.0077456700
  -0.0001090600    0.0106268100   -0.0077814400
  -0.0002211100    0.0102875400   -0.0082478600
   0.0214836500    0.0180698400    0.0121223200
  -0.0016477300   -0.0100721400    0.0075004500
  -0.0002711800   -0.0104637100    0.0077706900
  -0.0001269300   -0.0104873300    0.0078042600
   0.0003274500   -0.0099476200    0.0079219900
   0.0004957500   -0.0019021600    0.0094972400
   0.0003604400   -0.0107582300    0.0076130500
  -0.0007296000   -0.0112388900    0.0073105000
  -0.0002415300   -0.0106299600    0.0077048700
  -0.0001413500   -0.0105632500    0.0077761400
  -0.0002952900   -0.0103358000    0.0079785800
   0.0007526000   -0.0111690500    0.0075148200
   0.0000301000   -0.0106447600    0.0077473600
  -0.0000198700   -0.0106511100    0.0077422000
  -0.0000898800   -0.0106507100    0.0077384100
  -0.0000516100   -0.0105812600    0.0077768200
   0.0000722600   -0.0106245200    0.0077638200
   0.0000575400   -0.0106333700    0.0077485000
   0.0000189900   -0.0106294400    0.0077622700
   0.0000117500   -0.0106145200    0.0077690800
  -0.0000052500   -0.0106063200    0.0077726000
  -0.0000242400   -0.0106210300    0.0077838800
  -0.0000094600   -0.0106178800    0.0077626000
   0.0000089100   -0.0106326000    0.0077586400
   0.0001088400   -0.0107077300    0.0077512000
   0.0001308500   -0.0106836700    0.0078025400
  -0.0000129000   -0.0105117200    0.0078134300
  -0.0000804800   -0.0105589800    0.0078063400
  -0.0002359500   -0.0108943600    0.0078304400
   0.0000479900   -0.0106064500    0.0077230600
   0.0008948000   -0.0109767200    0.0076057100
  -0.0001444700   -0.0099527800    0.0079214300
  -0.0001264000   -0.0104707700    0.0077639800
  -0.0001286900   -0.0105201300    0.0077843400
  -0.0003836100   -0.0101018500    0.0080183200
  -0.0008726500   -0.0122323100    0.0082502600
   0.0000684000   -0.0104742200    0.0077964800
   0.0000129900   -0.0105134500    0.0078226700
  -0.0000236700   -0.0105434200    0.0077900300
  -0.0000323900   -0.0105464700    0.0077851400
  -0.0000237000   -0.0105329300    0.0077843100
  -0.0000151400   -0.0104966800    0.0079078900
   0.0000194400   -0.0105603900    0.0077880600
  -0.0000134200   -0.0105640300    0.0078099300
  -0.0000296700   -0.0105695200    0.0077879100
  -0.0000246500   -0.0105570900    0.0077864700
   0.0000060100   -0.0105553900    0.0077977000
   0.0000428400   -0.0105628600    0.0077962700
   0.0000083800   -0.0105898300    0.0077741700
  -0.0000066400   -0.0105881300    0.0077744900
  -0.0000180900   -0.0105845500    0.0077751600
  -0.0000090200   -0.0105776300    0.0077824200
   0.0000097200   -0.0105804000    0.0077821100
   0.0000160400   -0.0105846900    0.0077779500
   0.0000055300   -0.0105919000    0.0077704500
   0.0000028100   -0.0105865700    0.0077737000
  -0.0000032400   -0.0105821000    0.0077775800
  -0.0000063600   -0.0105837900    0.0077761400
  -0.0000020300   -0.0105898600    0.0077725100
   0.0000034200   -0.0105933600    0.0077699300
   0.0000191600   -0.0105821800    0.0077641900
   0.0000145800   -0.0105689000    0.0077860600
  -0.0000019500   -0.0105590200    0.0077884200
  -0.0000162800   -0.0105730400    0.0077784900
  -0.0000085700   -0.0105853900    0.0077518400
  -0.0000005200   -0.0105930700    0.0077573000
   0.0000223600   -0.0105389500    0.0078043100
   0.0000177700   -0.0105194400    0.0078131900
  -0.0000112400   -0.0105354500    0.0077952200
  -0.0000266900   -0.0105511200    0.0077851300
  -0.0000169300   -0.0105635400    0.0077680100
   0.0000158700   -0.0105371100    0.0077078000
   0.0003060200    0.0106334500    0.0080792700
  -0.0000805600    0.0107577800    0.0075524500
  -0.0000715200    0.0106085400    0.0077408000
  -0.0000604800    0.0105900700    0.0077763700
  -0.0000617400    0.0105827200    0.0078210400
   0.0001355300    0.0108259100    0.0080970900
   0.0001133200    0.0105535600    0.0074483500
  -0.0000589300    0.0105466500    0.0076747400
  -0.0000610500    0.0105669400    0.0077499300
  -0.0000399800    0.0105725500    0.0077731800
   0.0000052400    0.0106009200    0.0077910700
   0.0000741200    0.0106619500    0.0077209600
   0.0000123400    0.0104917300    0.0077774400
  -0.0000145000    0.0105005800    0.0077706700
  -0.0000244700    0.0105322700    0.0077811100
  -0.0000147300    0.0105546300    0.0077822600
   0.0000087300    0.0105738900    0.0077876200
   0.0000355400    0.0105322200    0.0077700000
   0.0000069100    0.0105214700    0.0077992500
  -0.0000011600    0.0105227400    0.0078019300
  -0.0000069500    0.0105189500    0.0077959100
  -0.0000040600    0.0105392500    0.0077990300
  -0.0000011400    0.0105340300    0.0077912300
   0.0000023700    0.0105255200    0.0077968300
   0.0000184600    0.0105204500    0.0078205700
   0.0000377800    0.0105244600    0.0078190400
   0.0000127400    0.0105464300    0.0077922400
  -0.0000421000    0.0105425300    0.0077922500
  -0.0000228800    0.0105315100    0.0078159700
  -0.0000010600    0.0105149900    0.0078234100
   0.0001374100    0.0104804800    0.0078847600
   0.0000964400    0.0105691400    0.0077865200
  -0.0000412600    0.0106217800    0.0077457300
  -0.0000611500    0.0105761700    0.0077857000
  -0.0000195900    0.0105961000    0.0077782300
  -0.0000476900    0.0105343800    0.0078501700
   0.0000071900    0.0109947700    0.0073038000
  -0.0000385300    0.0106220800    0.0080281000
  -0.0000667600    0.0105921200    0.0078286900
  -0.0000640500    0.0105983400    0.0077819000
  -0.0000423600    0.0106612100    0.0077421900
   0.0002898900    0.0108285400    0.0065950100
  -0.0001003600    0.0102889000    0.0084802600
  -0.0000634800    0.0104339500    0.0080090600
  -0.0000590400    0.0105395200    0.0078392600
  -0.0000428200    0.0105736100    0.0077952300
  -0.0000076800    0.0106271300    0.0077646900
   0.0001624400    0.0104755900    0.0075876500
   0.0000183400    0.0104785700    0.0078659200
  -0.0000241000    0.0105012600    0.0078541400
  -0.0000336900    0.0105123000    0.0078165800
  -0.0000170200    0.0105527200    0.0077834300
   0.0000109100    0.0105516600    0.0077776200
   0.0000587100    0.0105127100    0.0078264800
   0.0000101000    0.0105176700    0.0078019200
  -0.0000009900    0.0105177000    0.0077999200
  -0.0000118300    0.0105163500    0.0077962100
  -0.0000066600    0.0105333400    0.0077864000
   0.0000006200    0.0105272100    0.0077922700
   0.0000061500    0.0105221300    0.0077991000
   0.0000310400    0.0105279500    0.0077709400
   0.0000530400    0.0105222400    0.0077606600
  -0.0000011300    0.0105532800    0.0077703900
  -0.0000644800    0.0105318700    0.0077662000
  -0.0000222800    0.0105432100    0.0077787700
   0.0000084700    0.0105163800    0.0077729400
   0.0001694800    0.0105442000    0.0076544900
   0.0000360900    0.0106091100    0.0076897300
  -0.0000464700    0.0106128100    0.0078080100
  -0.0000830500    0.0105898200    0.0077712500
  -0.0001160800    0.0105394000    0.0075410900
   0.0000226600    0.0105893300    0.0077508900
   0.0009931500   -0.0109853700   -0.0078358800
  -0.0004242500   -0.0109754200   -0.0080345300
  -0.0002985400   -0.0106563600   -0.0078741000
  -0.0001476600   -0.0105481000   -0.0077852100
  -0.0001574300   -0.0105381600   -0.0077691900
  -0.0006533300   -0.0100517900   -0.0074622600
   0.0001446800   -0.0106760100   -0.0077757300
   0.0000418300   -0.0106502400   -0.0077479600
  -0.0002297700   -0.0107872300   -0.0078261600
  -0.0001618200   -0.0106157500   -0.0077726200
  -0.0001767800   -0.0104543600   -0.0077699400
   0.0002551800   -0.0107435600   -0.0078103000
   0.0000181300   -0.0106330000   -0.0077628000
   0.0000105800   -0.0106309400   -0.0077616400
  -0.0000186200   -0.0106266100   -0.0077744100
  -0.0000799500   -0.0106480600   -0.0077811100
   0.0000211600   -0.0106102000   -0.0077670500
   0.0000165400   -0.0106293200   -0.0077627100
   0.0000175200   -0.0106545300   -0.0077288100
   0.0000692400   -0.0106682100   -0.0077435600
   0.0000491900   -0.0106336300   -0.0077740300
  -0.0000500700   -0.0105580500   -0.0077938400
  -0.0001350900   -0.0107467000   -0.0077174900
   0.0000230000   -0.0106338200   -0.0077299200
   0.0002495700   -0.0108304300   -0.0076108700
   0.0003361700   -0.0108932300   -0.0076146800
  -0.0000770700   -0.0103195600   -0.0078778300
  -0.0000985800   -0.0105184200   -0.0077837800
  -0.0001580100   -0.0105503600   -0.0077866100
  -0.0002552200   -0.0110395900   -0.0073977600
   0.0031078600   -0.0092943800   -0.0075326800
  -0.0001484000   -0.0094173200   -0.0082913000
  -0.0001619400   -0.0104105800   -0.0078068700
  -0.0001266500   -0.0105129900   -0.0077839800
  -0.0001569400   -0.0104778600   -0.0077664700
  -0.0002739600   -0.0105310100   -0.0077968600
   0.0000584200   -0.0105090200   -0.0077949400
   0.0000043700   -0.0105533700   -0.0077167100
  -0.0000268300   -0.0105612600   -0.0077603700
  -0.0000357200   -0.0105565400   -0.0077819900
  -0.0000269800   -0.0105372400   -0.0077916500
   0.0000300000   -0.0105537900   -0.0077805200
   0.0000271500   -0.0105894000   -0.0077663700
   0.0000031400   -0.0105941900   -0.0077637400
  -0.0000267900   -0.0105918100   -0.0077677700
  -0.0000250700   -0.0105758200   -0.0077796300
  -0.0000035900   -0.0105718500   -0.0077825400
   0.0000275500   -0.0105783100   -0.0077807000
   0.0000079500   -0.0105957200   -0.0077732200
   0.0000014100   -0.0105943600   -0.0077730500
  -0.0000079400   -0.0105893500   -0.0077750200
  -0.0000082900   -0.0105865200   -0.0077775000
  -0.0000001500   -0.0105872600   -0.0077788300
   0.0000068900   -0.0105908400   -0.0077756200
   0.0000052400   -0.0105934100   -0.0077811000
   0.0000108100   -0.0105856000   -0.0077817000
   0.0000053700   -0.0105755300   -0.0077837900
  -0.0000069700   -0.0105717800   -0.0077864100
  -0.0000099400   -0.0105862300   -0.0077859800
  -0.0000036800   -0.0105951100   -0.0077798200
   0.0000219600   -0.0105756900   -0.0078009500
   0.0000347400   -0.0105536600   -0.0078050900
   0.0000061900   -0.0105361400   -0.0077964200
  -0.0000176700   -0.0105505600   -0.0077913300
  -0.0000287000   -0.0105594200   -0.0078022200
  -0.0000191800   -0.0105883200   -0.0078083700
   0.0000027400   -0.0105347000   -0.0077910100
   0.0000474600   -0.0104728100   -0.0077922600
  -0.0000092300   -0.0105261300   -0.0077846000
  -0.0000323400   -0.0105420700   -0.0077895300
  -0.0000363100   -0.0105379500   -0.0077982900
  -0.0000184200   -0.0105121600   -0.0078745800

1    
 -0.0064867383094889  -0.0076106652865705   0.0000000000000000
   0.0302325300    0.0366613900    0.0054263900
  -0.0059220100    0.0046375600   -0.0009721000
  -0.0006895200   -0.0004353100   -0.0014842700
  -0.0001827200   -0.0011808500   -0.0015505100
  -0.0000467800   -0.0009804100   -0.0015723700
  -0.0022043600    0.0014854700   -0.0013106900
   0.0013007400   -0.0026752500   -0.0016051200
  -0.0008791700   -0.0034970200   -0.0017985100
  -0.0003749400   -0.0014091600   -0.0015038300
  -0.0001485700   -0.0012895800   -0.0015475000
  -0.0001422500   -0.0013027200   -0.0015988600
  -0.0004047400   -0.0003703100   -0.0015991700
   0.0000280200   -0.0014612500   -0.0015124600
   0.0000376300   -0.0014765900   -0.0015153100
  -0.0001015300   -0.0015349300   -0.0015062700
  -0.0000622800   -0.0013500700   -0.0015354300
  -0.0000156800   -0.0012321700   -0.0015794900
   0.0001071500   -0.0014274000   -0.0015266400
   0.0000095600   -0.0013911000   -0.0015441100
   0.0000112000   -0.0013937700   -0.0015422600
   0.0000037200   -0.0013824400   -0.0015471500
  -0.0000158200   -0.0013594800   -0.0015511300
  -0.0000075200   -0.0013736100   -0.0015458000
  -0.0000015800   -0.0013815900   -0.0015422000
   0.0000277800   -0.0014617100   -0.0015500100
   0.0001019600   -0.0014223600   -0.0015628400
   0.0001193800   -0.0013467200   -0.0015569800
  -0.0000623800   -0.0013503900   -0.0015669300
  -0.0002381000   -0.0014195500   -0.0015593700
   0.0000445600   -0.0014818500   -0.0015455300
   0.0013222400   -0.0026941500   -0.0016977500
   0.0011876200   -0.0017286500   -0.0016007700
  -0.0001934300   -0.0012592400   -0.0015773500
  -0.0001485200   -0.0012896000   -0.0015576400
  -0.0003251700   -0.0014567600   -0.0015957200
  -0.0025031900   -0.0021296000   -0.0012560300
   0.0000213000   -0.0012153100   -0.0015378400
   0.0000403200   -0.0012799900   -0.0015800700
  -0.0000231800   -0.0013072400   -0.0015824900
  -0.0000328400   -0.0013058000   -0.0015729100
  -0.0000290600   -0.0013021600   -0.0015691400
  -0.0000133900   -0.0012325900   -0.0015767700
   0.0000280200   -0.0013025900   -0.0015686800
  -0.0000023400   -0.0013392500   -0.0015513400
  -0.0000225600   -0.0013165900   -0.0015683800