phonopy:
  version: "2.25.0"
  frequency_unit_conversion_factor: 15.633302
  symmetry_tolerance: 1.00000e-05
  configuration:
    create_displacements: ".true."
    primitive_axes: "auto"
    dim: "6 6 2"

physical_unit:
  atomic_mass: "AMU"
  length: "angstrom"

space_group:
  type: "Pnma"
  number: 62
  Hall_symbol: "-P 2ac 2n"

primitive_matrix:
- [  0.000000000000000,  1.000000000000000,  0.000000000000000 ]
- [  0.000000000000000,  0.000000000000000,  1.000000000000000 ]
- [  1.000000000000000,  0.000000000000000,  0.000000000000000 ]

supercell_matrix:
- [   6,   0,   0 ]
- [   0,   6,   0 ]
- [   0,   0,   2 ]

primitive_cell:
  lattice:
  - [     0.000000000000000,     0.000000000000000,    11.085176905441172 ] # a
  - [     3.858100144545665,     0.000000000000000,     0.000000000000000 ] # b
  - [     0.000000000000000,     4.526575212577082,     0.000000000000000 ] # c
  points:
  - symbol: Ge # 1
    coordinates: [  0.123540271994508,  0.250000000116039,  0.115641897669022 ]
    mass: 72.640000
  - symbol: Ge # 2
    coordinates: [  0.876459713125156,  0.750000000090253,  0.884358124859097 ]
    mass: 72.640000
  - symbol: Ge # 3
    coordinates: [  0.376459713161053,  0.750000000090253,  0.615641875195849 ]
    mass: 72.640000
  - symbol: Ge # 4
    coordinates: [  0.623540286856895,  0.250000000116039,  0.384358095023074 ]
    mass: 72.640000
  - symbol: Se # 5
    coordinates: [  0.852630084095147,  0.250000000116039,  0.504949001872283 ]
    mass: 78.960000
  - symbol: Se # 6
    coordinates: [  0.147369886036485,  0.750000000090253,  0.495050968346640 ]
    mass: 78.960000
  - symbol: Se # 7
    coordinates: [  0.647369915886904,  0.750000000090253,  0.004949022367377 ]
    mass: 78.960000
  - symbol: Se # 8
    coordinates: [  0.352630113927618,  0.250000000116039,  0.995050998182663 ]
    mass: 78.960000
  reciprocal_lattice: # without 2pi
  - [     0.000000000000000,     0.000000000000000,     0.090210558526057 ] # a*
  - [     0.259194930803892,     0.000000000000000,     0.000000000000000 ] # b*
  - [     0.000000000000000,     0.220917570798670,     0.000000000000000 ] # c*

unit_cell:
  lattice:
  - [     3.858100144545664,     0.000000000000000,     0.000000000000000 ] # a
  - [     0.000000000000000,     4.526575212577081,     0.000000000000000 ] # b
  - [     0.000000000000000,     0.000000000000000,    11.085176905441170 ] # c
  points:
  - symbol: Ge # 1
    coordinates: [  0.250000000116039,  0.115641897669022,  0.123540271994508 ]
    mass: 72.640000
    reduced_to: 1
  - symbol: Ge # 2
    coordinates: [  0.750000000090253,  0.884358124859097,  0.876459713125157 ]
    mass: 72.640000
    reduced_to: 2
  - symbol: Ge # 3
    coordinates: [  0.750000000090253,  0.615641875195849,  0.376459713161053 ]
    mass: 72.640000
    reduced_to: 3
  - symbol: Ge # 4
    coordinates: [  0.250000000116039,  0.384358095023074,  0.623540286856895 ]
    mass: 72.640000
    reduced_to: 4
  - symbol: Se # 5
    coordinates: [  0.250000000116039,  0.504949001872283,  0.852630084095148 ]
    mass: 78.960000
    reduced_to: 5
  - symbol: Se # 6
    coordinates: [  0.750000000090253,  0.495050968346640,  0.147369886036485 ]
    mass: 78.960000
    reduced_to: 6
  - symbol: Se # 7
    coordinates: [  0.750000000090253,  0.004949022367377,  0.647369915886904 ]
    mass: 78.960000
    reduced_to: 7
  - symbol: Se # 8
    coordinates: [  0.250000000116039,  0.995050998182663,  0.352630113927618 ]
    mass: 78.960000
    reduced_to: 8

supercell:
  lattice:
  - [    23.148600867273984,     0.000000000000000,     0.000000000000000 ] # a
  - [     0.000000000000000,    27.159451275462484,     0.000000000000000 ] # b
  - [     0.000000000000000,     0.000000000000000,    22.170353810882339 ] # c
  points:
  - symbol: Ge # 1
    coordinates: [  0.041666666686006,  0.019273649611504,  0.061770135997254 ]
    mass: 72.640000
    reduced_to: 1
  - symbol: Ge # 2
    coordinates: [  0.208333333352673,  0.019273649611504,  0.061770135997254 ]
    mass: 72.640000
    reduced_to: 1
  - symbol: Ge # 3
    coordinates: [  0.375000000019340,  0.019273649611504,  0.061770135997254 ]
    mass: 72.640000
    reduced_to: 1
  - symbol: Ge # 4
    coordinates: [  0.541666666686006,  0.019273649611504,  0.061770135997254 ]
    mass: 72.640000
    reduced_to: 1
  - symbol: Ge # 5
    coordinates: [  0.708333333352673,  0.019273649611504,  0.061770135997254 ]
    mass: 72.640000
    reduced_to: 1
  - symbol: Ge # 6
    coordinates: [  0.875000000019340,  0.019273649611504,  0.061770135997254 ]
    mass: 72.640000
    reduced_to: 1
  - symbol: Ge # 7
    coordinates: [  0.041666666686006,  0.185940316278170,  0.061770135997254 ]
    mass: 72.640000
    reduced_to: 1
  - symbol: Ge # 8
    coordinates: [  0.208333333352673,  0.185940316278170,  0.061770135997254 ]
    mass: 72.640000
    reduced_to: 1
  - symbol: Ge # 9
    coordinates: [  0.375000000019340,  0.185940316278170,  0.061770135997254 ]
    mass: 72.640000
    reduced_to: 1
  - symbol: Ge # 10
    coordinates: [  0.541666666686006,  0.185940316278170,  0.061770135997254 ]
    mass: 72.640000
    reduced_to: 1
  - symbol: Ge # 11
    coordinates: [  0.708333333352673,  0.185940316278170,  0.061770135997254 ]
    mass: 72.640000
    reduced_to: 1
  - symbol: Ge # 12
    coordinates: [  0.875000000019340,  0.185940316278170,  0.061770135997254 ]
    mass: 72.640000
    reduced_to: 1
  - symbol: Ge # 13
    coordinates: [  0.041666666686006,  0.352606982944837,  0.061770135997254 ]
    mass: 72.640000
    reduced_to: 1
  - symbol: Ge # 14
    coordinates: [  0.208333333352673,  0.352606982944837,  0.061770135997254 ]
    mass: 72.640000
    reduced_to: 1
  - symbol: Ge # 15
    coordinates: [  0.375000000019340,  0.352606982944837,  0.061770135997254 ]
    mass: 72.640000
    reduced_to: 1
  - symbol: Ge # 16
    coordinates: [  0.541666666686006,  0.352606982944837,  0.061770135997254 ]
    mass: 72.640000
    reduced_to: 1
  - symbol: Ge # 17
    coordinates: [  0.708333333352673,  0.352606982944837,  0.061770135997254 ]
    mass: 72.640000
    reduced_to: 1
  - symbol: Ge # 18
    coordinates: [  0.875000000019340,  0.352606982944837,  0.061770135997254 ]
    mass: 72.640000
    reduced_to: 1
  - symbol: Ge # 19
    coordinates: [  0.041666666686006,  0.519273649611504,  0.061770135997254 ]
    mass: 72.640000
    reduced_to: 1
  - symbol: Ge # 20
    coordinates: [  0.208333333352673,  0.519273649611504,  0.061770135997254 ]
    mass: 72.640000
    reduced_to: 1
  - symbol: Ge # 21
    coordinates: [  0.375000000019340,  0.519273649611504,  0.061770135997254 ]
    mass: 72.640000
    reduced_to: 1
  - symbol: Ge # 22
    coordinates: [  0.541666666686006,  0.519273649611504,  0.061770135997254 ]
    mass: 72.640000
    reduced_to: 1
  - symbol: Ge # 23
    coordinates: [  0.708333333352673,  0.519273649611504,  0.061770135997254 ]
    mass: 72.640000
    reduced_to: 1
  - symbol: Ge # 24
    coordinates: [  0.875000000019340,  0.519273649611504,  0.061770135997254 ]
    mass: 72.640000
    reduced_to: 1
  - symbol: Ge # 25
    coordinates: [  0.041666666686006,  0.685940316278170,  0.061770135997254 ]
    mass: 72.640000
    reduced_to: 1
  - symbol: Ge # 26
    coordinates: [  0.208333333352673,  0.685940316278170,  0.061770135997254 ]
    mass: 72.640000
    reduced_to: 1
  - symbol: Ge # 27
    coordinates: [  0.375000000019340,  0.685940316278170,  0.061770135997254 ]
    mass: 72.640000
    reduced_to: 1
  - symbol: Ge # 28
    coordinates: [  0.541666666686006,  0.685940316278170,  0.061770135997254 ]
    mass: 72.640000
    reduced_to: 1
  - symbol: Ge # 29
    coordinates: [  0.708333333352673,  0.685940316278170,  0.061770135997254 ]
    mass: 72.640000
    reduced_to: 1
  - symbol: Ge # 30
    coordinates: [  0.875000000019340,  0.685940316278170,  0.061770135997254 ]
    mass: 72.640000
    reduced_to: 1
  - symbol: Ge # 31
    coordinates: [  0.041666666686006,  0.852606982944837,  0.061770135997254 ]
    mass: 72.640000
    reduced_to: 1
  - symbol: Ge # 32
    coordinates: [  0.208333333352673,  0.852606982944837,  0.061770135997254 ]
    mass: 72.640000
    reduced_to: 1
  - symbol: Ge # 33
    coordinates: [  0.375000000019340,  0.852606982944837,  0.061770135997254 ]
    mass: 72.640000
    reduced_to: 1
  - symbol: Ge # 34
    coordinates: [  0.541666666686006,  0.852606982944837,  0.061770135997254 ]
    mass: 72.640000
    reduced_to: 1
  - symbol: Ge # 35
    coordinates: [  0.708333333352673,  0.852606982944837,  0.061770135997254 ]
    mass: 72.640000
    reduced_to: 1
  - symbol: Ge # 36
    coordinates: [  0.875000000019340,  0.852606982944837,  0.061770135997254 ]
    mass: 72.640000
    reduced_to: 1
  - symbol: Ge # 37
    coordinates: [  0.041666666686006,  0.019273649611504,  0.561770135997254 ]
    mass: 72.640000
    reduced_to: 1
  - symbol: Ge # 38
    coordinates: [  0.208333333352673,  0.019273649611504,  0.561770135997254 ]
    mass: 72.640000
    reduced_to: 1
  - symbol: Ge # 39
    coordinates: [  0.375000000019340,  0.019273649611504,  0.561770135997254 ]
    mass: 72.640000
    reduced_to: 1
  - symbol: Ge # 40
    coordinates: [  0.541666666686006,  0.019273649611504,  0.561770135997254 ]
    mass: 72.640000
    reduced_to: 1
  - symbol: Ge # 41
    coordinates: [  0.708333333352673,  0.019273649611504,  0.561770135997254 ]
    mass: 72.640000
    reduced_to: 1
  - symbol: Ge # 42
    coordinates: [  0.875000000019340,  0.019273649611504,  0.561770135997254 ]
    mass: 72.640000
    reduced_to: 1
  - symbol: Ge # 43
    coordinates: [  0.041666666686006,  0.185940316278170,  0.561770135997254 ]
    mass: 72.640000
    reduced_to: 1
  - symbol: Ge # 44
    coordinates: [  0.208333333352673,  0.185940316278170,  0.561770135997254 ]
    mass: 72.640000
    reduced_to: 1
  - symbol: Ge # 45
    coordinates: [  0.375000000019340,  0.185940316278170,  0.561770135997254 ]
    mass: 72.640000
    reduced_to: 1
  - symbol: Ge # 46
    coordinates: [  0.541666666686006,  0.185940316278170,  0.561770135997254 ]
    mass: 72.640000
    reduced_to: 1
  - symbol: Ge # 47
    coordinates: [  0.708333333352673,  0.185940316278170,  0.561770135997254 ]
    mass: 72.640000
    reduced_to: 1
  - symbol: Ge # 48
    coordinates: [  0.875000000019340,  0.185940316278170,  0.561770135997254 ]
    mass: 72.640000
    reduced_to: 1
  - symbol: Ge # 49
    coordinates: [  0.041666666686006,  0.352606982944837,  0.561770135997254 ]
    mass: 72.640000
    reduced_to: 1
  - symbol: Ge # 50
    coordinates: [  0.208333333352673,  0.352606982944837,  0.561770135997254 ]
    mass: 72.640000
    reduced_to: 1
  - symbol: Ge # 51
    coordinates: [  0.375000000019340,  0.352606982944837,  0.561770135997254 ]
    mass: 72.640000
    reduced_to: 1
  - symbol: Ge # 52
    coordinates: [  0.541666666686006,  0.352606982944837,  0.561770135997254 ]
    mass: 72.640000
    reduced_to: 1
  - symbol: Ge # 53
    coordinates: [  0.708333333352673,  0.352606982944837,  0.561770135997254 ]
    mass: 72.640000
    reduced_to: 1
  - symbol: Ge # 54
    coordinates: [  0.875000000019340,  0.352606982944837,  0.561770135997254 ]
    mass: 72.640000
    reduced_to: 1
  - symbol: Ge # 55
    coordinates: [  0.041666666686006,  0.519273649611504,  0.561770135997254 ]
    mass: 72.640000
    reduced_to: 1
  - symbol: Ge # 56
    coordinates: [  0.208333333352673,  0.519273649611504,  0.561770135997254 ]
    mass: 72.640000
    reduced_to: 1
  - symbol: Ge # 57
    coordinates: [  0.375000000019340,  0.519273649611504,  0.561770135997254 ]
    mass: 72.640000
    reduced_to: 1
  - symbol: Ge # 58
    coordinates: [  0.541666666686006,  0.519273649611504,  0.561770135997254 ]
    mass: 72.640000
    reduced_to: 1
  - symbol: Ge # 59
    coordinates: [  0.708333333352673,  0.519273649611504,  0.561770135997254 ]
    mass: 72.640000
    reduced_to: 1
  - symbol: Ge # 60
    coordinates: [  0.875000000019340,  0.519273649611504,  0.561770135997254 ]
    mass: 72.640000
    reduced_to: 1
  - symbol: Ge # 61
    coordinates: [  0.041666666686006,  0.685940316278170,  0.561770135997254 ]
    mass: 72.640000
    reduced_to: 1
  - symbol: Ge # 62
    coordinates: [  0.208333333352673,  0.685940316278170,  0.561770135997254 ]
    mass: 72.640000
    reduced_to: 1
  - symbol: Ge # 63
    coordinates: [  0.375000000019340,  0.685940316278170,  0.561770135997254 ]
    mass: 72.640000
    reduced_to: 1
  - symbol: Ge # 64
    coordinates: [  0.541666666686006,  0.685940316278170,  0.561770135997254 ]
    mass: 72.640000
    reduced_to: 1
  - symbol: Ge # 65
    coordinates: [  0.708333333352673,  0.685940316278170,  0.561770135997254 ]
    mass: 72.640000
    reduced_to: 1
  - symbol: Ge # 66
    coordinates: [  0.875000000019340,  0.685940316278170,  0.561770135997254 ]
    mass: 72.640000
    reduced_to: 1
  - symbol: Ge # 67
    coordinates: [  0.041666666686006,  0.852606982944837,  0.561770135997254 ]
    mass: 72.640000
    reduced_to: 1
  - symbol: Ge # 68
    coordinates: [  0.208333333352673,  0.852606982944837,  0.561770135997254 ]
    mass: 72.640000
    reduced_to: 1
  - symbol: Ge # 69
    coordinates: [  0.375000000019340,  0.852606982944837,  0.561770135997254 ]
    mass: 72.640000
    reduced_to: 1
  - symbol: Ge # 70
    coordinates: [  0.541666666686006,  0.852606982944837,  0.561770135997254 ]
    mass: 72.640000
    reduced_to: 1
  - symbol: Ge # 71
    coordinates: [  0.708333333352673,  0.852606982944837,  0.561770135997254 ]
    mass: 72.640000
    reduced_to: 1
  - symbol: Ge # 72
    coordinates: [  0.875000000019340,  0.852606982944837,  0.561770135997254 ]
    mass: 72.640000
    reduced_to: 1
  - symbol: Ge # 73
    coordinates: [  0.125000000015042,  0.147393020809850,  0.438229856562578 ]
    mass: 72.640000
    reduced_to: 73
  - symbol: Ge # 74
    coordinates: [  0.291666666681709,  0.147393020809850,  0.438229856562578 ]
    mass: 72.640000
    reduced_to: 73
  - symbol: Ge # 75
    coordinates: [  0.458333333348376,  0.147393020809850,  0.438229856562578 ]
    mass: 72.640000
    reduced_to: 73
  - symbol: Ge # 76
    coordinates: [  0.625000000015042,  0.147393020809850,  0.438229856562578 ]
    mass: 72.640000
    reduced_to: 73
  - symbol: Ge # 77
    coordinates: [  0.791666666681709,  0.147393020809850,  0.438229856562578 ]
    mass: 72.640000
    reduced_to: 73
  - symbol: Ge # 78
    coordinates: [  0.958333333348375,  0.147393020809850,  0.438229856562578 ]
    mass: 72.640000
    reduced_to: 73
  - symbol: Ge # 79
    coordinates: [  0.125000000015042,  0.314059687476516,  0.438229856562578 ]
    mass: 72.640000
    reduced_to: 73
  - symbol: Ge # 80
    coordinates: [  0.291666666681709,  0.314059687476516,  0.438229856562578 ]
    mass: 72.640000
    reduced_to: 73
  - symbol: Ge # 81
    coordinates: [  0.458333333348376,  0.314059687476516,  0.438229856562578 ]
    mass: 72.640000
    reduced_to: 73
  - symbol: Ge # 82
    coordinates: [  0.625000000015042,  0.314059687476516,  0.438229856562578 ]
    mass: 72.640000
    reduced_to: 73
  - symbol: Ge # 83
    coordinates: [  0.791666666681709,  0.314059687476516,  0.438229856562578 ]
    mass: 72.640000
    reduced_to: 73
  - symbol: Ge # 84
    coordinates: [  0.958333333348375,  0.314059687476516,  0.438229856562578 ]
    mass: 72.640000
    reduced_to: 73
  - symbol: Ge # 85
    coordinates: [  0.125000000015042,  0.480726354143183,  0.438229856562578 ]
    mass: 72.640000
    reduced_to: 73
  - symbol: Ge # 86
    coordinates: [  0.291666666681709,  0.480726354143183,  0.438229856562578 ]
    mass: 72.640000
    reduced_to: 73
  - symbol: Ge # 87
    coordinates: [  0.458333333348376,  0.480726354143183,  0.438229856562578 ]
    mass: 72.640000
    reduced_to: 73
  - symbol: Ge # 88
    coordinates: [  0.625000000015042,  0.480726354143183,  0.438229856562578 ]
    mass: 72.640000
    reduced_to: 73
  - symbol: Ge # 89
    coordinates: [  0.791666666681709,  0.480726354143183,  0.438229856562578 ]
    mass: 72.640000
    reduced_to: 73
  - symbol: Ge # 90
    coordinates: [  0.958333333348375,  0.480726354143183,  0.438229856562578 ]
    mass: 72.640000
    reduced_to: 73
  - symbol: Ge # 91
    coordinates: [  0.125000000015042,  0.647393020809850,  0.438229856562578 ]
    mass: 72.640000
    reduced_to: 73
  - symbol: Ge # 92
    coordinates: [  0.291666666681709,  0.647393020809850,  0.438229856562578 ]
    mass: 72.640000
    reduced_to: 73
  - symbol: Ge # 93
    coordinates: [  0.458333333348376,  0.647393020809850,  0.438229856562578 ]
    mass: 72.640000
    reduced_to: 73
  - symbol: Ge # 94
    coordinates: [  0.625000000015042,  0.647393020809850,  0.438229856562578 ]
    mass: 72.640000
    reduced_to: 73
  - symbol: Ge # 95
    coordinates: [  0.791666666681709,  0.647393020809850,  0.438229856562578 ]
    mass: 72.640000
    reduced_to: 73
  - symbol: Ge # 96
    coordinates: [  0.958333333348375,  0.647393020809850,  0.438229856562578 ]
    mass: 72.640000
    reduced_to: 73
  - symbol: Ge # 97
    coordinates: [  0.125000000015042,  0.814059687476516,  0.438229856562578 ]
    mass: 72.640000
    reduced_to: 73
  - symbol: Ge # 98
    coordinates: [  0.291666666681709,  0.814059687476516,  0.438229856562578 ]
    mass: 72.640000
    reduced_to: 73
  - symbol: Ge # 99
    coordinates: [  0.458333333348376,  0.814059687476516,  0.438229856562578 ]
    mass: 72.640000
    reduced_to: 73
  - symbol: Ge # 100
    coordinates: [  0.625000000015042,  0.814059687476516,  0.438229856562578 ]
    mass: 72.640000
    reduced_to: 73
  - symbol: Ge # 101
    coordinates: [  0.791666666681709,  0.814059687476516,  0.438229856562578 ]
    mass: 72.640000
    reduced_to: 73
  - symbol: Ge # 102
    coordinates: [  0.958333333348375,  0.814059687476516,  0.438229856562578 ]
    mass: 72.640000
    reduced_to: 73
  - symbol: Ge # 103
    coordinates: [  0.125000000015042,  0.980726354143183,  0.438229856562578 ]
    mass: 72.640000
    reduced_to: 73
  - symbol: Ge # 104
    coordinates: [  0.291666666681709,  0.980726354143183,  0.438229856562578 ]
    mass: 72.640000
    reduced_to: 73
  - symbol: Ge # 105
    coordinates: [  0.458333333348376,  0.980726354143183,  0.438229856562578 ]
    mass: 72.640000
    reduced_to: 73
  - symbol: Ge # 106
    coordinates: [  0.625000000015042,  0.980726354143183,  0.438229856562578 ]
    mass: 72.640000
    reduced_to: 73
  - symbol: Ge # 107
    coordinates: [  0.791666666681709,  0.980726354143183,  0.438229856562578 ]
    mass: 72.640000
    reduced_to: 73
  - symbol: Ge # 108
    coordinates: [  0.958333333348375,  0.980726354143183,  0.438229856562578 ]
    mass: 72.640000
    reduced_to: 73
  - symbol: Ge # 109
    coordinates: [  0.125000000015042,  0.147393020809850,  0.938229856562578 ]
    mass: 72.640000
    reduced_to: 73
  - symbol: Ge # 110
    coordinates: [  0.291666666681709,  0.147393020809850,  0.938229856562578 ]
    mass: 72.640000
    reduced_to: 73
  - symbol: Ge # 111
    coordinates: [  0.458333333348376,  0.147393020809850,  0.938229856562578 ]
    mass: 72.640000
    reduced_to: 73
  - symbol: Ge # 112
    coordinates: [  0.625000000015042,  0.147393020809850,  0.938229856562578 ]
    mass: 72.640000
    reduced_to: 73
  - symbol: Ge # 113
    coordinates: [  0.791666666681709,  0.147393020809850,  0.938229856562578 ]
    mass: 72.640000
    reduced_to: 73
  - symbol: Ge # 114
    coordinates: [  0.958333333348375,  0.147393020809850,  0.938229856562578 ]
    mass: 72.640000
    reduced_to: 73
  - symbol: Ge # 115
    coordinates: [  0.125000000015042,  0.314059687476516,  0.938229856562578 ]
    mass: 72.640000
    reduced_to: 73
  - symbol: Ge # 116
    coordinates: [  0.291666666681709,  0.314059687476516,  0.938229856562578 ]
    mass: 72.640000
    reduced_to: 73
  - symbol: Ge # 117
    coordinates: [  0.458333333348376,  0.314059687476516,  0.938229856562578 ]
    mass: 72.640000
    reduced_to: 73
  - symbol: Ge # 118
    coordinates: [  0.625000000015042,  0.314059687476516,  0.938229856562578 ]
    mass: 72.640000
    reduced_to: 73
  - symbol: Ge # 119
    coordinates: [  0.791666666681709,  0.314059687476516,  0.938229856562578 ]
    mass: 72.640000
    reduced_to: 73
  - symbol: Ge # 120
    coordinates: [  0.958333333348375,  0.314059687476516,  0.938229856562578 ]
    mass: 72.640000
    reduced_to: 73
  - symbol: Ge # 121
    coordinates: [  0.125000000015042,  0.480726354143183,  0.938229856562578 ]
    mass: 72.640000
    reduced_to: 73
  - symbol: Ge # 122
    coordinates: [  0.291666666681709,  0.480726354143183,  0.938229856562578 ]
    mass: 72.640000
    reduced_to: 73
  - symbol: Ge # 123
    coordinates: [  0.458333333348376,  0.480726354143183,  0.938229856562578 ]
    mass: 72.640000
    reduced_to: 73
  - symbol: Ge # 124
    coordinates: [  0.625000000015042,  0.480726354143183,  0.938229856562578 ]
    mass: 72.640000
    reduced_to: 73
  - symbol: Ge # 125
    coordinates: [  0.791666666681709,  0.480726354143183,  0.938229856562578 ]
    mass: 72.640000
    reduced_to: 73
  - symbol: Ge # 126
    coordinates: [  0.958333333348375,  0.480726354143183,  0.938229856562578 ]
    mass: 72.640000
    reduced_to: 73
  - symbol: Ge # 127
    coordinates: [  0.125000000015042,  0.647393020809850,  0.938229856562578 ]
    mass: 72.640000
    reduced_to: 73
  - symbol: Ge # 128
    coordinates: [  0.291666666681709,  0.647393020809850,  0.938229856562578 ]
    mass: 72.640000
    reduced_to: 73
  - symbol: Ge # 129
    coordinates: [  0.458333333348376,  0.647393020809850,  0.938229856562578 ]
    mass: 72.640000
    reduced_to: 73
  - symbol: Ge # 130
    coordinates: [  0.625000000015042,  0.647393020809850,  0.938229856562578 ]
    mass: 72.640000
    reduced_to: 73
  - symbol: Ge # 131
    coordinates: [  0.791666666681709,  0.647393020809850,  0.938229856562578 ]
    mass: 72.640000
    reduced_to: 73
  - symbol: Ge # 132
    coordinates: [  0.958333333348375,  0.647393020809850,  0.938229856562578 ]
    mass: 72.640000
    reduced_to: 73
  - symbol: Ge # 133
    coordinates: [  0.125000000015042,  0.814059687476516,  0.938229856562578 ]
    mass: 72.640000
    reduced_to: 73
  - symbol: Ge # 134
    coordinates: [  0.291666666681709,  0.814059687476516,  0.938229856562578 ]
    mass: 72.640000
    reduced_to: 73
  - symbol: Ge # 135
    coordinates: [  0.458333333348376,  0.814059687476516,  0.938229856562578 ]
    mass: 72.640000
    reduced_to: 73
  - symbol: Ge # 136
    coordinates: [  0.625000000015042,  0.814059687476516,  0.938229856562578 ]
    mass: 72.640000
    reduced_to: 73
  - symbol: Ge # 137
    coordinates: [  0.791666666681709,  0.814059687476516,  0.938229856562578 ]
    mass: 72.640000
    reduced_to: 73
  - symbol: Ge # 138
    coordinates: [  0.958333333348375,  0.814059687476516,  0.938229856562578 ]
    mass: 72.640000
    reduced_to: 73
  - symbol: Ge # 139
    coordinates: [  0.125000000015042,  0.980726354143183,  0.938229856562578 ]
    mass: 72.640000
    reduced_to: 73
  - symbol: Ge # 140
    coordinates: [  0.291666666681709,  0.980726354143183,  0.938229856562578 ]
    mass: 72.640000
    reduced_to: 73
  - symbol: Ge # 141
    coordinates: [  0.458333333348376,  0.980726354143183,  0.938229856562578 ]
    mass: 72.640000
    reduced_to: 73
  - symbol: Ge # 142
    coordinates: [  0.625000000015042,  0.980726354143183,  0.938229856562578 ]
    mass: 72.640000
    reduced_to: 73
  - symbol: Ge # 143
    coordinates: [  0.791666666681709,  0.980726354143183,  0.938229856562578 ]
    mass: 72.640000
    reduced_to: 73
  - symbol: Ge # 144
    coordinates: [  0.958333333348375,  0.980726354143183,  0.938229856562578 ]
    mass: 72.640000
    reduced_to: 73
  - symbol: Ge # 145
    coordinates: [  0.125000000015042,  0.102606979199308,  0.188229856580527 ]
    mass: 72.640000
    reduced_to: 145
  - symbol: Ge # 146
    coordinates: [  0.291666666681709,  0.102606979199308,  0.188229856580527 ]
    mass: 72.640000
    reduced_to: 145
  - symbol: Ge # 147
    coordinates: [  0.458333333348376,  0.102606979199308,  0.188229856580527 ]
    mass: 72.640000
    reduced_to: 145
  - symbol: Ge # 148
    coordinates: [  0.625000000015042,  0.102606979199308,  0.188229856580527 ]
    mass: 72.640000
    reduced_to: 145
  - symbol: Ge # 149
    coordinates: [  0.791666666681709,  0.102606979199308,  0.188229856580527 ]
    mass: 72.640000
    reduced_to: 145
  - symbol: Ge # 150
    coordinates: [  0.958333333348375,  0.102606979199308,  0.188229856580527 ]
    mass: 72.640000
    reduced_to: 145
  - symbol: Ge # 151
    coordinates: [  0.125000000015042,  0.269273645865975,  0.188229856580527 ]
    mass: 72.640000
    reduced_to: 145
  - symbol: Ge # 152
    coordinates: [  0.291666666681709,  0.269273645865975,  0.188229856580527 ]
    mass: 72.640000
    reduced_to: 145
  - symbol: Ge # 153
    coordinates: [  0.458333333348376,  0.269273645865975,  0.188229856580527 ]
    mass: 72.640000
    reduced_to: 145
  - symbol: Ge # 154
    coordinates: [  0.625000000015042,  0.269273645865975,  0.188229856580527 ]
    mass: 72.640000
    reduced_to: 145
  - symbol: Ge # 155
    coordinates: [  0.791666666681709,  0.269273645865975,  0.188229856580527 ]
    mass: 72.640000
    reduced_to: 145
  - symbol: Ge # 156
    coordinates: [  0.958333333348375,  0.269273645865975,  0.188229856580527 ]
    mass: 72.640000
    reduced_to: 145
  - symbol: Ge # 157
    coordinates: [  0.125000000015042,  0.435940312532642,  0.188229856580527 ]
    mass: 72.640000
    reduced_to: 145
  - symbol: Ge # 158
    coordinates: [  0.291666666681709,  0.435940312532642,  0.188229856580527 ]
    mass: 72.640000
    reduced_to: 145
  - symbol: Ge # 159
    coordinates: [  0.458333333348376,  0.435940312532642,  0.188229856580527 ]
    mass: 72.640000
    reduced_to: 145
  - symbol: Ge # 160
    coordinates: [  0.625000000015042,  0.435940312532642,  0.188229856580527 ]
    mass: 72.640000
    reduced_to: 145
  - symbol: Ge # 161
    coordinates: [  0.791666666681709,  0.435940312532642,  0.188229856580527 ]
    mass: 72.640000
    reduced_to: 145
  - symbol: Ge # 162
    coordinates: [  0.958333333348375,  0.435940312532642,  0.188229856580527 ]
    mass: 72.640000
    reduced_to: 145
  - symbol: Ge # 163
    coordinates: [  0.125000000015042,  0.602606979199308,  0.188229856580527 ]
    mass: 72.640000
    reduced_to: 145
  - symbol: Ge # 164
    coordinates: [  0.291666666681709,  0.602606979199308,  0.188229856580527 ]
    mass: 72.640000
    reduced_to: 145
  - symbol: Ge # 165
    coordinates: [  0.458333333348376,  0.602606979199308,  0.188229856580527 ]
    mass: 72.640000
    reduced_to: 145
  - symbol: Ge # 166
    coordinates: [  0.625000000015042,  0.602606979199308,  0.188229856580527 ]
    mass: 72.640000
    reduced_to: 145
  - symbol: Ge # 167
    coordinates: [  0.791666666681709,  0.602606979199308,  0.188229856580527 ]
    mass: 72.640000
    reduced_to: 145
  - symbol: Ge # 168
    coordinates: [  0.958333333348375,  0.602606979199308,  0.188229856580527 ]
    mass: 72.640000
    reduced_to: 145
  - symbol: Ge # 169
    coordinates: [  0.125000000015042,  0.769273645865975,  0.188229856580527 ]
    mass: 72.640000
    reduced_to: 145
  - symbol: Ge # 170
    coordinates: [  0.291666666681709,  0.769273645865975,  0.188229856580527 ]
    mass: 72.640000
    reduced_to: 145
  - symbol: Ge # 171
    coordinates: [  0.458333333348376,  0.769273645865975,  0.188229856580527 ]
    mass: 72.640000
    reduced_to: 145
  - symbol: Ge # 172
    coordinates: [  0.625000000015042,  0.769273645865975,  0.188229856580527 ]
    mass: 72.640000
    reduced_to: 145
  - symbol: Ge # 173
    coordinates: [  0.791666666681709,  0.769273645865975,  0.188229856580527 ]
    mass: 72.640000
    reduced_to: 145
  - symbol: Ge # 174
    coordinates: [  0.958333333348375,  0.769273645865975,  0.188229856580527 ]
    mass: 72.640000
    reduced_to: 145
  - symbol: Ge # 175
    coordinates: [  0.125000000015042,  0.935940312532642,  0.188229856580527 ]
    mass: 72.640000
    reduced_to: 145
  - symbol: Ge # 176
    coordinates: [  0.291666666681709,  0.935940312532642,  0.188229856580527 ]
    mass: 72.640000
    reduced_to: 145
  - symbol: Ge # 177
    coordinates: [  0.458333333348376,  0.935940312532642,  0.188229856580527 ]
    mass: 72.640000
    reduced_to: 145
  - symbol: Ge # 178
    coordinates: [  0.625000000015042,  0.935940312532642,  0.188229856580527 ]
    mass: 72.640000
    reduced_to: 145
  - symbol: Ge # 179
    coordinates: [  0.791666666681709,  0.935940312532642,  0.188229856580527 ]
    mass: 72.640000
    reduced_to: 145
  - symbol: Ge # 180
    coordinates: [  0.958333333348375,  0.935940312532642,  0.188229856580527 ]
    mass: 72.640000
    reduced_to: 145
  - symbol: Ge # 181
    coordinates: [  0.125000000015042,  0.102606979199308,  0.688229856580526 ]
    mass: 72.640000
    reduced_to: 145
  - symbol: Ge # 182
    coordinates: [  0.291666666681709,  0.102606979199308,  0.688229856580526 ]
    mass: 72.640000
    reduced_to: 145
  - symbol: Ge # 183
    coordinates: [  0.458333333348376,  0.102606979199308,  0.688229856580526 ]
    mass: 72.640000
    reduced_to: 145
  - symbol: Ge # 184
    coordinates: [  0.625000000015042,  0.102606979199308,  0.688229856580526 ]
    mass: 72.640000
    reduced_to: 145
  - symbol: Ge # 185
    coordinates: [  0.791666666681709,  0.102606979199308,  0.688229856580526 ]
    mass: 72.640000
    reduced_to: 145
  - symbol: Ge # 186
    coordinates: [  0.958333333348375,  0.102606979199308,  0.688229856580526 ]
    mass: 72.640000
    reduced_to: 145
  - symbol: Ge # 187
    coordinates: [  0.125000000015042,  0.269273645865975,  0.688229856580526 ]
    mass: 72.640000
    reduced_to: 145
  - symbol: Ge # 188
    coordinates: [  0.291666666681709,  0.269273645865975,  0.688229856580526 ]
    mass: 72.640000
    reduced_to: 145
  - symbol: Ge # 189