 vasp.6.4.2 20Jul23 (build Oct 12 2023 10:31:02) complex                         
 executed on              LinuxNV date 2024.11.01  21:48:29
 running  128 mpi-ranks, with    1 threads/rank, on    2 nodes
 distrk:  each k-point on   64 cores,    2 groups
 distr:  one band on NCORE=   8 cores,    8 groups


--------------------------------------------------------------------------------------------------------


 INCAR:
   ENCUT = 520.000000
   SIGMA = 0.050000
   EDIFF = 1.00e-06
   ALGO = N
   GGA = PE
   PREC = Accurate
   SYSTEM = 01_AOPT
   ICHARG = 0
   ISMEAR = 0
   ISPIN = 2
   ISTART = 1
   ISYM = -1
   KPAR = 2
   LORBIT = 11
   NBANDS = 220
   NELM = 100
   NELMIN = 5
   NPAR = 8
   LASPH = .TRUE.
   LCHARG = .FALSE.
   LWAVE = .FALSE.
   LREAL = .FALSE.

 POTCAR:    PAW_PBE Ge 05Jan2001                  
 POTCAR:    PAW_PBE Se 06Sep2000                  
 -----------------------------------------------------------------------------
|                                                                             |
|           W    W    AA    RRRRR   N    N  II  N    N   GGGG   !!!           |
|           W    W   A  A   R    R  NN   N  II  NN   N  G    G  !!!           |
|           W    W  A    A  R    R  N N  N  II  N N  N  G       !!!           |
|           W WW W  AAAAAA  RRRRR   N  N N  II  N  N N  G  GGG   !            |
|           WW  WW  A    A  R   R   N   NN  II  N   NN  G    G                |
|           W    W  A    A  R    R  N    N  II  N    N   GGGG   !!!           |
|                                                                             |
|     You use a magnetic or noncollinear calculation, but did not specify     |
|     the initial magnetic moment with the MAGMOM tag. Note that a            |
|     default of 1 will be used for all atoms. This ferromagnetic setup       |
|     may break the symmetry of the crystal, in particular it may rule        |
|     out finding an antiferromagnetic solution. Thence, we recommend         |
|     setting the initial magnetic moment manually or verifying carefully     |
|     that this magnetic setup is desired.                                    |
|                                                                             |
 -----------------------------------------------------------------------------

 POTCAR:    PAW_PBE Ge 05Jan2001                  
   VRHFIN =Ge: s2p2                                                                                 
   LEXCH  = PE                                                                                      
   EATOM  =   104.9960 eV,    7.7170 Ry                                                             
                                                                                                    
   TITEL  = PAW_PBE Ge 05Jan2001                                                                    
   LULTRA =        F    use ultrasoft PP ?                                                          
   IUNSCR =        1    unscreen: 0-lin 1-nonlin 2-no                                               
   RPACOR =    2.170    partial core radius                                                         
   POMASS =   72.610; ZVAL   =    4.000    mass and valenz                                          
   RCORE  =    2.300    outmost cutoff radius                                                       
   RWIGS  =    2.300; RWIGS  =    1.217    wigner-seitz radius (au A)                               
   ENMAX  =  173.807; ENMIN  =  130.355 eV                                                          
   ICORE  =        3    local potential                                                             
   LCOR   =        T    correct aug charges                                                         
   LPAW   =        T    paw PP                                                                      
   EAUG   =  385.843                                                                                
   DEXC   =    0.000                                                                                
   RMAX   =    2.342    core radius for proj-oper                                                   
   RAUG   =    1.300    factor for augmentation sphere                                              
   RDEP   =    2.318    radius for radial grids                                                     
   RDEPT  =    2.103    core radius for aug-charge                                                  
                                                                                                    
   Atomic configuration                                                                             
   10 entries                                                                                       
     n  l   j            E        occ.                                                              
     1  0  0.50    -10959.8463   2.0000                                                             
     2  0  0.50     -1371.6056   2.0000                                                             
     2  1  1.50     -1198.4791   6.0000                                                             
     3  0  0.50      -168.4733   2.0000                                                             
     3  1  1.50      -115.6019   6.0000                                                             
     3  2  2.50       -29.3106  10.0000                                                             
     4  0  0.50       -11.7309   2.0000                                                             
     4  1  0.50        -3.8952   2.0000                                                             
     4  2  1.50        -4.0817   0.0000                                                             
     4  3  2.50        -4.0817   0.0000                                                             
   Description                                                                                      
     l       E           TYP  RCUT    TYP  RCUT                                                     
     0    -11.7309493     23  2.300                                                                 
     0     -7.4578696     23  2.300                                                                 
     1     -3.8952261     23  2.300                                                                 
     1      6.1178114     23  2.300                                                                 
     2     -4.0817478     23  2.300                                                                 
     3     -1.3605826      7  2.300                                                                 
  local pseudopotential read in
  partial core-charges read in
  partial kinetic energy density read in
  atomic valenz-charges read in
  non local Contribution for L=            0  read in
    real space projection operators read in
  non local Contribution for L=            0  read in
    real space projection operators read in
  non local Contribution for L=            1  read in
    real space projection operators read in
  non local Contribution for L=            1  read in
    real space projection operators read in
  non local Contribution for L=            2  read in
    real space projection operators read in
    PAW grid and wavefunctions read in
 
   number of l-projection  operators is LMAX  =            5
   number of lm-projection operators is LMMAX =           13
 
 POTCAR:    PAW_PBE Se 06Sep2000                  
   VRHFIN =Se: s2p4                                                                                 
   LEXCH  = PE                                                                                      
   EATOM  =   257.1286 eV,   18.8984 Ry                                                             
                                                                                                    
   TITEL  = PAW_PBE Se 06Sep2000                                                                    
   LULTRA =        F    use ultrasoft PP ?                                                          
   IUNSCR =        1    unscreen: 0-lin 1-nonlin 2-no                                               
   RPACOR =    1.900    partial core radius                                                         
   POMASS =   78.960; ZVAL   =    6.000    mass and valenz                                          
   RCORE  =    2.100    outmost cutoff radius                                                       
   RWIGS  =    2.200; RWIGS  =    1.164    wigner-seitz radius (au A)                               
   ENMAX  =  211.555; ENMIN  =  158.666 eV                                                          
   ICORE  =        3    local potential                                                             
   LCOR   =        T    correct aug charges                                                         
   LPAW   =        T    paw PP                                                                      
   EAUG   =  446.842                                                                                
   DEXC   =    0.000                                                                                
   RMAX   =    2.147    core radius for proj-oper                                                   
   RAUG   =    1.300    factor for augmentation sphere                                              
   RDEP   =    2.177    radius for radial grids                                                     
   RDEPT  =    1.928    core radius for aug-charge                                                  
                                                                                                    
   Atomic configuration                                                                             
   10 entries                                                                                       
     n  l   j            E        occ.                                                              
     1  0  0.50    -12503.4787   2.0000                                                             
     2  0  0.50     -1606.9547   2.0000                                                             
     2  1  1.50     -1413.3140   6.0000                                                             
     3  0  0.50      -213.4885   2.0000                                                             
     3  1  1.50      -152.9538   6.0000                                                             
     3  2  2.50       -53.1221  10.0000                                                             
     4  0  0.50       -17.2865   2.0000                                                             
     4  1  0.50        -6.5110   4.0000                                                             
     4  2  2.50        -6.8029   0.0000                                                             
     4  3  2.50        -6.8029   0.0000                                                             
   Description                                                                                      
     l       E           TYP  RCUT    TYP  RCUT                                                     
     0    -17.2865377     23  2.100                                                                 
     0    -15.3094411     23  2.100                                                                 
     1     -6.5110275     23  2.100                                                                 
     1     -0.0695192     23  2.100                                                                 
     2     -6.8029130     23  2.100                                                                 
     3     -1.3605826      7  2.100                                                                 
  local pseudopotential read in
  partial core-charges read in
  partial kinetic energy density read in
  atomic valenz-charges read in
  non local Contribution for L=            0  read in
    real space projection operators read in
  non local Contribution for L=            0  read in
    real space projection operators read in
  non local Contribution for L=            1  read in
    real space projection operators read in
  non local Contribution for L=            1  read in
    real space projection operators read in
  non local Contribution for L=            2  read in
    real space projection operators read in
    PAW grid and wavefunctions read in
 
   number of l-projection  operators is LMAX  =            5
   number of lm-projection operators is LMMAX =           13
 
 -----------------------------------------------------------------------------
|                                                                             |
|               ----> ADVICE to this user running VASP <----                  |
|                                                                             |
|     You have a (more or less) 'large supercell' and for larger cells it     |
|     might be more efficient to use real-space projection operators.         |
|     Therefore, try LREAL= Auto in the INCAR file.                           |
|     Mind: For very accurate calculation, you might also keep the            |
|     reciprocal projection scheme (i.e. LREAL=.FALSE.).                      |
|                                                                             |
 -----------------------------------------------------------------------------

  PAW_PBE Ge 05Jan2001                  :
 energy of atom  1       EATOM= -104.9960
 kinetic energy error for atom=    0.0002 (will be added to EATOM!!)
  PAW_PBE Se 06Sep2000                  :
 energy of atom  2       EATOM= -257.1286
 kinetic energy error for atom=    0.0007 (will be added to EATOM!!)
 
 
 POSCAR: Ge Se
  positions in cartesian coordinates
  No initial velocities read in
 exchange correlation table for  LEXCH =        8
   RHO(1)=    0.500       N(1)  =     2000
   RHO(2)=  100.500       N(2)  =     4000
 


--------------------------------------------------------------------------------------------------------


 ion  position               nearest neighbor table
   1  0.081  0.048  0.128-  45 2.58  55 2.59  54 2.60
   2  0.225  0.863  0.373-  67 2.54  45 2.65
   3  0.558  0.194  0.381-  68 2.63  49 2.75
   4  0.563  0.539  0.373-  69 2.49  50 2.66  72 2.74
   5  0.555  0.869  0.375-  48 2.52  70 2.71  50 2.75
   6  0.869  0.171  0.383-  44 2.56  55 2.68  56 2.76
   7  0.883  0.521  0.358-  72 2.49  71 2.55
   8  0.914  0.883  0.374-  45 2.61  44 2.66  53 2.70
   9  0.049  0.156  0.642-  57 2.58  37 2.60  43 2.79
  10  0.075  0.470  0.622-  58 2.52  43 2.67  38 2.71
  11  0.060  0.818  0.626-  59 2.60  52 2.61  39 2.69
  12  0.383  0.156  0.635-  60 2.51  51 2.64  38 2.82
  13  0.399  0.465  0.618-  41 2.56  61 2.59  38 2.66
  14  0.383  0.837  0.640-  62 2.41  39 2.59  51 2.82
  15  0.731  0.149  0.629-  63 2.53  40 2.55  37 2.71
  16  0.712  0.501  0.633-  64 2.56  42 2.60  41 2.72
  17  0.198  0.514  0.381-  47 2.51  46 2.69  66 2.72
  18  0.253  0.218  0.358-  54 2.45  49 2.56  46 2.64
  19  0.737  0.841  0.644-  65 2.50  42 2.77
  20  0.904  0.656  0.861-  52 2.46  64 2.69
  21  0.909  0.973  0.875-  59 2.54  37 2.58  65 2.59
  22  0.054  0.341  0.124-  46 2.56  71 2.67  55 2.73
  23  0.061  0.688  0.139-  47 2.55  53 2.62  67 2.81
  24  0.404  0.033  0.116-  54 2.63  68 2.65  48 2.66
  25  0.408  0.397  0.115-  66 2.49  69 2.58  49 2.60
  26  0.722  0.022  0.121-  44 2.45  68 2.58  70 2.73
  27  0.724  0.363  0.108-  56 2.50  69 2.68  71 2.84
  28  0.384  0.695  0.128-  67 2.46  50 2.51  66 2.66
  29  0.240  0.319  0.895-  57 2.63  38 2.69  60 2.79
  30  0.237  0.640  0.868-  61 2.60  39 2.60  58 2.67
  31  0.229  1.000  0.870-  51 2.59  57 2.68  59 2.70
  32  0.574  0.322  0.855-  41 2.46  63 2.65  60 2.74
  33  0.561  0.677  0.871-  42 2.57  62 2.67
  34  0.561  0.004  0.873-  40 2.59  62 2.80
  35  0.878  0.341  0.875-  43 2.48  63 2.64  64 2.68
  36  0.734  0.696  0.156-  72 2.49  53 2.79  70 2.82
  37  0.899  0.012  0.647-  21 2.58   9 2.60  15 2.71
  38  0.238  0.329  0.652-  13 2.66  29 2.69  10 2.71  12 2.82
  39  0.235  0.692  0.641-  14 2.59  30 2.60  11 2.69
  40  0.575  0.017  0.641-  15 2.55  34 2.59
  41  0.563  0.342  0.634-  32 2.46  13 2.56  16 2.72
  42  0.593  0.672  0.641-  33 2.57  16 2.60  19 2.77
  43  0.913  0.333  0.655-  35 2.48  10 2.67   9 2.79
  44  0.747  0.012  0.341-  26 2.45   6 2.56   8 2.66
  45  0.076  0.014  0.357-   1 2.58   8 2.61   2 2.65
  46  0.078  0.336  0.353-  22 2.56  18 2.64  17 2.69
  47  0.069  0.668  0.368-  17 2.51  23 2.55
  48  0.407  0.005  0.354-   5 2.52  24 2.66
  49  0.408  0.352  0.344-  18 2.56  25 2.60   3 2.75
  50  0.420  0.696  0.351-  28 2.51   4 2.66   5 2.75
  51  0.234  0.006  0.636-  31 2.59  12 2.64  14 2.82
  52  0.919  0.664  0.639-  20 2.46  11 2.61
  53  0.910  0.833  0.136-  23 2.62   8 2.70  36 2.79
  54  0.247  0.172  0.143-  18 2.45   1 2.60  24 2.63
  55  0.916  0.173  0.147-   1 2.59   6 2.68  22 2.73
  56  0.734  0.340  0.331-  27 2.50   6 2.76
  57  0.095  0.168  0.868-   9 2.58  29 2.63  31 2.68
  58  0.076  0.500  0.847-  10 2.52  30 2.67
  59  0.072  0.852  0.858-  21 2.54  11 2.60  31 2.70
  60  0.409  0.176  0.859-  12 2.51  32 2.74  29 2.79
  61  0.399  0.510  0.846-  13 2.59  30 2.60
  62  0.416  0.834  0.855-  14 2.41  33 2.67  34 2.80
  63  0.736  0.186  0.854-  15 2.53  35 2.64  32 2.65
  64  0.745  0.509  0.862-  16 2.56  35 2.68  20 2.69
  65  0.753  0.837  0.869-  19 2.50  21 2.59
  66  0.257  0.524  0.144-  25 2.49  28 2.66  17 2.72
  67  0.238  0.827  0.148-  28 2.46   2 2.54  23 2.81
  68  0.571  0.161  0.147-  26 2.58   3 2.63  24 2.65
  69  0.576  0.514  0.150-   4 2.49  25 2.58  27 2.68
  70  0.578  0.858  0.133-   5 2.71  26 2.73  36 2.82
  71  0.907  0.496  0.131-   7 2.55  22 2.67  27 2.84
  72  0.744  0.663  0.377-  36 2.49   7 2.49   4 2.74
 

IMPORTANT INFORMATION: All symmetrisations will be switched off!
NOSYMM: (Re-)initialisation of all symmetry stuff for point group C_1.


----------------------------------------------------------------------------------------

                                     Primitive cell                                     

  volume of cell :    1726.5923

  direct lattice vectors                    reciprocal lattice vectors
    12.475324790 -0.000004815  0.000001454     0.080158234  0.000000031 -0.000000012
    -0.000004821 12.490367187 -0.000001751     0.000000031  0.080061698  0.000000014
     0.000001662 -0.000001999 11.080585833    -0.000000011  0.000000013  0.090247936

  length of vectors
    12.475324790 12.490367187 11.080585833     0.080158234  0.080061698  0.090247936

  position of ions in fractional coordinates (direct lattice)
     0.080887689  0.048082235  0.128071201
     0.224619908  0.863072252  0.373037082
     0.558497072  0.194321977  0.380845389
     0.562891585  0.539016993  0.372511767
     0.555011950  0.868993944  0.375478515
     0.868906391  0.171387445  0.383207628
     0.882747533  0.521355824  0.357725536
     0.914009576  0.882781675  0.373615720
     0.048901077  0.155878476  0.641631833
     0.074656013  0.470013944  0.621886577
     0.059729640  0.817591199  0.626121214
     0.382597532  0.155982361  0.634852133
     0.399017853  0.464721491  0.617909711
     0.383497207  0.836621813  0.640427575
     0.731061060  0.149205623  0.628703908
     0.712292069  0.500602886  0.633357672
     0.198082422  0.513925201  0.380588925
     0.253122558  0.217951787  0.358062741
     0.736733186  0.840899987  0.643912850
     0.903813157  0.655590423  0.860524408
     0.909272744  0.973201924  0.875444605
     0.054295649  0.340750465  0.124356528
     0.060957338  0.687757132  0.139436408
     0.403882983  0.033185952  0.116260371
     0.408317168  0.397225279  0.114832202
     0.722144778  0.021765493  0.121373468
     0.723791273  0.363143035  0.107989104
     0.383809082  0.694564016  0.128001519
     0.240216450  0.319003359  0.894649010
     0.237053819  0.640353965  0.868445262
     0.228813765  0.999938714  0.870033343
     0.573586340  0.321643896  0.854514515
     0.561421568  0.677038955  0.870986333
     0.560930544  0.003606237  0.873426444
     0.878485115  0.340841091  0.875043886
     0.733998441  0.696276919  0.155626710
     0.898619490  0.011903347  0.647225710
     0.237540061  0.328722482  0.651733663
     0.234806387  0.691910373  0.640785485
     0.575261523  0.017050618  0.640542400
     0.563171806  0.342100406  0.633716595
     0.593043122  0.671541112  0.641443223
     0.913272702  0.332896947  0.654870871
     0.746624702  0.011629302  0.340617816
     0.075966329  0.014474576  0.357358876
     0.078349555  0.336379217  0.353326775
     0.069095797  0.667924593  0.368303051
     0.407402276  0.005029014  0.354302431
     0.408222847  0.351548225  0.343922911
     0.420391992  0.695999583  0.350555971
     0.233920559  0.005981700  0.636415289
     0.919033140  0.663837015  0.639180983
     0.909942875  0.832993454  0.136412174
     0.247409132  0.172243013  0.142902255
     0.915666774  0.172596536  0.147229177
     0.733648644  0.339927868  0.331442088
     0.095422737  0.167754526  0.868432987
     0.076255749  0.500437534  0.846774109
     0.071766969  0.851697246  0.857546597
     0.409336982  0.175834511  0.858529840
     0.398665558  0.510498651  0.846223743
     0.416017161  0.833589012  0.855003620
     0.736390046  0.185663005  0.853555847
     0.745224297  0.509194066  0.861649514
     0.753015499  0.837277599  0.869026000
     0.256577005  0.524436110  0.144329475
     0.238172988  0.826650816  0.148176520
     0.570930492  0.161461539  0.146588530
     0.575915685  0.514091296  0.149836487
     0.577680753  0.858164996  0.132921700
     0.907146542  0.496363134  0.131200901
     0.743511008  0.663391965  0.376737995

  ion indices of the primitive-cell ions
   primitive index   ion index
                 1           1
                 2           2
                 3           3
                 4           4
                 5           5
                 6           6
                 7           7
                 8           8
                 9           9
                10          10
                11          11
                12          12
                13          13
                14          14
                15          15
                16          16
                17          17
                18          18
                19          19
                20          20
                21          21
                22          22
                23          23
                24          24
                25          25
                26          26
                27          27
                28          28
                29          29
                30          30
                31          31
                32          32
                33          33
                34          34
                35          35
                36          36
                37          37
                38          38
                39          39
                40          40
                41          41
                42          42
                43          43
                44          44
                45          45
                46          46
                47          47
                48          48
                49          49
                50          50
                51          51
                52          52
                53          53
                54          54
                55          55
                56          56
                57          57
                58          58
                59          59
                60          60
                61          61
                62          62
                63          63
                64          64
                65          65
                66          66
                67          67
                68          68
                69          69
                70          70
                71          71
                72          72

----------------------------------------------------------------------------------------

 
 
 KPOINTS: KPOINTS created by Atomic Simulation Env

Automatic generation of k-mesh.
 Grid dimensions read from file:
 generate k-points for:    2    2    2

 Generating k-lattice:

  Cartesian coordinates                     Fractional coordinates (reciprocal lattice)
     0.040079117  0.000000015 -0.000000006     0.500000000 -0.000000000  0.000000000
     0.000000015  0.040030849  0.000000007     0.000000000  0.500000000  0.000000000
    -0.000000005  0.000000006  0.045123968     0.000000000  0.000000000  0.500000000

  Length of vectors
     0.040079117  0.040030849  0.045123968

  Shift w.r.t. Gamma in fractional coordinates (k-lattice)
     0.000000000  0.000000000  0.000000000

 
 Subroutine IBZKPT returns following result:
 ===========================================
 
 Found      8 irreducible k-points:
 
 Following reciprocal coordinates:
            Coordinates               Weight
  0.000000  0.000000  0.000000      1.000000
  0.500000  0.000000  0.000000      1.000000
  0.000000  0.500000  0.000000      1.000000
  0.500000  0.500000  0.000000      1.000000
  0.000000  0.000000  0.500000      1.000000
  0.500000  0.000000  0.500000      1.000000
  0.000000  0.500000  0.500000      1.000000
  0.500000  0.500000  0.500000      1.000000
 
 Following cartesian coordinates:
            Coordinates               Weight
  0.000000  0.000000  0.000000      1.000000
  0.040079  0.000000 -0.000000      1.000000
  0.000000  0.040031  0.000000      1.000000
  0.040079  0.040031  0.000000      1.000000
 -0.000000  0.000000  0.045124      1.000000
  0.040079  0.000000  0.045124      1.000000
  0.000000  0.040031  0.045124      1.000000
  0.040079  0.040031  0.045124      1.000000
 
 -----------------------------------------------------------------------------
|                                                                             |
|           W    W    AA    RRRRR   N    N  II  N    N   GGGG   !!!           |
|           W    W   A  A   R    R  NN   N  II  NN   N  G    G  !!!           |
|           W    W  A    A  R    R  N N  N  II  N N  N  G       !!!           |
|           W WW W  AAAAAA  RRRRR   N  N N  II  N  N N  G  GGG   !            |
|           WW  WW  A    A  R   R   N   NN  II  N   NN  G    G                |
|           W    W  A    A  R    R  N    N  II  N    N   GGGG   !!!           |
|                                                                             |
|     The number of bands has been changed from the values supplied in        |
|     the INCAR file. This is a result of running the parallel version.       |
|     The orbitals not found in the WAVECAR file will be initialized with     |
|     random numbers, which is usually adequate. For correlated               |
|     calculations, however, you should redo the groundstate calculation.     |
|     I found NBANDS = 220. Now, NBANDS = 224.                                |
|                                                                             |
 -----------------------------------------------------------------------------



--------------------------------------------------------------------------------------------------------




 Dimension of arrays:
   k-points           NKPTS =      8   k-points in BZ     NKDIM =      8   number of bands    NBANDS=    224
   number of dos      NEDOS =    301   number of ions     NIONS =     72
   non local maximal  LDIM  =      5   non local SUM 2l+1 LMDIM =     13
   total plane-waves  NPLWV = 774144
   max r-space proj   IRMAX =      1   max aug-charges    IRDMAX=  24565
   dimension x,y,z NGX =    96 NGY =   96 NGZ =   84
   dimension x,y,z NGXF=   192 NGYF=  192 NGZF=  168
   support grid    NGXF=   192 NGYF=  192 NGZF=  168
   ions per type =              36  36
   NGX,Y,Z   is equivalent  to a cutoff of  12.79, 12.78, 12.60 a.u.
   NGXF,Y,Z  is equivalent  to a cutoff of  25.59, 25.56, 25.21 a.u.

 SYSTEM =  01_AOPT                                 
 POSCAR =  Ge Se                                   

 Startparameter for this run:
   NWRITE =      2    write-flag & timer
   PREC   = accura    normal or accurate (medium, high low for compatibility)
   ISTART =      0    job   : 0-new  1-cont  2-samecut
   ICHARG =      2    charge: 1-file 2-atom 10-const
   ISPIN  =      2    spin polarized calculation?
   LNONCOLLINEAR =      F non collinear calculations
   LSORBIT =      F    spin-orbit coupling
   INIWAV =      1    electr: 0-lowe 1-rand  2-diag
   LASPH  =      T    aspherical Exc in radial PAW
 Electronic Relaxation 1
   ENCUT  =  520.0 eV  38.22 Ry    6.18 a.u.  23.20 23.22 20.60*2*pi/ulx,y,z
   ENINI  =  520.0     initial cutoff
   ENAUG  =  446.8 eV  augmentation charge cutoff
   NELM   =    100;   NELMIN=  5; NELMDL=  0     # of ELM steps 
   EDIFF  = 0.1E-05   stopping-criterion for ELM
   LREAL  =      F    real-space projection
   NLSPLINE    = F    spline interpolate recip. space projectors
   LCOMPAT=      F    compatible to vasp.4.4
   GGA_COMPAT  = T    GGA compatible to vasp.4.4-vasp.4.6
   LMAXPAW     = -100 max onsite density
   LMAXMIX     =    2 max onsite mixed and CHGCAR
   VOSKOWN=      0    Vosko Wilk Nusair interpolation
   ROPT   =    0.00000   0.00000
 Ionic relaxation
   EDIFFG = 0.1E-04   stopping-criterion for IOM
   NSW    =      0    number of steps for IOM
   NBLOCK =      1;   KBLOCK =      1    inner block; outer block 
   IBRION =     -1    ionic relax: 0-MD 1-quasi-New 2-CG
   NFREE  =      0    steps in history (QN), initial steepest desc. (CG)
   ISIF   =      2    stress and relaxation
   IWAVPR =     10    prediction:  0-non 1-charg 2-wave 3-comb
   ISYM   =     -1    0-nonsym 1-usesym 2-fastsym
   LCORR  =      T    Harris-Foulkes like correction to forces

   POTIM  = 0.5000    time-step for ionic-motion
   TEIN   =    0.0    initial temperature
   TEBEG  =    0.0;   TEEND  =   0.0 temperature during run
   SMASS  =  -3.00    Nose mass-parameter (am)
   estimated Nose-frequenzy (Omega)   =  0.10E-29 period in steps = 0.13E+47 mass=  -0.356E-26a.u.
   SCALEE = 1.0000    scale energy and forces
   NPACO  =    256;   APACO  = 10.0  distance and # of slots for P.C.
   PSTRESS=    0.0 pullay stress

  Mass of Ions in am
   POMASS =  72.61 78.96
  Ionic Valenz
   ZVAL   =   4.00  6.00
  Atomic Wigner-Seitz radii
   RWIGS  =  -1.00 -1.00
  virtual crystal weights 
   VCA    =   1.00  1.00
   NELECT =     360.0000    total number of electrons
   NUPDOWN=      -1.0000    fix difference up-down

 DOS related values:
   EMIN   =  10.00;   EMAX   =-10.00  energy-range for DOS
   EFERMI =   0.00;   METHOD = LEGACY      
   ISMEAR =     0;   SIGMA  =   0.05  broadening in eV -4-tet -1-fermi 0-gaus

 Electronic relaxation 2 (details)
   IALGO  =     38    algorithm
   LDIAG  =      T    sub-space diagonalisation (order eigenvalues)
   LSUBROT=      F    optimize rotation matrix (better conditioning)
   TURBO    =      0    0=normal 1=particle mesh
   IRESTART =      0    0=no restart 2=restart with 2 vectors
   NREBOOT  =      0    no. of reboots
   NMIN     =      0    reboot dimension
   EREF     =   0.00    reference energy to select bands
   IMIX   =      4    mixing-type and parameters
     AMIX     =   0.40;   BMIX     =  1.00
     AMIX_MAG =   1.60;   BMIX_MAG =  1.00
     AMIN     =   0.10
     WC   =   100.;   INIMIX=   1;  MIXPRE=   1;  MAXMIX= -45

 Intra band minimization:
   WEIMIN = 0.0000     energy-eigenvalue tresh-hold
   EBREAK =  0.11E-08  absolut break condition
   DEPER  =   0.30     relativ break condition  

   TIME   =   0.40     timestep for ELM

  volume/ion in A,a.u.               =      23.98       161.83
  Fermi-wavevector in a.u.,A,eV,Ry     =   0.970761  1.834473 12.821821  0.942377
  Thomas-Fermi vector in A             =   2.100923
 
 Write flags
   LWAVE        =      F    write WAVECAR
   LDOWNSAMPLE  =      F    k-point downsampling of WAVECAR
   LCHARG       =      F    write CHGCAR
   LVTOT        =      F    write LOCPOT, total local potential
   LVHAR        =      F    write LOCPOT, Hartree potential only
   LELF         =      F    write electronic localiz. function (ELF)
   LORBIT       =     11    0 simple, 1 ext, 2 COOP (PROOUT), +10 PAW based schemes


 Dipole corrections
   LMONO  =      F    monopole corrections only (constant potential shift)
   LDIPOL =      F    correct potential (dipole corrections)
   IDIPOL =      0    1-x, 2-y, 3-z, 4-all directions 
   EPSILON=  1.0000000 bulk dielectric constant

 Exchange correlation treatment:
   GGA     =    PE    GGA type
   LEXCH   =     8    internal setting for exchange type
   LIBXC   =     F    Libxc                    
   VOSKOWN =     0    Vosko Wilk Nusair interpolation
   LHFCALC =     F    Hartree Fock is set to
   LHFONE  =     F    Hartree Fock one center treatment
   AEXX    =    0.0000 exact exchange contribution

 Linear response parameters
   LEPSILON=     F    determine dielectric tensor
   LRPA    =     F    only Hartree local field effects (RPA)
   LNABLA  =     F    use nabla operator in PAW spheres
   LVEL    =     F    velocity operator in full k-point grid
   CSHIFT  =0.1000    complex shift for real part using Kramers Kronig
   OMEGAMAX=  -1.0    maximum frequency
   DEG_THRESHOLD= 0.2000000E-02 threshold for treating states as degnerate
   RTIME   =   -0.100 relaxation time in fs
  (WPLASMAI=    0.000 imaginary part of plasma frequency in eV, 0.658/RTIME)
   DFIELD  = 0.0000000 0.0000000 0.0000000 field for delta impulse in time
 
  Optional k-point grid parameters
   LKPOINTS_OPT  =     F    use optional k-point grid
   KPOINTS_OPT_MODE=     1    mode for optional k-point grid
 
 Orbital magnetization related:
   ORBITALMAG=     F  switch on orbital magnetization
   LCHIMAG   =     F  perturbation theory with respect to B field
   DQ        =  0.001000  dq finite difference perturbation B field
   LLRAUG    =     F  two centre corrections for induced B field
   LBONE     =     F  B-component reconstruction in AE one-centre
   LVGVCALC  =     T  calculate vGv susceptibility
   LVGVAPPL  =     F  apply vGv susceptibility instead of pGv for G=0

 Random number generation:
   RANDOM_GENERATOR = DEFAULT
   PCG_SEED         = not used


--------------------------------------------------------------------------------------------------------


 Static calculation
 charge density and potential will be updated during run
 spin polarized calculation
 Variant of blocked Davidson
 Davidson routine will perform the subspace rotation
 perform sub-space diagonalisation
    after iterative eigenvector-optimisation
 modified Broyden-mixing scheme, WC =      100.0
 initial mixing is a Kerker type mixing with AMIX =  0.4000 and BMIX =      1.0000
 Hartree-type preconditioning will be used
 using additional bands            44
 reciprocal scheme for non local part
 use partial core corrections
 calculate Harris-corrections to forces 
   (improved forces if not selfconsistent)
 use gradient corrections 
 use of overlap-Matrix (Vanderbilt PP)
 Gauss-broadening in eV      SIGMA  =   0.05


--------------------------------------------------------------------------------------------------------


  energy-cutoff  :      520.00
  volume of cell :     1726.59
      direct lattice vectors                 reciprocal lattice vectors
    12.475324790 -0.000004815  0.000001454     0.080158234  0.000000031 -0.000000012
    -0.000004821 12.490367187 -0.000001751     0.000000031  0.080061698  0.000000014
     0.000001662 -0.000001999 11.080585833    -0.000000011  0.000000013  0.090247936

  length of vectors
    12.475324790 12.490367187 11.080585833     0.080158234  0.080061698  0.090247936


 
 k-points in units of 2pi/SCALE and weight: KPOINTS created by Atomic Simulation Env
   0.00000000  0.00000000  0.00000000       0.125
   0.04007912  0.00000002 -0.00000001       0.125
   0.00000002  0.04003085  0.00000001       0.125
   0.04007913  0.04003086  0.00000000       0.125
  -0.00000001  0.00000001  0.04512397       0.125
   0.04007911  0.00000002  0.04512396       0.125
   0.00000001  0.04003086  0.04512398       0.125
   0.04007913  0.04003087  0.04512397       0.125
 
 k-points in reciprocal lattice and weights: KPOINTS created by Atomic Simulation Env
   0.00000000  0.00000000  0.00000000       0.125
   0.50000000  0.00000000  0.00000000       0.125
   0.00000000  0.50000000  0.00000000       0.125
   0.50000000  0.50000000  0.00000000       0.125
   0.00000000  0.00000000  0.50000000       0.125
   0.50000000  0.00000000  0.50000000       0.125
   0.00000000  0.50000000  0.50000000       0.125
   0.50000000  0.50000000  0.50000000       0.125
 
 position of ions in fractional coordinates (direct lattice) 
   0.08088769  0.04808224  0.12807120
   0.22461991  0.86307225  0.37303708
   0.55849707  0.19432198  0.38084539
   0.56289159  0.53901699  0.37251177
   0.55501195  0.86899394  0.37547851
   0.86890639  0.17138745  0.38320763
   0.88274753  0.52135582  0.35772554
   0.91400958  0.88278167  0.37361572
   0.04890108  0.15587848  0.64163183
   0.07465601  0.47001394  0.62188658
   0.05972964  0.81759120  0.62612121
   0.38259753  0.15598236  0.63485213
   0.39901785  0.46472149  0.61790971
   0.38349721  0.83662181  0.64042757
   0.73106106  0.14920562  0.62870391
   0.71229207  0.50060289  0.63335767
   0.19808242  0.51392520  0.38058893
   0.25312256  0.21795179  0.35806274
   0.73673319  0.84089999  0.64391285
   0.90381316  0.65559042  0.86052441
   0.90927274  0.97320192  0.87544460
   0.05429565  0.34075047  0.12435653
   0.06095734  0.68775713  0.13943641
   0.40388298  0.03318595  0.11626037
   0.40831717  0.39722528  0.11483220
   0.72214478  0.02176549  0.12137347
   0.72379127  0.36314303  0.10798910
   0.38380908  0.69456402  0.12800152
   0.24021645  0.31900336  0.89464901
   0.23705382  0.64035396  0.86844526
   0.22881376  0.99993871  0.87003334
   0.57358634  0.32164390  0.85451451
   0.56142157  0.67703896  0.87098633
   0.56093054  0.00360624  0.87342644
   0.87848512  0.34084109  0.87504389
   0.73399844  0.69627692  0.15562671
   0.89861949  0.01190335  0.64722571
   0.23754006  0.32872248  0.65173366
   0.23480639  0.69191037  0.64078549
   0.57526152  0.01705062  0.64054240
   0.56317181  0.34210041  0.63371659
   0.59304312  0.67154111  0.64144322
   0.91327270  0.33289695  0.65487087
   0.74662470  0.01162930  0.34061782
   0.07596633  0.01447458  0.35735888
   0.07834955  0.33637922  0.35332678
   0.06909580  0.66792459  0.36830305
   0.40740228  0.00502901  0.35430243
   0.40822285  0.35154822  0.34392291
   0.42039199  0.69599958  0.35055597
   0.23392056  0.00598170  0.63641529
   0.91903314  0.66383701  0.63918098
   0.90994288  0.83299345  0.13641217
   0.24740913  0.17224301  0.14290225
   0.91566677  0.17259654  0.14722918
   0.73364864  0.33992787  0.33144209
   0.09542274  0.16775453  0.86843299
   0.07625575  0.50043753  0.84677411
   0.07176697  0.85169725  0.85754660
   0.40933698  0.17583451  0.85852984
   0.39866556  0.51049865  0.84622374
   0.41601716  0.83358901  0.85500362
   0.73639005  0.18566301  0.85355585
   0.74522430  0.50919407  0.86164951
   0.75301550  0.83727760  0.86902600
   0.25657701  0.52443611  0.14432948
   0.23817299  0.82665082  0.14817652
   0.57093049  0.16146154  0.14658853
   0.57591569  0.51409130  0.14983649
   0.57768075  0.85816500  0.13292170
   0.90714654  0.49636313  0.13120090
   0.74351101  0.66339196  0.37673799
 
 position of ions in cartesian coordinates  (Angst):
   1.00910017  0.60056413  1.41910397
   2.80220276 10.78008751  4.13346822
   6.96743207  2.42714940  4.21999049
   7.02225337  6.73251671  4.12764849
   6.92395077 10.85405002  4.16052120
  10.83988926  2.14068717  4.24616598
  11.01256027  6.51192071  3.96380888
  11.40256269 11.02626211  4.13988083
   0.61005714  1.94697789  7.10965640
   0.93135678  5.87064513  6.89086688
   0.74514375 10.21201275  6.93778851
   4.77302878  1.94827386  7.03453384
   4.97787610  5.80453891  6.84680136
   4.78424924 10.44971052  7.09631181
   9.12022448  1.86362824  6.96640842
   8.88607354  6.25270916  7.01797421
   2.47114071  6.41911276  4.21714764
   3.15778567  2.72229592  3.96754492
   9.19098280 10.50314478  7.13493121
  11.27536095  8.18855903  9.53511473
  11.34346957 12.15564325  9.70043870
   0.67735442  4.25609792  1.37794267
   0.76045950  8.59033854  1.54503597
   5.03857142  0.41450255  1.28823354
   5.09388757  4.96148739  1.27240797
   9.00899075  0.27185528  1.34489014
   9.02952964  4.53578614  1.19658296
   4.78813983  8.67535749  1.41833116
   2.99677819  3.98446615  9.91323493
   2.95732174  7.99825327  9.62288149
   2.85452266 12.48959886  9.64047771
   7.15567575  4.01744589  9.46852170
   7.00391458  8.45646071  9.65103846
   6.99779216  0.04503878  9.67807749
  10.95938695  4.25722440  9.69599957
   9.15686584  8.69675054  1.72443496
  11.21057101  0.14867155  7.17164132
   2.96338891  4.10586206  7.22159056
   2.92928367  8.64221221  7.10027770
   7.17657532  0.21296443  7.09758585
   7.02575059  4.27295571  7.02195134
   7.39840339  8.38779093  7.10756638
  11.39337307  4.15799939  7.25635364
   9.31438617  0.14524997  3.77424601
   0.94770515  0.18079169  3.95974578
   0.97743511  4.20149885  3.91506719
   0.86198990  8.34262235  4.08101250
   5.08247628  0.06281156  3.92587908
   5.09271148  4.39096376  3.81086732
   5.24452387  8.69328763  3.88436491
   2.91823598  0.07471123  7.05185456
  11.46523478  8.29156236  7.08249992
  11.35182912 10.40438944  1.51152667
   3.08650868  2.15137700  1.58344076
  11.42323982  2.15578941  1.63138656
   9.15250403  4.24581969  3.67257298
   1.19043027  2.09531343  9.62274610
   0.95131423  6.25064650  9.38275243
   0.89531357 10.63800928  9.50211729
   5.10661238  2.19623392  9.51301387
   4.97348126  6.37631199  9.37665450
   5.18994660 10.41182913  9.47394014
   9.18670552  2.31899386  9.45789957
   9.29691413  6.36001554  9.54758159
   9.39411033 10.45789929  9.62931681
   3.20087918  6.55039806  1.59925459
   2.97128165 10.32517079  1.64188155
   7.12254279  2.01671087  1.62428733
   7.18473300  6.42118598  1.66027600
   7.20675110 10.71879285  1.47284965
  11.31694557  6.19975317  1.45378329
   9.27553874  8.28600490  4.17447761
 


--------------------------------------------------------------------------------------------------------


 k-point   1 :   0.0000 0.0000 0.0000  plane waves:   46425
 k-point   2 :   0.5000 0.0000 0.0000  plane waves:   46522
 k-point   3 :   0.0000 0.5000 0.0000  plane waves:   46514
 k-point   4 :   0.5000 0.5000 0.0000  plane waves:   46592
 k-point   5 :   0.0000 0.0000 0.5000  plane waves:   46594
 k-point   6 :   0.5000 0.0000 0.5000  plane waves:   46456
 k-point   7 :   0.0000 0.5000 0.5000  plane waves:   46464
 k-point   8 :   0.5000 0.5000 0.5000  plane waves:   46456

 maximum and minimum number of plane-waves per node :      5861     5762

 maximum number of plane-waves:     46594
 maximum index in each direction: 
   IXMAX=   23   IYMAX=   23   IZMAX=   20
   IXMIN=  -23   IYMIN=  -23   IZMIN=  -21


 parallel 3D FFT for wavefunctions:
    minimum data exchange during FFTs selected (reduces bandwidth)
 parallel 3D FFT for charge:
    minimum data exchange during FFTs selected (reduces bandwidth)


 total amount of memory used by VASP MPI-rank0   110844. kBytes
=======================================================================

   base      :      30000. kBytes
   nonl-proj :      16377. kBytes
   fftplans  :       6179. kBytes
   grid      :      15593. kBytes
   one-center:        146. kBytes
   wavefun   :      42549. kBytes
 
     INWAV:  cpu time      0.0000: real time      0.0001
 Broyden mixing: mesh for mixing (old mesh)
   NGX = 47   NGY = 47   NGZ = 41
  (NGX  =192   NGY  =192   NGZ  =168)
  gives a total of  90569 points

 initial charge density was supplied:
 charge density of overlapping atoms calculated
 number of electron     360.0000000 magnetization      72.0000000
 keeping initial charge density in first step


--------------------------------------------------------------------------------------------------------


 Maximum index for augmentation-charges           754 (set IRDMAX)


--------------------------------------------------------------------------------------------------------


 First call to EWALD:  gamma=   0.148
 Maximum number of real-space cells 3x 3x 3
 Maximum number of reciprocal cells 3x 3x 3

    FEWALD:  cpu time      0.0024: real time      0.0024


--------------------------------------- Ionic step        1  -------------------------------------------




--------------------------------------- Iteration      1(   1)  ---------------------------------------


    POTLOK:  cpu time      0.1408: real time      0.1417
    SETDIJ:  cpu time      0.5888: real time      0.5906
     EDDAV:  cpu time      8.7294: real time      8.7775
       DOS:  cpu time      0.0014: real time      0.0014
    --------------------------------------------
      LOOP:  cpu time      9.4603: real time      9.5111

 eigenvalue-minimisations  :  7168
 total energy-change (2. order) : 0.1819062E+04  (-0.1419012E+05)
 number of electron     360.0000000 magnetization      72.0000000
 augmentation part      360.0000000 magnetization      72.0000000

 Free energy of the ion-electron system (eV)
  ---------------------------------------------------
  alpha Z        PSCENC =       794.91847283
  Ewald energy   TEWEN  =    -12839.52015126
  -Hartree energ DENC   =     -1125.91887128
  -exchange      EXHF   =         0.00000000
  -V(xc)+E(xc)   XCENC  =      -293.88129070
  PAW double counting   =     10738.42099860    -9719.93139476
  entropy T*S    EENTRO =        -0.02036881
  eigenvalues    EBANDS =      1228.54323105
  atomic energy  EATOM  =     13036.45147835
  Solvation  Ediel_sol  =         0.00000000
  ---------------------------------------------------
  free energy    TOTEN  =      1819.06210402 eV

  energy without entropy =     1819.08247282  energy(sigma->0) =     1819.07228842


--------------------------------------------------------------------------------------------------------




--------------------------------------- Iteration      1(   2)  ---------------------------------------


     EDDAV:  cpu time      9.8406: real time      9.9006
       DOS:  cpu time      0.0011: real time      0.0011
    --------------------------------------------
      LOOP:  cpu time      9.8417: real time      9.9017

 eigenvalue-minimisations  :  8496
 total energy-change (2. order) :-0.1883464E+04  (-0.1808119E+04)
 number of electron     360.0000000 magnetization      72.0000000
 augmentation part      360.0000000 magnetization      72.0000000

 Free energy of the ion-electron system (eV)
  ---------------------------------------------------
  alpha Z        PSCENC =       794.91847283
  Ewald energy   TEWEN  =    -12839.52015126
  -Hartree energ DENC   =     -1125.91887128
  -exchange      EXHF   =         0.00000000
  -V(xc)+E(xc)   XCENC  =      -293.88129070
  PAW double counting   =     10738.42099860    -9719.93139476
  entropy T*S    EENTRO =        -0.01803121
  eigenvalues    EBANDS =      -654.92352395
  atomic energy  EATOM  =     13036.45147835
  Solvation  Ediel_sol  =         0.00000000
  ---------------------------------------------------
  free energy    TOTEN  =       -64.40231339 eV

  energy without entropy =      -64.38428218  energy(sigma->0) =      -64.39329778


--------------------------------------------------------------------------------------------------------




--------------------------------------- Iteration      1(   3)  ---------------------------------------


     EDDAV:  cpu time      9.8669: real time      9.9180
       DOS:  cpu time      0.0011: real time      0.0011
    --------------------------------------------
      LOOP:  cpu time      9.8680: real time      9.9190

 eigenvalue-minimisations  :  8528
 total energy-change (2. order) :-0.2176226E+03  (-0.2115683E+03)
 number of electron     360.0000000 magnetization      72.0000000
 augmentation part      360.0000000 magnetization      72.0000000

 Free energy of the ion-electron system (eV)
  ---------------------------------------------------
  alpha Z        PSCENC =       794.91847283
  Ewald energy   TEWEN  =    -12839.52015126
  -Hartree energ DENC   =     -1125.91887128
  -exchange      EXHF   =         0.00000000
  -V(xc)+E(xc)   XCENC  =      -293.88129070
  PAW double counting   =     10738.42099860    -9719.93139476
  entropy T*S    EENTRO =        -0.00000748
  eigenvalues    EBANDS =      -872.56413092
  atomic energy  EATOM  =     13036.45147835
  Solvation  Ediel_sol  =         0.00000000
  ---------------------------------------------------
  free energy    TOTEN  =      -282.02489662 eV

  energy without entropy =     -282.02488914  energy(sigma->0) =     -282.02489288


--------------------------------------------------------------------------------------------------------




--------------------------------------- Iteration      1(   4)  ---------------------------------------


     EDDAV:  cpu time     10.0524: real time     10.1054
       DOS:  cpu time      0.0010: real time      0.0010
    --------------------------------------------
      LOOP:  cpu time     10.0534: real time     10.1065

 eigenvalue-minimisations  :  8776
 total energy-change (2. order) :-0.7957461E+01  (-0.7867889E+01)
 number of electron     360.0000000 magnetization      72.0000000
 augmentation part      360.0000000 magnetization      72.0000000

 Free energy of the ion-electron system (eV)
  ---------------------------------------------------
  alpha Z        PSCENC =       794.91847283
  Ewald energy   TEWEN  =    -12839.52015126
  -Hartree energ DENC   =     -1125.91887128
  -exchange      EXHF   =         0.00000000
  -V(xc)+E(xc)   XCENC  =      -293.88129070
  PAW double counting   =     10738.42099860    -9719.93139476
  entropy T*S    EENTRO =        -0.00000068
  eigenvalues    EBANDS =      -880.52159887
  atomic energy  EATOM  =     13036.45147835
  Solvation  Ediel_sol  =         0.00000000
  ---------------------------------------------------
  free energy    TOTEN  =      -289.98235777 eV

  energy without entropy =     -289.98235709  energy(sigma->0) =     -289.98235743


--------------------------------------------------------------------------------------------------------




--------------------------------------- Iteration      1(   5)  ---------------------------------------


     EDDAV:  cpu time     10.3422: real time     10.3933
       DOS:  cpu time      0.0008: real time      0.0008
    CHARGE:  cpu time      0.4336: real time      0.4353
    MIXING:  cpu time      0.0075: real time      0.0076
    --------------------------------------------
      LOOP:  cpu time     10.7841: real time     10.8370

 eigenvalue-minimisations  :  9080
 total energy-change (2. order) :-0.2891985E+00  (-0.2884396E+00)
 number of electron     359.9999993 magnetization      48.7355509
 augmentation part      -66.8063071 magnetization      48.9474323

 Broyden mixing:
  rms(total) = 0.29125E+01    rms(broyden)= 0.29125E+01
  rms(prec ) = 0.30705E+01
  weight for this iteration     100.00

 Free energy of the ion-electron system (eV)
  ---------------------------------------------------
  alpha Z        PSCENC =       794.91847283
  Ewald energy   TEWEN  =    -12839.52015126
  -Hartree energ DENC   =     -1125.91887128
  -exchange      EXHF   =         0.00000000
  -V(xc)+E(xc)   XCENC  =      -293.88129070
  PAW double counting   =     10738.42099860    -9719.93139476
  entropy T*S    EENTRO =        -0.00000070
  eigenvalues    EBANDS =      -880.81079736
  atomic energy  EATOM  =     13036.45147835
  Solvation  Ediel_sol  =         0.00000000
  ---------------------------------------------------
  free energy    TOTEN  =      -290.27155629 eV

  energy without entropy =     -290.27155559  energy(sigma->0) =     -290.27155594


--------------------------------------------------------------------------------------------------------




--------------------------------------- Iteration      1(   6)  ---------------------------------------


    POTLOK:  cpu time      0.1397: real time      0.1411
    SETDIJ:  cpu time      0.5919: real time      0.5942
     EDDAV:  cpu time      9.3281: real time      9.3773
       DOS:  cpu time      0.0010: real time      0.0010
    CHARGE:  cpu time      0.4196: real time      0.4215
    MIXING:  cpu time      0.0073: real time      0.0073
    --------------------------------------------
      LOOP:  cpu time     10.4875: real time     10.5423

 eigenvalue-minimisations  :  7936
 total energy-change (2. order) : 0.4160284E+00  (-0.2673561E+01)
 number of electron     359.9999993 magnetization      27.8555244
 augmentation part      -66.1931755 magnetization      29.0334195

 Broyden mixing:
  rms(total) = 0.17226E+01    rms(broyden)= 0.17226E+01
  rms(prec ) = 0.17599E+01
  weight for this iteration     100.00

 eigenvalues of (default mixing * dielectric matrix)
  average eigenvalue GAMMA=   1.0074
  1.0074

 Free energy of the ion-electron system (eV)
  ---------------------------------------------------
  alpha Z        PSCENC =       794.91847283
  Ewald energy   TEWEN  =    -12839.52015126
  -Hartree energ DENC   =     -1179.24259288
  -exchange      EXHF   =         0.00000000
  -V(xc)+E(xc)   XCENC  =      -287.31796627
  PAW double counting   =     13017.87837011   -12002.91057036
  entropy T*S    EENTRO =        -0.00000020
  eigenvalues    EBANDS =      -830.11256823
  atomic energy  EATOM  =     13036.45147835
  Solvation  Ediel_sol  =         0.00000000
  ---------------------------------------------------
  free energy    TOTEN  =      -289.85552791 eV

  energy without entropy =     -289.85552772  energy(sigma->0) =     -289.85552782


--------------------------------------------------------------------------------------------------------




--------------------------------------- Iteration      1(   7)  ---------------------------------------


    POTLOK:  cpu time      0.1324: real time      0.1331
    SETDIJ:  cpu time      0.5945: real time      0.5962
     EDDAV:  cpu time      9.3968: real time      9.4439
       DOS:  cpu time      0.0008: real time      0.0008
    CHARGE:  cpu time      0.4319: real time      0.4336
    MIXING:  cpu time      0.0074: real time      0.0074
    --------------------------------------------
      LOOP:  cpu time     10.5638: real time     10.6149

 eigenvalue-minimisations  :  8080
 total energy-change (2. order) :-0.7372760E+01  (-0.8893170E+00)
 number of electron     359.9999993 magnetization       9.1452019
 augmentation part      -66.1800923 magnetization       9.8129380

 Broyden mixing:
  rms(total) = 0.90783E+00    rms(broyden)= 0.90783E+00
  rms(prec ) = 0.92422E+00
  weight for this iteration     100.00

 eigenvalues of (default mixing * dielectric matrix)
  average eigenvalue GAMMA=   1.4582
  0.8630  2.0534

 Free energy of the ion-electron system (eV)
  ---------------------------------------------------
  alpha Z        PSCENC =       794.91847283
  Ewald energy   TEWEN  =    -12839.52015126
  -Hartree energ DENC   =     -1196.10409087
  -exchange      EXHF   =         0.00000000
  -V(xc)+E(xc)   XCENC  =      -290.24166944
  PAW double counting   =     15103.00368026   -14089.66115887
  entropy T*S    EENTRO =        -0.00000000
  eigenvalues    EBANDS =      -816.07484868
  atomic energy  EATOM  =     13036.45147835
  Solvation  Ediel_sol  =         0.00000000
  ---------------------------------------------------
  free energy    TOTEN  =      -297.22828769 eV

  energy without entropy =     -297.22828769  energy(sigma->0) =     -297.22828769


--------------------------------------------------------------------------------------------------------




--------------------------------------- Iteration      1(   8)  ---------------------------------------


    POTLOK:  cpu time      0.1340: real time      0.1347
    SETDIJ:  cpu time      0.5921: real time      0.5946
     EDDAV:  cpu time      9.5153: real time      9.5703
       DOS:  cpu time      0.0006: real time      0.0006
    CHARGE:  cpu time      0.4212: real time      0.4228
    MIXING:  cpu time      0.0077: real time      0.0077
    --------------------------------------------
      LOOP:  cpu time     10.6710: real time     10.7307

 eigenvalue-minimisations  :  8144
 total energy-change (2. order) :-0.3177963E+01  (-0.1723418E+00)
 number of electron     359.9999993 magnetization       4.2979953
 augmentation part      -66.1928623 magnetization       4.6015661

 Broyden mixing:
  rms(total) = 0.32661E+00    rms(broyden)= 0.32661E+00
  rms(prec ) = 0.33201E+00
  weight for this iteration     100.00

 eigenvalues of (default mixing * dielectric matrix)
  average eigenvalue GAMMA=   1.3605
  2.5001  0.9247  0.6569

 Free energy of the ion-electron system (eV)
  ---------------------------------------------------
  alpha Z        PSCENC =       794.91847283
  Ewald energy   TEWEN  =    -12839.52015126
  -Hartree energ DENC   =     -1200.57484143
  -exchange      EXHF   =         0.00000000
  -V(xc)+E(xc)   XCENC  =      -289.94947020
  PAW double counting   =     16876.33728843   -15863.92973194
  entropy T*S    EENTRO =        -0.00000000
  eigenvalues    EBANDS =      -814.13929518
  atomic energy  EATOM  =     13036.45147835
  Solvation  Ediel_sol  =         0.00000000
  ---------------------------------------------------
  free energy    TOTEN  =      -300.40625040 eV

  energy without entropy =     -300.40625040  energy(sigma->0) =     -300.40625040


--------------------------------------------------------------------------------------------------------




--------------------------------------- Iteration      1(   9)  ---------------------------------------


    POTLOK:  cpu time      0.1315: real time      0.1322
    SETDIJ:  cpu time      0.6055: real time      0.6081
     EDDAV:  cpu time     10.3172: real time     10.3686
       DOS:  cpu time      0.0007: real time      0.0007
    CHARGE:  cpu time      0.4198: real time      0.4216
    MIXING:  cpu time      0.0075: real time      0.0075
    --------------------------------------------
      LOOP:  cpu time     11.4822: real time     11.5387

 eigenvalue-minimisations  :  9120
 total energy-change (2. order) :-0.3770969E+00  (-0.4311176E-01)
 number of electron     359.9999993 magnetization       2.2634532
 augmentation part      -66.2308840 magnetization       2.4124573

 Broyden mixing:
  rms(total) = 0.14710E+00    rms(broyden)= 0.14710E+00
  rms(prec ) = 0.14880E+00
  weight for this iteration     100.00

 eigenvalues of (default mixing * dielectric matrix)
  average eigenvalue GAMMA=   1.3281
  2.6301  1.2288  0.8334  0.6202

 Free energy of the ion-electron system (eV)
  ---------------------------------------------------
  alpha Z        PSCENC =       794.91847283
  Ewald energy   TEWEN  =    -12839.52015126
  -Hartree energ DENC   =     -1199.63475365
  -exchange      EXHF   =         0.00000000
  -V(xc)+E(xc)   XCENC  =      -289.98106715
  PAW double counting   =     17166.85258078   -16154.78479626
  entropy T*S    EENTRO =        -0.00000000
  eigenvalues    EBANDS =      -815.08511092
  atomic energy  EATOM  =     13036.45147835
  Solvation  Ediel_sol  =         0.00000000
  ---------------------------------------------------
  free energy    TOTEN  =      -300.78334728 eV

  energy without entropy =     -300.78334728  energy(sigma->0) =     -300.78334728


--------------------------------------------------------------------------------------------------------




--------------------------------------- Iteration      1(  10)  ---------------------------------------


    POTLOK:  cpu time      0.1312: real time      0.1319
    SETDIJ:  cpu time      0.6013: real time      0.6035
     EDDAV:  cpu time      9.5277: real time      9.5746
       DOS:  cpu time      0.0009: real time      0.0009
    CHARGE:  cpu time      0.4212: real time      0.4228
    MIXING:  cpu time      0.0078: real time      0.0079
    --------------------------------------------
      LOOP:  cpu time     10.6900: real time     10.7415

 eigenvalue-minimisations  :  8120
 total energy-change (2. order) :-0.9864449E-01  (-0.9032861E-02)
 number of electron     359.9999993 magnetization       0.7488905
 augmentation part      -66.2313546 magnetization       0.8161703

 Broyden mixing:
  rms(total) = 0.72415E-01    rms(broyden)= 0.72415E-01
  rms(prec ) = 0.73578E-01
  weight for this iteration     100.00

 eigenvalues of (default mixing * dielectric matrix)
  average eigenvalue GAMMA=   1.3702
  2.6974  1.7347  0.9676  0.8257  0.6258

 Free energy of the ion-electron system (eV)
  ---------------------------------------------------
  alpha Z        PSCENC =       794.91847283
  Ewald energy   TEWEN  =    -12839.52015126
  -Hartree energ DENC   =     -1199.91500127
  -exchange      EXHF   =         0.00000000
  -V(xc)+E(xc)   XCENC  =      -289.97060491
  PAW double counting   =     17176.19402471   -16164.14284907
  entropy T*S    EENTRO =        -0.00000000
  eigenvalues    EBANDS =      -814.89736114
  atomic energy  EATOM  =     13036.45147835
  Solvation  Ediel_sol  =         0.00000000
  ---------------------------------------------------
  free energy    TOTEN  =      -300.88199176 eV

  energy without entropy =     -300.88199176  energy(sigma->0) =     -300.88199176


--------------------------------------------------------------------------------------------------------




--------------------------------------- Iteration      1(  11)  ---------------------------------------


    POTLOK:  cpu time      0.1313: real time      0.1320
    SETDIJ:  cpu time      0.5944: real time      0.5963
     EDDAV:  cpu time     10.1809: real time     10.2311
       DOS:  cpu time      0.0009: real time      0.0009
    CHARGE:  cpu time      0.4127: real time      0.4145
    MIXING:  cpu time      0.0078: real time      0.0079
    --------------------------------------------
      LOOP:  cpu time     11.3280: real time     11.3827

 eigenvalue-minimisations  :  8928
 total energy-change (2. order) :-0.3074305E-01  (-0.3544987E-02)
 number of electron     359.9999993 magnetization       0.1867702
 augmentation part      -66.2173214 magnetization       0.2059216

 Broyden mixing:
  rms(total) = 0.28852E-01    rms(broyden)= 0.28852E-01
  rms(prec ) = 0.29351E-01
  weight for this iteration     100.00

 eigenvalues of (default mixing * dielectric matrix)
  average eigenvalue GAMMA=   1.4004
  2.8944  2.1583  1.1689  0.8586  0.6986  0.6236

 Free energy of the ion-electron system (eV)
  ---------------------------------------------------
  alpha Z        PSCENC =       794.91847283
  Ewald energy   TEWEN  =    -12839.52015126
  -Hartree energ DENC   =     -1201.03472154
  -exchange      EXHF   =         0.00000000
  -V(xc)+E(xc)   XCENC  =      -289.92649526
  PAW double counting   =     17102.35900443   -16090.28157340
  entropy T*S    EENTRO =        -0.00000000
  eigenvalues    EBANDS =      -813.87874896
  atomic energy  EATOM  =     13036.45147835
  Solvation  Ediel_sol  =         0.00000000
  ---------------------------------------------------
  free energy    TOTEN  =      -300.91273481 eV

  energy without entropy =     -300.91273481  energy(sigma->0) =     -300.91273481


--------------------------------------------------------------------------------------------------------




--------------------------------------- Iteration      1(  12)  ---------------------------------------


    POTLOK:  cpu time      0.1347: real time      0.1366
    SETDIJ:  cpu time      0.5948: real time      0.5964
     EDDAV:  cpu time      9.8948: real time      9.9415
       DOS:  cpu time      0.0018: real time      0.0018
    CHARGE:  cpu time      0.4163: real time      0.4182
    MIXING:  cpu time      0.0079: real time      0.0079
    --------------------------------------------
      LOOP:  cpu time     11.0503: real time     11.1024

 eigenvalue-minimisations  :  8472
 total energy-change (2. order) :-0.3468664E-02  (-0.4810857E-03)
 number of electron     359.9999993 magnetization       0.0631347
 augmentation part      -66.2166561 magnetization       0.0678787

 Broyden mixing:
  rms(total) = 0.10932E-01    rms(broyden)= 0.10932E-01
  rms(prec ) = 0.11639E-01
  weight for this iteration     100.00

 eigenvalues of (default mixing * dielectric matrix)
  average eigenvalue GAMMA=   1.3635
  2.9975  2.3258  1.1998  0.8789  0.8789  0.6089  0.6551

 Free energy of the ion-electron system (eV)
  ---------------------------------------------------
  alpha Z        PSCENC =       794.91847283
  Ewald energy   TEWEN  =    -12839.52015126
  -Hartree energ DENC   =     -1201.14809716
  -exchange      EXHF   =         0.00000000
  -V(xc)+E(xc)   XCENC  =      -289.92771430
  PAW double counting   =     17066.24137226   -16054.14103155
  entropy T*S    EENTRO =        -0.00000000
  eigenvalues    EBANDS =      -813.79053264
  atomic energy  EATOM  =     13036.45147835
  Solvation  Ediel_sol  =         0.00000000
  ---------------------------------------------------
  free energy    TOTEN  =      -300.91620348 eV

  energy without entropy =     -300.91620348  energy(sigma->0) =     -300.91620348


--------------------------------------------------------------------------------------------------------




--------------------------------------- Iteration      1(  13)  ---------------------------------------


    POTLOK:  cpu time      0.1307: real time      0.1314
    SETDIJ:  cpu time      0.5948: real time      0.5969
     EDDAV:  cpu time     11.1328: real time     11.1858
       DOS:  cpu time      0.0009: real time      0.0009
    CHARGE:  cpu time      0.4309: real time      0.4326
    MIXING:  cpu time      0.0081: real time      0.0081
    --------------------------------------------
      LOOP:  cpu time     12.2982: real time     12.3557

 eigenvalue-minimisations  :  9936
 total energy-change (2. order) :-0.1260163E-03  (-0.6500124E-04)
 number of electron     359.9999993 magnetization       0.0171675
 augmentation part      -66.2179765 magnetization       0.0180854

 Broyden mixing:
  rms(total) = 0.47329E-02    rms(broyden)= 0.47329E-02
  rms(prec ) = 0.49514E-02
  weight for this iteration     100.00

 eigenvalues of (default mixing * dielectric matrix)
  average eigenvalue GAMMA=   1.3430
  3.0421  2.4273  1.0849  1.0351  1.0351  0.8581  0.6504  0.6108

 Free energy of the ion-electron system (eV)
  ---------------------------------------------------
  alpha Z        PSCENC =       794.91847283
  Ewald energy   TEWEN  =    -12839.52015126
  -Hartree energ DENC   =     -1201.06023907
  -exchange      EXHF   =         0.00000000
  -V(xc)+E(xc)   XCENC  =      -289.93700389
  PAW double counting   =     17052.75604749   -16040.64481078
  entropy T*S    EENTRO =        -0.00000000
  eigenvalues    EBANDS =      -813.88012315
  atomic energy  EATOM  =     13036.45147835
  Solvation  Ediel_sol  =         0.00000000
  ---------------------------------------------------
  free energy    TOTEN  =      -300.91632949 eV

  energy without entropy =     -300.91632949  energy(sigma->0) =     -300.91632949


--------------------------------------------------------------------------------------------------------




--------------------------------------- Iteration      1(  14)  ---------------------------------------


    POTLOK:  cpu time      0.1312: real time      0.1319
    SETDIJ:  cpu time      0.5931: real time      0.5955
     EDDAV:  cpu time      9.6449: real time      9.6915
       DOS:  cpu time      0.0007: real time      0.0007
    CHARGE:  cpu time      0.4296: real time      0.4314
    MIXING:  cpu time      0.0078: real time      0.0078
    --------------------------------------------
      LOOP:  cpu time     10.8073: real time     10.8587

 eigenvalue-minimisations  :  8288
 total energy-change (2. order) :-0.1933064E-04  (-0.1139283E-04)
 number of electron     359.9999993 magnetization       0.0052977
 augmentation part      -66.2176242 magnetization       0.0056019

 Broyden mixing:
  rms(total) = 0.18058E-02    rms(broyden)= 0.18058E-02
  rms(prec ) = 0.19168E-02
  weight for this iteration     100.00

 eigenvalues of (default mixing * dielectric matrix)
  average eigenvalue GAMMA=   1.3331
  3.0703  2.4637  1.4517  1.1939  0.8927  0.8927  0.7740  0.6155  0.6437

 Free energy of the ion-electron system (eV)
  ---------------------------------------------------
  alpha Z        PSCENC =       794.91847283
  Ewald energy   TEWEN  =    -12839.52015126
  -Hartree energ DENC   =     -1201.06703270
  -exchange      EXHF   =         0.00000000
  -V(xc)+E(xc)   XCENC  =      -289.93737562
  PAW double counting   =     17047.97691683   -16035.86259079
  entropy T*S    EENTRO =        -0.00000000
  eigenvalues    EBANDS =      -813.87606646
  atomic energy  EATOM  =     13036.45147835
  Solvation  Ediel_sol  =         0.00000000
  ---------------------------------------------------
  free energy    TOTEN  =      -300.91634882 eV

  energy without entropy =     -300.91634882  energy(sigma->0) =     -300.91634882


--------------------------------------------------------------------------------------------------------




--------------------------------------- Iteration      1(  15)  ---------------------------------------


    POTLOK:  cpu time      0.1326: real time      0.1333
    SETDIJ:  cpu time      0.5916: real time      0.5939
     EDDAV:  cpu time      9.9145: real time      9.9626
       DOS:  cpu time      0.0006: real time      0.0006
    CHARGE:  cpu time      0.4217: real time      0.4233
    MIXING:  cpu time      0.0081: real time      0.0081
    --------------------------------------------
      LOOP:  cpu time     11.0691: real time     11.1218

 eigenvalue-minimisations  :  8592
 total energy-change (2. order) :-0.3756159E-05  (-0.1934715E-05)
 number of electron     359.9999993 magnetization       0.0018126
 augmentation part      -66.2178171 magnetization       0.0020197

 Broyden mixing:
  rms(total) = 0.81049E-03    rms(broyden)= 0.81049E-03
  rms(prec ) = 0.85947E-03
  weight for this iteration     100.00

 eigenvalues of (default mixing * dielectric matrix)
  average eigenvalue GAMMA=   1.2982
  3.0827  2.4375  1.6718  1.0959  0.9594  0.9594  0.8315  0.7036  0.6202  0.6202

 Free energy of the ion-electron system (eV)
  ---------------------------------------------------
  alpha Z        PSCENC =       794.91847283
  Ewald energy   TEWEN  =    -12839.52015126
  -Hartree energ DENC   =     -1201.05264173
  -exchange      EXHF   =         0.00000000
  -V(xc)+E(xc)   XCENC  =      -289.93777449
  PAW double counting   =     17047.37928673   -16035.26401980
  entropy T*S    EENTRO =        -0.00000000
  eigenvalues    EBANDS =      -813.89100320
  atomic energy  EATOM  =     13036.45147835
  Solvation  Ediel_sol  =         0.00000000
  ---------------------------------------------------
  free energy    TOTEN  =      -300.91635258 eV

  energy without entropy =     -300.91635258  energy(sigma->0) =     -300.91635258


--------------------------------------------------------------------------------------------------------




--------------------------------------- Iteration      1(  16)  ---------------------------------------


    POTLOK:  cpu time      0.1310: real time      0.1317
    SETDIJ:  cpu time      0.5953: real time      0.5972
     EDDAV:  cpu time      6.8167: real time      6.8514
       DOS:  cpu time      0.0007: real time      0.0007
    --------------------------------------------
      LOOP:  cpu time      7.5437: real time      7.5809

 eigenvalue-minimisations  :  5008
 total energy-change (2. order) :-0.6603036E-06  (-0.1633510E-06)
 number of electron     359.9999993 magnetization       0.0018126
 augmentation part      -66.2178171 magnetization       0.0020197

 Free energy of the ion-electron system (eV)
  ---------------------------------------------------
  alpha Z        PSCENC =       794.91847283
  Ewald energy   TEWEN  =    -12839.52015126
  -Hartree energ DENC   =     -1201.04702356
  -exchange      EXHF   =         0.00000000
  -V(xc)+E(xc)   XCENC  =      -289.93795622
  PAW double counting   =     17047.31741937   -16035.20187603
  entropy T*S    EENTRO =        -0.00000000
  eigenvalues    EBANDS =      -813.89671672
  atomic energy  EATOM  =     13036.45147835
  Solvation  Ediel_sol  =         0.00000000
  ---------------------------------------------------
  free energy    TOTEN  =      -300.91635324 eV

  energy without entropy =     -300.91635324  energy(sigma->0) =     -300.91635324


--------------------------------------------------------------------------------------------------------




 average (electrostatic) potential at core
  the test charge radii are     1.1631  1.0808
  (the norm of the test charge is              1.0000)
       1 -33.3823       2 -33.5441       3 -33.7589       4 -33.4311       5 -33.4076
       6 -33.5872       7 -33.4132       8 -33.5950       9 -33.5264      10 -33.5212
      11 -33.4289      12 -33.5715      13 -33.4585      14 -33.3573      15 -33.5331
      16 -33.5183      17 -33.4528      18 -33.2956      19 -33.6343      20 -33.4315
      21 -33.3692      22 -33.5593      23 -33.4230      24 -33.5891      25 -33.3674
      26 -33.3307      27 -33.6376      28 -33.1491      29 -33.7242      30 -33.3524
      31 -33.5598      32 -33.5635      33 -33.6617      34 -33.8909      35 -33.4676
      36 -33.4643      37 -55.0261      38 -54.9421      39 -54.6915      40 -54.9644
      41 -55.1196      42 -54.7433      43 -54.8043      44 -55.1183      45 -54.8916
      46 -54.8492      47 -54.8294      48 -54.7957      49 -54.9243      50 -54.6340
      51 -54.9258      52 -54.6694      53 -54.6825      54 -55.0170      55 -54.7987
      56 -54.8061      57 -54.8199      58 -54.7493      59 -54.8231      60 -55.0609
      61 -54.7477      62 -54.9312      63 -54.9935      64 -54.9506      65 -54.8709
      66 -54.7800      67 -54.7194      68 -54.8627      69 -55.0096      70 -54.6116
      71 -54.8465      72 -54.9510
 
 
 
 E-fermi :   3.3466     XC(G=0):  -9.3595     alpha+bet : -8.7991

 Fermi energy:         3.3465610283

 spin component 1

 k-point     1 :       0.0000    0.0000    0.0000
  band No.  band energies     occupation 
      1     -10.9244      1.00000
      2     -10.5988      1.00000
      3     -10.4601      1.00000
      4     -10.4092      1.00000
      5     -10.3630      1.00000
      6     -10.2409      1.00000
      7     -10.1317      1.00000
      8     -10.1008      1.00000
      9     -10.0329      1.00000
     10     -10.0140      1.00000
     11      -9.9400      1.00000
     12      -9.9157      1.00000
     13      -9.8447      1.00000
     14      -9.7886      1.00000
     15      -9.7195      1.00000
     16      -9.6584      1.00000
     17      -9.6298      1.00000
     18      -9.5735      1.00000
     19      -9.5300      1.00000
     20      -9.4822      1.00000
     21      -9.4310      1.00000
     22      -9.4122      1.00000
     23      -9.4006      1.00000
     24      -9.3881      1.00000
     25      -9.3129      1.00000
     26      -9.2607      1.00000
     27      -9.2556      1.00000
     28      -9.2122      1.00000
     29      -9.1547      1.00000
     30      -9.1352      1.00000
     31      -9.1040      1.00000
     32      -9.0875      1.00000
     33      -9.0406      1.00000
     34      -9.0335      1.00000
     35      -8.9718      1.00000
     36      -8.9019      1.00000
     37      -5.4936      1.00000
     38      -5.4665      1.00000
     39      -5.3405      1.00000
     40      -5.3274      1.00000
     41      -5.1392      1.00000
     42      -5.1206      1.00000
     43      -4.9904      1.00000
     44      -4.9215      1.00000
     45      -4.7872      1.00000
     46      -4.7294      1.00000
     47      -4.6674      1.00000
     48      -4.5853      1.00000
     49      -4.5364      1.00000
     50      -4.4956      1.00000
     51      -4.4581      1.00000
     52      -4.4027      1.00000
     53      -4.3661      1.00000
     54      -4.3464      1.00000
     55      -4.3210      1.00000
     56      -4.2712      1.00000
     57      -4.2581      1.00000
     58      -4.2388      1.00000
     59      -4.2331      1.00000
     60      -4.1830      1.00000
     61      -4.1232      1.00000
     62      -4.0334      1.00000
     63      -3.9951      1.00000
     64      -3.9728      1.00000
     65      -3.9276      1.00000
     66      -3.8569      1.00000
     67      -3.7472      1.00000
     68      -3.7018      1.00000
     69      -3.5260      1.00000
     70      -3.4734      1.00000
     71      -2.4566      1.00000
     72      -2.4000      1.00000
     73      -1.8223      1.00000
     74      -1.6308      1.00000
     75      -1.6095      1.00000
     76      -1.5373      1.00000
     77      -1.4655      1.00000
     78      -1.4408      1.00000
     79      -1.3829      1.00000
     80      -1.3748      1.00000
     81      -1.2806      1.00000
     82      -1.1477      1.00000
     83      -1.1426      1.00000
     84      -1.1125      1.00000
     85      -0.9958      1.00000
     86      -0.8410      1.00000
     87      -0.8147      1.00000
     88      -0.7500      1.00000
     89      -0.6599      1.00000
     90      -0.6347      1.00000
     91      -0.6185      1.00000
     92      -0.5495      1.00000
     93      -0.5272      1.00000
     94      -0.2778      1.00000
     95      -0.2176      1.00000
     96      -0.1365      1.00000
     97      -0.0923      1.00000
     98      -0.0517      1.00000
     99       0.0093      1.00000
    100       0.0484      1.00000
    101       0.1163      1.00000
    102       0.1294      1.00000
    103       0.1426      1.00000
    104       0.1810      1.00000
    105       0.2265      1.00000
    106       0.2547      1.00000
    107       0.3088      1.00000
    108       0.3538      1.00000
    109       0.3652      1.00000
    110       0.4070      1.00000
    111       0.4387      1.00000
    112       0.5341      1.00000
    113       0.5470      1.00000
    114       0.5889      1.00000
    115       0.6373      1.00000
    116       0.6632      1.00000
    117       0.7034      1.00000
    118       0.7435      1.00000
    119       0.7482      1.00000
    120       0.7605      1.00000
    121       0.7973      1.00000
    122       0.8456      1.00000
    123       0.8646      1.00000
    124       0.8944      1.00000
    125       0.9359      1.00000
    126       0.9633      1.00000
    127       0.9969      1.00000
    128       1.0392      1.00000
    129       1.0704      1.00000
    130       1.0845      1.00000
    131       1.1618      1.00000
    132       1.1817      1.00000
    133       1.2129      1.00000
    134       1.2502      1.00000
    135       1.3176      1.00000
    136       1.3275      1.00000
    137       1.3798      1.00000
    138       1.3884      1.00000
    139       1.4222      1.00000
    140       1.5091      1.00000
    141       1.5345      1.00000
    142       1.5725      1.00000
    143       1.6032      1.00000
    144       1.6449      1.00000
    145       1.6750      1.00000
    146       1.7105      1.00000
    147       1.7914      1.00000
    148       1.8228      1.00000
    149       1.8415      1.00000
    150       1.8651      1.00000
[...]
   -.136E+02 0.429E+01 -.233E+02   0.155E+02 -.445E+01 0.264E+02   -.183E+01 0.194E+00 -.283E+01   -.322E-03 -.204E-03 -.912E-04
   -.268E+00 0.115E+01 0.240E+02   0.352E+00 -.279E+01 -.271E+02   -.173E-01 0.216E+01 0.247E+01   -.555E-04 -.102E-03 0.276E-03
   0.296E+00 0.783E+01 0.262E+02   0.102E-01 -.863E+01 -.279E+02   -.393E+00 0.846E+00 0.150E+01   -.161E-03 0.222E-03 0.408E-04
   0.661E+01 -.101E+01 0.301E+02   -.687E+01 0.386E+00 -.309E+02   0.694E+00 0.612E+00 0.979E+00   0.172E-03 0.414E-03 -.725E-03
   -.109E+02 0.205E+02 0.290E+02   0.110E+02 -.219E+02 -.308E+02   -.155E+00 0.127E+01 0.196E+01   0.183E-03 -.118E-03 -.235E-03
   0.832E+01 0.176E+02 0.297E+02   -.907E+01 -.184E+02 -.314E+02   0.827E+00 0.385E+00 0.196E+01   0.348E-03 0.380E-03 -.271E-03
   -.114E+02 0.442E+01 0.352E+02   0.121E+02 -.547E+01 -.373E+02   -.274E+00 0.103E+01 0.168E+01   0.393E-03 0.786E-04 -.194E-03
   0.208E+02 -.863E+01 0.262E+02   -.221E+02 0.927E+01 -.279E+02   0.108E+01 -.303E+00 0.201E+01   -.327E-03 -.387E-03 -.478E-03
   0.130E+02 -.336E+01 0.423E+02   -.142E+02 0.323E+01 -.443E+02   0.145E+01 0.136E+00 0.148E+01   -.489E-03 -.570E-04 -.268E-03
   0.100E+02 0.153E+02 -.331E+02   -.112E+02 -.159E+02 0.348E+02   0.129E+01 0.395E+00 -.836E+00   0.334E-04 0.114E-03 -.341E-04
   -.407E+01 -.112E+02 -.269E+02   0.456E+01 0.127E+02 0.286E+02   -.412E+00 -.162E+01 -.168E+01   -.406E-04 0.187E-03 -.636E-05
   0.207E+02 0.104E+01 -.302E+02   -.219E+02 -.149E+01 0.318E+02   0.149E+01 0.780E+00 -.167E+01   0.247E-03 0.199E-03 0.247E-03
   0.726E+01 -.896E+01 -.217E+02   -.806E+01 0.976E+01 0.235E+02   0.338E+00 -.703E+00 -.197E+01   0.409E-03 -.455E-03 0.729E-04
   0.122E+02 -.678E+01 -.294E+02   -.131E+02 0.772E+01 0.307E+02   0.452E+00 -.736E+00 -.153E+01   -.385E-04 -.330E-04 0.167E-03
   -.195E+01 -.121E+02 -.257E+02   0.226E+01 0.132E+02 0.271E+02   0.874E-01 -.141E+01 -.123E+01   -.236E-03 0.473E-03 0.648E-04
   0.114E+02 0.638E+01 -.429E+02   -.127E+02 -.656E+01 0.448E+02   0.165E+01 -.910E-01 -.156E+01   -.133E-03 -.586E-03 -.506E-04
   0.615E+01 0.505E+01 0.340E+02   -.691E+01 -.522E+01 -.357E+02   0.130E+01 0.193E+00 0.203E+01   -.181E-04 -.180E-03 -.134E-03
   0.110E+02 0.834E+01 0.331E+02   -.116E+02 -.906E+01 -.351E+02   0.411E+00 0.107E+01 0.180E+01   0.308E-03 0.476E-04 -.277E-04
   -.589E+00 -.483E+01 0.162E+02   0.348E+00 0.573E+01 -.177E+02   0.171E+00 -.962E+00 0.220E+01   0.383E-04 0.166E-03 -.325E-04
   -.524E+01 -.105E+02 0.184E+02   0.552E+01 0.117E+02 -.203E+02   -.218E+00 -.925E+00 0.129E+01   -.100E-03 0.379E-03 0.355E-03
   0.148E+02 -.161E+01 0.259E+02   -.160E+02 0.165E+01 -.272E+02   0.142E+01 0.403E+00 0.157E+01   -.136E-03 -.171E-03 -.820E-04
   -.492E+01 -.459E+01 -.395E+02   0.462E+01 0.516E+01 0.412E+02   0.346E+00 -.116E+01 -.966E+00   0.158E-03 0.264E-04 0.556E-03
   0.268E+02 -.527E+01 -.198E+02   -.281E+02 0.542E+01 0.215E+02   0.108E+01 -.287E+00 -.167E+01   -.437E-03 -.263E-03 0.153E-03
   0.208E+01 -.230E+01 -.336E+02   -.245E+01 0.167E+01 0.352E+02   0.746E+00 0.808E+00 -.139E+01   0.131E-03 0.249E-03 0.514E-04
   -.121E+02 0.213E+02 -.314E+02   0.127E+02 -.228E+02 0.332E+02   -.449E+00 0.129E+01 -.189E+01   -.411E-04 -.119E-04 -.270E-04
   -.439E+01 0.126E+01 -.277E+02   0.439E+01 -.149E+01 0.295E+02   0.262E+00 0.163E+00 -.145E+01   0.331E-03 0.252E-03 0.964E-05
   -.133E+02 -.373E+01 -.160E+02   0.140E+02 0.309E+01 0.174E+02   -.279E+00 0.880E+00 -.140E+01   -.293E-04 -.787E-04 -.787E-04
   0.748E+01 0.385E+01 -.276E+02   -.845E+01 -.364E+01 0.300E+02   0.129E+01 0.283E+00 -.152E+01   -.526E-03 -.483E-04 -.158E-03
   -.105E+02 0.166E+02 -.303E+02   0.108E+02 -.180E+02 0.322E+02   -.574E+00 0.131E+01 -.189E+01   0.261E-03 0.253E-03 -.204E-03
   0.144E+02 -.115E+02 -.235E+02   -.154E+02 0.120E+02 0.254E+02   0.948E+00 -.522E+00 -.201E+01   -.643E-04 -.568E-03 0.613E-04
   0.136E+02 0.921E+01 -.261E+02   -.143E+02 -.977E+01 0.281E+02   0.415E+00 0.457E+00 -.206E+01   0.472E-03 0.363E-03 0.265E-03
   0.268E+02 0.192E+01 0.150E+02   -.282E+02 -.179E+01 -.164E+02   0.931E+00 -.938E-01 0.161E+01   0.314E-03 0.257E-04 0.261E-03
   0.120E+02 -.157E+02 0.312E+02   -.128E+02 0.173E+02 -.332E+02   0.107E+00 -.868E+00 0.178E+01   0.127E-03 -.408E-03 -.188E-03
   0.939E+00 -.242E+02 0.223E+02   -.101E+01 0.258E+02 -.235E+02   -.524E-01 -.115E+01 0.135E+01   0.357E-03 0.141E-03 -.181E-03
   -.519E+01 -.154E+02 0.336E+02   0.559E+01 0.168E+02 -.357E+02   -.108E+00 -.133E+01 0.136E+01   -.350E-03 -.312E-04 0.926E-04
   0.353E+01 0.185E+02 0.211E+02   -.418E+01 -.192E+02 -.223E+02   0.124E+01 0.374E+00 0.187E+01   0.134E-03 -.560E-04 0.328E-03
   -.770E+01 -.155E+02 0.215E+02   0.772E+01 0.163E+02 -.237E+02   -.157E+00 -.747E+00 0.208E+01   0.115E-03 -.106E-03 0.440E-04
   -.201E+01 -.251E+02 -.293E+02   0.199E+01 0.266E+02 0.314E+02   -.355E+00 -.965E+00 -.213E+01   -.161E-03 -.177E-03 -.114E-03
 -----------------------------------------------------------------------------------------------
   0.160E+02 -.282E+01 -.113E+01   -.515E-13 -.426E-13 0.639E-13   -.160E+02 0.282E+01 0.113E+01   0.510E-03 0.228E-03 -.169E-03
 
 
 POSITION                                       TOTAL-FORCE (eV/Angst)
 -----------------------------------------------------------------------------------
      1.00910      0.60056      1.41910        -0.327291     -0.456110     -0.008939
      2.80220     10.78009      4.13347         0.125679      0.015786     -0.036874
      6.96743      2.42715      4.21999        -0.145725      0.409133     -0.565661
      7.02225      6.73252      4.12765        -0.109661      0.299795      0.412977
      6.92395     10.85405      4.16052        -0.166142     -0.600706     -0.604440
     10.83989      2.14069      4.24617         0.124310      0.749862     -0.561202
     11.01256      6.51192      3.96381         0.552365     -0.508913      0.279470
     11.40256     11.02626      4.13988         0.007779     -0.261353     -0.553401
      0.61006      1.94698      7.10966         0.143555      0.390813     -0.006012
      0.93136      5.87065      6.89087        -0.394831      0.025053      0.252577
      0.74514     10.21201      6.93779         0.257453     -0.292865      0.222504
      4.77303      1.94827      7.03453        -0.127310     -0.112794     -0.411599
      4.97788      5.80454      6.84680        -0.439759      0.459952      0.036451
      4.78425     10.44971      7.09631        -0.244135     -0.004873     -0.932457
      9.12022      1.86363      6.96641         0.223360      0.100558     -0.032403
      8.88607      6.25271      7.01797         0.179157      0.099098     -0.034447
      2.47114      6.41911      4.21715         0.435155     -0.202459     -0.100442
      3.15779      2.72230      3.96754        -0.261869     -0.225982      0.859931
      9.19098     10.50314      7.13493        -0.156390     -0.556777     -0.144245
     11.27536      8.18856      9.53511         0.081192     -0.180105      0.298710
     11.34347     12.15564      9.70044        -0.076953      0.372165      0.360044
      0.67735      4.25610      1.37794        -0.459411      0.030929      0.239320
      0.76046      8.59034      1.54504         0.029525      0.215355     -0.081891
      5.03857      0.41450      1.28823         0.102565     -0.288437      0.546057
      5.09389      4.96149      1.27241         0.071444     -0.574741     -0.038186
      9.00899      0.27186      1.34489        -0.211143     -0.324510     -0.697961
      9.02953      4.53579      1.19658         0.012500      0.199052      0.176700
      4.78814      8.67536      1.41833         0.405978     -0.258771     -0.119386
      2.99678      3.98447      9.91323        -0.177278      0.041910     -0.465054
      2.95732      7.99825      9.62288        -0.226682     -0.015027     -0.164813
      2.85452     12.48960      9.64048        -0.418924      0.001422     -0.287589
      7.15568      4.01745      9.46852        -0.153741     -0.125592      0.626909
      7.00391      8.45646      9.65104        -0.307018     -0.310880     -0.289958
      6.99779      0.04504      9.67808        -0.142606     -0.428711     -0.390656
     10.95939      4.25722      9.69600         0.079665      0.038115      0.178084
      9.15687      8.69675      1.72443         0.067118      0.526039     -0.631092
     11.21057      0.14867      7.17164        -0.087100      0.042890     -0.226700
      2.96339      4.10586      7.22159         0.435167     -0.015215      0.151959
      2.92928      8.64221      7.10028        -0.066484     -0.148412      0.143411
      7.17658      0.21296      7.09759         0.080823     -0.432408      0.267217
      7.02575      4.27296      7.02195         0.392192     -0.012792     -0.389564
      7.39840      8.38779      7.10757        -0.203944      0.339081      0.248525
     11.39337      4.15800      7.25635         0.310161      0.009093     -0.574962
      9.31439      0.14525      3.77425         0.112750     -0.143768      0.886161
      0.94771      0.18079      3.95975         0.076970     -0.116777      0.003180
      0.97744      4.20150      3.91507         0.236692      0.327064     -0.094848
      0.86199      8.34262      4.08101        -0.461322      0.090548     -0.244066
      5.08248      0.06281      3.92588        -0.413592      0.212219     -0.217170
      5.09271      4.39096      3.81087         0.395677     -0.313602      0.167958
      5.24452      8.69329      3.88436         0.335774     -0.271891      0.391056
      2.91824      0.07471      7.05185         0.541103      0.026833      0.356611
     11.46523      8.29156      7.08250        -0.170713      0.344225     -0.281081
     11.35183     10.40439      1.51153        -0.069179     -0.058558      0.741616
      3.08651      2.15138      1.58344         0.067658      0.288595     -0.670853
     11.42324      2.15579      1.63139         0.264338      0.448069      0.220038
      9.15250      4.24582      3.67257         0.041594     -0.597104      0.691548
      1.19043      2.09531      9.62275        -0.263518     -0.138737      0.077477
      0.95131      6.25065      9.38275         0.373388      0.173394      0.193279
      0.89531     10.63801      9.50212         0.170449     -0.242383     -0.140500
      5.10661      2.19623      9.51301         0.265655     -0.067638      0.292552
      4.97348      6.37631      9.37665         0.364901      0.238204      0.044121
      5.18995     10.41183      9.47394         0.320086      0.484307      0.839668
      9.18671      2.31899      9.45790        -0.199923     -0.031148     -0.016346
      9.29691      6.36002      9.54758         0.016768     -0.071694     -0.140741
      9.39411     10.45790      9.62932        -0.315580     -0.095154     -0.083144
      3.20088      6.55040      1.59925        -0.462961      0.035138      0.235041
      2.97128     10.32517      1.64188        -0.682347      0.693867     -0.142857
      7.12254      2.01671      1.62429        -0.128174      0.471464      0.121587
      7.18473      6.42119      1.66028         0.287108      0.083019     -0.682196
      7.20675     10.71879      1.47285         0.589132     -0.344792      0.641736
     11.31695      6.19975      1.45378        -0.135543      0.049747     -0.125702
      9.27554      8.28600      4.17448        -0.369937      0.498887     -0.015029
 -----------------------------------------------------------------------------------
    total drift:                               -0.001165      0.000939     -0.000008


--------------------------------------------------------------------------------------------------------



  FREE ENERGIE OF THE ION-ELECTRON SYSTEM (eV)
  ---------------------------------------------------
  free  energy   TOTEN  =      -300.91635324 eV

  energy  without entropy=     -300.91635324  energy(sigma->0) =     -300.91635324
 


--------------------------------------------------------------------------------------------------------


    POTLOK:  cpu time      0.7267: real time      0.7302


--------------------------------------------------------------------------------------------------------


     LOOP+:  cpu time    182.2657: real time    183.1853
    4ORBIT:  cpu time      0.0000: real time      0.0000



 total charge

# of ion       s       p       d       tot
------------------------------------------
    1        1.318   0.787   0.059   2.163
    2        1.329   0.735   0.051   2.116
    3        1.336   0.696   0.045   2.078
    4        1.318   0.779   0.058   2.155
    5        1.325   0.754   0.053   2.132
    6        1.322   0.749   0.052   2.123
    7        1.326   0.774   0.057   2.157
    8        1.326   0.742   0.049   2.117
    9        1.334   0.743   0.054   2.131
   10        1.309   0.774   0.056   2.139
   11        1.313   0.769   0.055   2.138
   12        1.323   0.763   0.056   2.142
   13        1.325   0.766   0.054   2.145
   14        1.310   0.809   0.060   2.179
   15        1.303   0.805   0.060   2.168
   16        1.324   0.761   0.054   2.139
   17        1.321   0.763   0.053   2.138
   18        1.311   0.827   0.063   2.201
   19        1.335   0.720   0.051   2.106
   20        1.327   0.755   0.056   2.138
   21        1.320   0.791   0.061   2.172
   22        1.321   0.748   0.052   2.121
   23        1.327   0.748   0.054   2.129
   24        1.325   0.741   0.055   2.122
   25        1.308   0.815   0.062   2.185
   26        1.319   0.798   0.063   2.181
   27        1.318   0.756   0.055   2.129
   28        1.301   0.839   0.068   2.207
   29        1.341   0.694   0.053   2.088
   30        1.317   0.768   0.053   2.138
   31        1.325   0.746   0.055   2.125
   32        1.320   0.780   0.060   2.159
   33        1.338   0.706   0.049   2.093
   34        1.336   0.696   0.047   2.079
   35        1.314   0.791   0.060   2.165
   36        1.333   0.743   0.050   2.126
   37        1.475   2.310   0.035   3.820
   38        1.475   2.294   0.031   3.799
   39        1.476   2.296   0.028   3.799
   40        1.478   2.290   0.030   3.799
   41        1.477   2.318   0.037   3.833
   42        1.475   2.295   0.029   3.799
   43        1.477   2.299   0.030   3.806
   44        1.475   2.334   0.039   3.848
   45        1.477   2.299   0.031   3.806
   46        1.478   2.293   0.030   3.802
   47        1.478   2.301   0.032   3.811
   48        1.475   2.295   0.029   3.799
   49        1.476   2.301   0.032   3.809
   50        1.475   2.299   0.029   3.803
   51        1.480   2.279   0.031   3.791
   52        1.477   2.301   0.030   3.808
   53        1.477   2.275   0.025   3.777
   54        1.474   2.334   0.037   3.845
   55        1.478   2.283   0.028   3.789
   56        1.475   2.291   0.028   3.794
   57        1.473   2.305   0.031   3.809
   58        1.476   2.290   0.028   3.795
   59        1.476   2.303   0.031   3.810
   60        1.475   2.302   0.033   3.809
   61        1.473   2.296   0.027   3.796
   62        1.477   2.311   0.034   3.822
   63        1.479   2.300   0.033   3.811
   64        1.477   2.293   0.032   3.802
   65        1.478   2.298   0.032   3.808
   66        1.474   2.308   0.032   3.815
   67        1.474   2.321   0.032   3.827
   68        1.474   2.305   0.030   3.808
   69        1.475   2.318   0.036   3.829
   70        1.478   2.269   0.025   3.773
   71        1.477   2.285   0.030   3.792
   72        1.481   2.313   0.036   3.831
--------------------------------------------------
tot        100.741 110.238   3.119 214.099



 magnetization (x)

# of ion       s       p       d       tot
------------------------------------------
    1       -0.000  -0.000  -0.000  -0.000
    2       -0.000   0.000  -0.000   0.000
    3       -0.000   0.000   0.000   0.000
    4       -0.000   0.000   0.000   0.000
    5       -0.000   0.000   0.000   0.000
    6       -0.000   0.000   0.000   0.000
    7       -0.000   0.000  -0.000   0.000
    8       -0.000   0.000   0.000  -0.000
    9       -0.000   0.000   0.000   0.000
   10       -0.000   0.000  -0.000  -0.000
   11       -0.000   0.000  -0.000   0.000
   12       -0.000   0.000   0.000   0.000
   13       -0.000   0.000   0.000   0.000
   14       -0.000   0.000  -0.000   0.000
   15       -0.000   0.000   0.000   0.000
   16       -0.000   0.000   0.000   0.000
   17       -0.000   0.000  -0.000   0.000
   18       -0.000   0.000   0.000   0.000
   19       -0.000   0.000  -0.000   0.000
   20       -0.000  -0.000  -0.000  -0.000
   21       -0.000   0.000   0.000   0.000
   22       -0.000   0.000  -0.000  -0.000
   23       -0.000  -0.000  -0.000  -0.000
   24       -0.000   0.000   0.000   0.000
   25       -0.000   0.000   0.000   0.000
   26       -0.000   0.000   0.000   0.000
   27       -0.000   0.000   0.000   0.000
   28       -0.000   0.000  -0.000  -0.000
   29       -0.000   0.000   0.000   0.000
   30       -0.000  -0.000  -0.000  -0.000
   31       -0.000   0.000   0.000   0.000
   32       -0.000   0.000   0.000   0.000
   33       -0.000   0.000  -0.000  -0.000
   34       -0.000   0.000   0.000   0.000
   35       -0.000   0.000   0.000   0.000
   36       -0.000   0.000  -0.000  -0.000
   37       -0.000  -0.000   0.000  -0.000
   38       -0.000  -0.000   0.000  -0.000
   39       -0.000  -0.000  -0.000  -0.000
   40       -0.000  -0.000   0.000  -0.000
   41       -0.000  -0.000   0.000  -0.000
   42       -0.000  -0.000   0.000  -0.000
   43       -0.000  -0.000   0.000  -0.000
   44       -0.000  -0.000   0.000  -0.000
   45       -0.000  -0.000  -0.000  -0.000
   46       -0.000  -0.000  -0.000  -0.000
   47       -0.000  -0.000  -0.000  -0.000
   48       -0.000  -0.000   0.000  -0.000
   49       -0.000  -0.000   0.000  -0.000
   50       -0.000  -0.000   0.000  -0.000
   51       -0.000  -0.000   0.000  -0.000
   52       -0.000  -0.000  -0.000  -0.000
   53       -0.000  -0.000  -0.000  -0.000
   54       -0.000  -0.000   0.000  -0.000
   55       -0.000  -0.000   0.000  -0.000
   56       -0.000  -0.000   0.000  -0.000
   57       -0.000  -0.000   0.000  -0.000
   58       -0.000  -0.000  -0.000  -0.000
   59       -0.000  -0.000  -0.000  -0.000
   60       -0.000  -0.000   0.000  -0.000
   61       -0.000  -0.000  -0.000  -0.000
   62       -0.000  -0.000  -0.000  -0.000
   63       -0.000  -0.000   0.000  -0.000
   64       -0.000  -0.000   0.000  -0.000
   65       -0.000  -0.000   0.000  -0.000
   66       -0.000  -0.000  -0.000  -0.000
   67       -0.000  -0.000  -0.000  -0.000
   68       -0.000  -0.000   0.000  -0.000
   69       -0.000  -0.000   0.000  -0.000
   70       -0.000  -0.000   0.000  -0.000
   71       -0.000  -0.000  -0.000  -0.000
   72       -0.000  -0.000  -0.000  -0.000
--------------------------------------------------
tot         -0.000  -0.000   0.000  -0.000
 

 total amount of memory used by VASP MPI-rank0   110844. kBytes
=======================================================================

   base      :      30000. kBytes
   nonl-proj :      16377. kBytes
   fftplans  :       6179. kBytes
   grid      :      15593. kBytes
   one-center:        146. kBytes
   wavefun   :      42549. kBytes
 
  
  
 General timing and accounting informations for this job:
 ========================================================
  
                  Total CPU time used (sec):      193.939
                            User time (sec):      187.860
                          System time (sec):        6.079
                         Elapsed time (sec):      196.518
  
                   Maximum memory used (kb):      329572.
                   Average memory used (kb):          N/A
  
                          Minor page faults:        87875
                          Major page faults:           41
                 Voluntary context switches:         5671
