 vasp.6.4.2 20Jul23 (build Oct 12 2023 10:31:02) complex                         
 executed on              LinuxNV date 2025.05.28  08:28:09
 running  128 mpi-ranks, with    1 threads/rank, on    2 nodes
 distrk:  each k-point on   64 cores,    2 groups
 distr:  one band on NCORE=   4 cores,   16 groups


--------------------------------------------------------------------------------------------------------


 INCAR:
   ENCUT = 360.000000
   SIGMA = 0.050000
   EDIFF = 1.00e-06
   ALGO = Normal
   GGA = PE
   PREC = Normal
   SYSTEM = ./
   ICHARG = 2
   ISMEAR = 0
   ISPIN = 1
   ISTART = 0
   ISYM = 0
   KPAR = 2
   LMAXMIX = 4
   NELM = 100
   NPAR = 16
   LASPH = .TRUE.
   LCHARG = .FALSE.
   LWAVE = .FALSE.

 POTCAR:    PAW_PBE Ge 05Jan2001                  
 POTCAR:    PAW_PBE Se 06Sep2000                  
 POTCAR:    PAW_PBE Ge 05Jan2001                  
   VRHFIN =Ge: s2p2                                                                                 
   LEXCH  = PE                                                                                      
   EATOM  =   104.9960 eV,    7.7170 Ry                                                             
                                                                                                    
   TITEL  = PAW_PBE Ge 05Jan2001                                                                    
   LULTRA =        F    use ultrasoft PP ?                                                          
   IUNSCR =        1    unscreen: 0-lin 1-nonlin 2-no                                               
   RPACOR =    2.170    partial core radius                                                         
   POMASS =   72.610; ZVAL   =    4.000    mass and valenz                                          
   RCORE  =    2.300    outmost cutoff radius                                                       
   RWIGS  =    2.300; RWIGS  =    1.217    wigner-seitz radius (au A)                               
   ENMAX  =  173.807; ENMIN  =  130.355 eV                                                          
   ICORE  =        3    local potential                                                             
   LCOR   =        T    correct aug charges                                                         
   LPAW   =        T    paw PP                                                                      
   EAUG   =  385.843                                                                                
   DEXC   =    0.000                                                                                
   RMAX   =    2.342    core radius for proj-oper                                                   
   RAUG   =    1.300    factor for augmentation sphere                                              
   RDEP   =    2.318    radius for radial grids                                                     
   RDEPT  =    2.103    core radius for aug-charge                                                  
                                                                                                    
   Atomic configuration                                                                             
   10 entries                                                                                       
     n  l   j            E        occ.                                                              
     1  0  0.50    -10959.8463   2.0000                                                             
     2  0  0.50     -1371.6056   2.0000                                                             
     2  1  1.50     -1198.4791   6.0000                                                             
     3  0  0.50      -168.4733   2.0000                                                             
     3  1  1.50      -115.6019   6.0000                                                             
     3  2  2.50       -29.3106  10.0000                                                             
     4  0  0.50       -11.7309   2.0000                                                             
     4  1  0.50        -3.8952   2.0000                                                             
     4  2  1.50        -4.0817   0.0000                                                             
     4  3  2.50        -4.0817   0.0000                                                             
   Description                                                                                      
     l       E           TYP  RCUT    TYP  RCUT                                                     
     0    -11.7309493     23  2.300                                                                 
     0     -7.4578696     23  2.300                                                                 
     1     -3.8952261     23  2.300                                                                 
     1      6.1178114     23  2.300                                                                 
     2     -4.0817478     23  2.300                                                                 
     3     -1.3605826      7  2.300                                                                 
  local pseudopotential read in
  partial core-charges read in
  partial kinetic energy density read in
  atomic valenz-charges read in
  non local Contribution for L=            0  read in
    real space projection operators read in
  non local Contribution for L=            0  read in
    real space projection operators read in
  non local Contribution for L=            1  read in
    real space projection operators read in
  non local Contribution for L=            1  read in
    real space projection operators read in
  non local Contribution for L=            2  read in
    real space projection operators read in
    PAW grid and wavefunctions read in
 
   number of l-projection  operators is LMAX  =            5
   number of lm-projection operators is LMMAX =           13
 
 POTCAR:    PAW_PBE Se 06Sep2000                  
   VRHFIN =Se: s2p4                                                                                 
   LEXCH  = PE                                                                                      
   EATOM  =   257.1286 eV,   18.8984 Ry                                                             
                                                                                                    
   TITEL  = PAW_PBE Se 06Sep2000                                                                    
   LULTRA =        F    use ultrasoft PP ?                                                          
   IUNSCR =        1    unscreen: 0-lin 1-nonlin 2-no                                               
   RPACOR =    1.900    partial core radius                                                         
   POMASS =   78.960; ZVAL   =    6.000    mass and valenz                                          
   RCORE  =    2.100    outmost cutoff radius                                                       
   RWIGS  =    2.200; RWIGS  =    1.164    wigner-seitz radius (au A)                               
   ENMAX  =  211.555; ENMIN  =  158.666 eV                                                          
   ICORE  =        3    local potential                                                             
   LCOR   =        T    correct aug charges                                                         
   LPAW   =        T    paw PP                                                                      
   EAUG   =  446.842                                                                                
   DEXC   =    0.000                                                                                
   RMAX   =    2.147    core radius for proj-oper                                                   
   RAUG   =    1.300    factor for augmentation sphere                                              
   RDEP   =    2.177    radius for radial grids                                                     
   RDEPT  =    1.928    core radius for aug-charge                                                  
                                                                                                    
   Atomic configuration                                                                             
   10 entries                                                                                       
     n  l   j            E        occ.                                                              
     1  0  0.50    -12503.4787   2.0000                                                             
     2  0  0.50     -1606.9547   2.0000                                                             
     2  1  1.50     -1413.3140   6.0000                                                             
     3  0  0.50      -213.4885   2.0000                                                             
     3  1  1.50      -152.9538   6.0000                                                             
     3  2  2.50       -53.1221  10.0000                                                             
     4  0  0.50       -17.2865   2.0000                                                             
     4  1  0.50        -6.5110   4.0000                                                             
     4  2  2.50        -6.8029   0.0000                                                             
     4  3  2.50        -6.8029   0.0000                                                             
   Description                                                                                      
     l       E           TYP  RCUT    TYP  RCUT                                                     
     0    -17.2865377     23  2.100                                                                 
     0    -15.3094411     23  2.100                                                                 
     1     -6.5110275     23  2.100                                                                 
     1     -0.0695192     23  2.100                                                                 
     2     -6.8029130     23  2.100                                                                 
     3     -1.3605826      7  2.100                                                                 
  local pseudopotential read in
  partial core-charges read in
  partial kinetic energy density read in
  atomic valenz-charges read in
  non local Contribution for L=            0  read in
    real space projection operators read in
  non local Contribution for L=            0  read in
    real space projection operators read in
  non local Contribution for L=            1  read in
    real space projection operators read in
  non local Contribution for L=            1  read in
    real space projection operators read in
  non local Contribution for L=            2  read in
    real space projection operators read in
    PAW grid and wavefunctions read in
 
   number of l-projection  operators is LMAX  =            5
   number of lm-projection operators is LMMAX =           13
 
  PAW_PBE Ge 05Jan2001                  :
 energy of atom  1       EATOM= -104.9960
 kinetic energy error for atom=    0.0005 (will be added to EATOM!!)
  PAW_PBE Se 06Sep2000                  :
 energy of atom  2       EATOM= -257.1286
 kinetic energy error for atom=    0.0030 (will be added to EATOM!!)
 
 
 POSCAR: Ge Se
  positions in cartesian coordinates
  No initial velocities read in
 exchange correlation table for  LEXCH =        8
   RHO(1)=    0.500       N(1)  =     2000
   RHO(2)=  100.500       N(2)  =     4000
 


--------------------------------------------------------------------------------------------------------


 ion  position               nearest neighbor table
   1  0.250  0.115  0.130-   5 2.56   6 2.69   6 2.69
   2  0.750  0.615  0.370-   6 2.56   5 2.69   5 2.69
   3  0.750  0.885  0.870-   7 2.56   8 2.69   8 2.69
   4  0.250  0.385  0.630-   8 2.56   7 2.69   7 2.69
   5  0.250  0.960  0.350-   1 2.56   2 2.69   2 2.69
   6  0.750  0.460  0.150-   2 2.56   1 2.69   1 2.69
   7  0.750  0.040  0.650-   3 2.56   4 2.69   4 2.69
   8  0.250  0.540  0.850-   4 2.56   3 2.69   3 2.69
 

IMPORTANT INFORMATION: All symmetrisations will be switched off!
NOSYMM: (Re-)initialisation of all symmetry stuff for point group C_1.


----------------------------------------------------------------------------------------

                                     Primitive cell                                     

  volume of cell :     224.9336

  direct lattice vectors                    reciprocal lattice vectors
     4.250000000  0.000000000  0.000000000     0.235294118  0.000000000  0.000000000
     0.000000000  4.750000000  0.000000000     0.000000000  0.210526316  0.000000000
     0.000000000  0.000000000 11.142221000     0.000000000  0.000000000  0.089748713

  length of vectors
     4.250000000  4.750000000 11.142221000     0.235294118  0.210526316  0.089748713

  position of ions in fractional coordinates (direct lattice)
     0.250000000  0.114713168  0.129899678
     0.750000000  0.614713168  0.370100322
     0.750000000  0.885286832  0.870100322
     0.250000000  0.385286832  0.629899678
     0.250000000  0.959504521  0.350195613
     0.750000000  0.459504521  0.149804387
     0.750000000  0.040495479  0.649804387
     0.250000000  0.540495479  0.850195613

  ion indices of the primitive-cell ions
   primitive index   ion index
                 1           1
                 2           2
                 3           3
                 4           4
                 5           5
                 6           6
                 7           7
                 8           8

----------------------------------------------------------------------------------------

 
 
 KPOINTS: KPOINTS created by Atomic Simulation Env

Automatic generation of k-mesh.
 Grid dimensions read from file:
 generate k-points for:    6    6    2

 Generating k-lattice:

  Cartesian coordinates                     Fractional coordinates (reciprocal lattice)
     0.039215686  0.000000000  0.000000000     0.166666667  0.000000000  0.000000000
     0.000000000  0.035087719  0.000000000     0.000000000  0.166666667  0.000000000
     0.000000000  0.000000000  0.044874357     0.000000000  0.000000000  0.500000000

  Length of vectors
     0.039215686  0.035087719  0.044874357

  Shift w.r.t. Gamma in fractional coordinates (k-lattice)
     0.000000000  0.000000000  0.000000000

 
 Subroutine IBZKPT returns following result:
 ===========================================
 
 Found     40 irreducible k-points:
 
 Following reciprocal coordinates:
            Coordinates               Weight
  0.000000  0.000000  0.000000      1.000000
  0.166667  0.000000  0.000000      2.000000
  0.333333  0.000000  0.000000      2.000000
  0.500000  0.000000  0.000000      1.000000
  0.000000  0.166667  0.000000      2.000000
  0.166667  0.166667  0.000000      2.000000
  0.166667 -0.166667  0.000000      2.000000
  0.333333  0.166667  0.000000      2.000000
  0.333333 -0.166667  0.000000      2.000000
  0.500000  0.166667  0.000000      2.000000
  0.000000  0.333333  0.000000      2.000000
  0.166667  0.333333  0.000000      2.000000
  0.166667 -0.333333  0.000000      2.000000
  0.333333  0.333333  0.000000      2.000000
  0.333333 -0.333333  0.000000      2.000000
  0.500000  0.333333  0.000000      2.000000
  0.000000  0.500000  0.000000      1.000000
  0.166667  0.500000  0.000000      2.000000
  0.333333  0.500000  0.000000      2.000000
  0.500000  0.500000  0.000000      1.000000
  0.000000  0.000000  0.500000      1.000000
  0.166667  0.000000  0.500000      2.000000
  0.333333  0.000000  0.500000      2.000000
  0.500000  0.000000  0.500000      1.000000
  0.000000  0.166667  0.500000      2.000000
  0.166667  0.166667  0.500000      2.000000
  0.166667 -0.166667  0.500000      2.000000
  0.333333  0.166667  0.500000      2.000000
  0.333333 -0.166667  0.500000      2.000000
  0.500000  0.166667  0.500000      2.000000
  0.000000  0.333333  0.500000      2.000000
  0.166667  0.333333  0.500000      2.000000
  0.166667 -0.333333  0.500000      2.000000
  0.333333  0.333333  0.500000      2.000000
  0.333333 -0.333333  0.500000      2.000000
  0.500000  0.333333  0.500000      2.000000
  0.000000  0.500000  0.500000      1.000000
  0.166667  0.500000  0.500000      2.000000
  0.333333  0.500000  0.500000      2.000000
  0.500000  0.500000  0.500000      1.000000
 
 Following cartesian coordinates:
            Coordinates               Weight
  0.000000  0.000000  0.000000      1.000000
  0.039216  0.000000  0.000000      2.000000
  0.078431  0.000000  0.000000      2.000000
  0.117647  0.000000  0.000000      1.000000
  0.000000  0.035088  0.000000      2.000000
  0.039216  0.035088  0.000000      2.000000
  0.039216 -0.035088  0.000000      2.000000
  0.078431  0.035088  0.000000      2.000000
  0.078431 -0.035088  0.000000      2.000000
  0.117647  0.035088  0.000000      2.000000
  0.000000  0.070175  0.000000      2.000000
  0.039216  0.070175  0.000000      2.000000
  0.039216 -0.070175  0.000000      2.000000
  0.078431  0.070175  0.000000      2.000000
  0.078431 -0.070175  0.000000      2.000000
  0.117647  0.070175  0.000000      2.000000
  0.000000  0.105263  0.000000      1.000000
  0.039216  0.105263  0.000000      2.000000
  0.078431  0.105263  0.000000      2.000000
  0.117647  0.105263  0.000000      1.000000
  0.000000  0.000000  0.044874      1.000000
  0.039216  0.000000  0.044874      2.000000
  0.078431  0.000000  0.044874      2.000000
  0.117647  0.000000  0.044874      1.000000
  0.000000  0.035088  0.044874      2.000000
  0.039216  0.035088  0.044874      2.000000
  0.039216 -0.035088  0.044874      2.000000
  0.078431  0.035088  0.044874      2.000000
  0.078431 -0.035088  0.044874      2.000000
  0.117647  0.035088  0.044874      2.000000
  0.000000  0.070175  0.044874      2.000000
  0.039216  0.070175  0.044874      2.000000
  0.039216 -0.070175  0.044874      2.000000
  0.078431  0.070175  0.044874      2.000000
  0.078431 -0.070175  0.044874      2.000000
  0.117647  0.070175  0.044874      2.000000
  0.000000  0.105263  0.044874      1.000000
  0.039216  0.105263  0.044874      2.000000
  0.078431  0.105263  0.044874      2.000000
  0.117647  0.105263  0.044874      1.000000
 


--------------------------------------------------------------------------------------------------------




 Dimension of arrays:
   k-points           NKPTS =     40   k-points in BZ     NKDIM =     40   number of bands    NBANDS=     32
   number of dos      NEDOS =    301   number of ions     NIONS =      8
   non local maximal  LDIM  =      5   non local SUM 2l+1 LMDIM =     13
   total plane-waves  NPLWV =  25920
   max r-space proj   IRMAX =      1   max aug-charges    IRDMAX=   6462
   dimension x,y,z NGX =    20 NGY =   24 NGZ =   54
   dimension x,y,z NGXF=    40 NGYF=   48 NGZF=  108
   support grid    NGXF=    40 NGYF=   48 NGZF=  108
   ions per type =               4   4
   NGX,Y,Z   is equivalent  to a cutoff of   7.82,  8.40,  8.06 a.u.
   NGXF,Y,Z  is equivalent  to a cutoff of  15.65, 16.80, 16.11 a.u.

 SYSTEM =  ./                                      
 POSCAR =  Ge Se                                   

 Startparameter for this run:
   NWRITE =      2    write-flag & timer
   PREC   = normal    normal or accurate (medium, high low for compatibility)
   ISTART =      0    job   : 0-new  1-cont  2-samecut
   ICHARG =      2    charge: 1-file 2-atom 10-const
   ISPIN  =      1    spin polarized calculation?
   LNONCOLLINEAR =      F non collinear calculations
   LSORBIT =      F    spin-orbit coupling
   INIWAV =      1    electr: 0-lowe 1-rand  2-diag
   LASPH  =      T    aspherical Exc in radial PAW
 Electronic Relaxation 1
   ENCUT  =  360.0 eV  26.46 Ry    5.14 a.u.   6.58  7.35 17.24*2*pi/ulx,y,z
   ENINI  =  360.0     initial cutoff
   ENAUG  =  446.8 eV  augmentation charge cutoff
   NELM   =    100;   NELMIN=  2; NELMDL= -5     # of ELM steps 
   EDIFF  = 0.1E-05   stopping-criterion for ELM
   LREAL  =      F    real-space projection
   NLSPLINE    = F    spline interpolate recip. space projectors
   LCOMPAT=      F    compatible to vasp.4.4
   GGA_COMPAT  = T    GGA compatible to vasp.4.4-vasp.4.6
   LMAXPAW     = -100 max onsite density
   LMAXMIX     =    4 max onsite mixed and CHGCAR
   VOSKOWN=      0    Vosko Wilk Nusair interpolation
   ROPT   =    0.00000   0.00000
 Ionic relaxation
   EDIFFG = 0.1E-04   stopping-criterion for IOM
   NSW    =      0    number of steps for IOM
   NBLOCK =      1;   KBLOCK =      1    inner block; outer block 
   IBRION =     -1    ionic relax: 0-MD 1-quasi-New 2-CG
   NFREE  =      0    steps in history (QN), initial steepest desc. (CG)
   ISIF   =      2    stress and relaxation
   IWAVPR =     10    prediction:  0-non 1-charg 2-wave 3-comb
   ISYM   =      0    0-nonsym 1-usesym 2-fastsym
   LCORR  =      T    Harris-Foulkes like correction to forces

   POTIM  = 0.5000    time-step for ionic-motion
   TEIN   =    0.0    initial temperature
   TEBEG  =    0.0;   TEEND  =   0.0 temperature during run
   SMASS  =  -3.00    Nose mass-parameter (am)
   estimated Nose-frequenzy (Omega)   =  0.10E-29 period in steps = 0.13E+47 mass=  -0.413E-27a.u.
   SCALEE = 1.0000    scale energy and forces
   NPACO  =    256;   APACO  = 10.0  distance and # of slots for P.C.
   PSTRESS=    0.0 pullay stress

  Mass of Ions in am
   POMASS =  72.61 78.96
  Ionic Valenz
   ZVAL   =   4.00  6.00
  Atomic Wigner-Seitz radii
   RWIGS  =  -1.00 -1.00
  virtual crystal weights 
   VCA    =   1.00  1.00
   NELECT =      40.0000    total number of electrons
   NUPDOWN=      -1.0000    fix difference up-down

 DOS related values:
   EMIN   =  10.00;   EMAX   =-10.00  energy-range for DOS
   EFERMI =   0.00;   METHOD = LEGACY      
   ISMEAR =     0;   SIGMA  =   0.05  broadening in eV -4-tet -1-fermi 0-gaus

 Electronic relaxation 2 (details)
   IALGO  =     38    algorithm
   LDIAG  =      T    sub-space diagonalisation (order eigenvalues)
   LSUBROT=      F    optimize rotation matrix (better conditioning)
   TURBO    =      0    0=normal 1=particle mesh
   IRESTART =      0    0=no restart 2=restart with 2 vectors
   NREBOOT  =      0    no. of reboots
   NMIN     =      0    reboot dimension
   EREF     =   0.00    reference energy to select bands
   IMIX   =      4    mixing-type and parameters
     AMIX     =   0.40;   BMIX     =  1.00
     AMIX_MAG =   1.60;   BMIX_MAG =  1.00
     AMIN     =   0.10
     WC   =   100.;   INIMIX=   1;  MIXPRE=   1;  MAXMIX= -45

 Intra band minimization:
   WEIMIN = 0.0000     energy-eigenvalue tresh-hold
   EBREAK =  0.78E-08  absolut break condition
   DEPER  =   0.30     relativ break condition  

   TIME   =   0.40     timestep for ELM

  volume/ion in A,a.u.               =      28.12       189.74
  Fermi-wavevector in a.u.,A,eV,Ry     =   0.920612  1.739705 11.531302  0.847527
  Thomas-Fermi vector in A             =   2.045937
 
 Write flags
   LWAVE        =      F    write WAVECAR
   LDOWNSAMPLE  =      F    k-point downsampling of WAVECAR
   LCHARG       =      F    write CHGCAR
   LVTOT        =      F    write LOCPOT, total local potential
   LVHAR        =      F    write LOCPOT, Hartree potential only
   LELF         =      F    write electronic localiz. function (ELF)
   LORBIT       =      0    0 simple, 1 ext, 2 COOP (PROOUT), +10 PAW based schemes


 Dipole corrections
   LMONO  =      F    monopole corrections only (constant potential shift)
   LDIPOL =      F    correct potential (dipole corrections)
   IDIPOL =      0    1-x, 2-y, 3-z, 4-all directions 
   EPSILON=  1.0000000 bulk dielectric constant

 Exchange correlation treatment:
   GGA     =    PE    GGA type
   LEXCH   =     8    internal setting for exchange type
   LIBXC   =     F    Libxc                    
   VOSKOWN =     0    Vosko Wilk Nusair interpolation
   LHFCALC =     F    Hartree Fock is set to
   LHFONE  =     F    Hartree Fock one center treatment
   AEXX    =    0.0000 exact exchange contribution

 Linear response parameters
   LEPSILON=     F    determine dielectric tensor
   LRPA    =     F    only Hartree local field effects (RPA)
   LNABLA  =     F    use nabla operator in PAW spheres
   LVEL    =     F    velocity operator in full k-point grid
   CSHIFT  =0.1000    complex shift for real part using Kramers Kronig
   OMEGAMAX=  -1.0    maximum frequency
   DEG_THRESHOLD= 0.2000000E-02 threshold for treating states as degnerate
   RTIME   =   -0.100 relaxation time in fs
  (WPLASMAI=    0.000 imaginary part of plasma frequency in eV, 0.658/RTIME)
   DFIELD  = 0.0000000 0.0000000 0.0000000 field for delta impulse in time
 
  Optional k-point grid parameters
   LKPOINTS_OPT  =     F    use optional k-point grid
   KPOINTS_OPT_MODE=     1    mode for optional k-point grid
 
 Orbital magnetization related:
   ORBITALMAG=     F  switch on orbital magnetization
   LCHIMAG   =     F  perturbation theory with respect to B field
   DQ        =  0.001000  dq finite difference perturbation B field
   LLRAUG    =     F  two centre corrections for induced B field
   LBONE     =     F  B-component reconstruction in AE one-centre
   LVGVCALC  =     T  calculate vGv susceptibility
   LVGVAPPL  =     F  apply vGv susceptibility instead of pGv for G=0

 Random number generation:
   RANDOM_GENERATOR = DEFAULT
   PCG_SEED         = not used


--------------------------------------------------------------------------------------------------------


 Static calculation
 charge density and potential will be updated during run
 non-spin polarized calculation
 Variant of blocked Davidson
 Davidson routine will perform the subspace rotation
 perform sub-space diagonalisation
    after iterative eigenvector-optimisation
 modified Broyden-mixing scheme, WC =      100.0
 initial mixing is a Kerker type mixing with AMIX =  0.4000 and BMIX =      1.0000
 Hartree-type preconditioning will be used
 using additional bands            12
 reciprocal scheme for non local part
 use partial core corrections
 calculate Harris-corrections to forces 
   (improved forces if not selfconsistent)
 use gradient corrections 
 use of overlap-Matrix (Vanderbilt PP)
 Gauss-broadening in eV      SIGMA  =   0.05


--------------------------------------------------------------------------------------------------------


  energy-cutoff  :      360.00
  volume of cell :      224.93
      direct lattice vectors                 reciprocal lattice vectors
     4.250000000  0.000000000  0.000000000     0.235294118  0.000000000  0.000000000
     0.000000000  4.750000000  0.000000000     0.000000000  0.210526316  0.000000000
     0.000000000  0.000000000 11.142221000     0.000000000  0.000000000  0.089748713

  length of vectors
     4.250000000  4.750000000 11.142221000     0.235294118  0.210526316  0.089748713


 
 k-points in units of 2pi/SCALE and weight: KPOINTS created by Atomic Simulation Env
   0.00000000  0.00000000  0.00000000       0.014
   0.03921569  0.00000000  0.00000000       0.028
   0.07843137  0.00000000  0.00000000       0.028
   0.11764706  0.00000000  0.00000000       0.014
   0.00000000  0.03508772  0.00000000       0.028
   0.03921569  0.03508772  0.00000000       0.028
   0.03921569 -0.03508772  0.00000000       0.028
   0.07843137  0.03508772  0.00000000       0.028
   0.07843137 -0.03508772  0.00000000       0.028
   0.11764706  0.03508772  0.00000000       0.028
   0.00000000  0.07017544  0.00000000       0.028
   0.03921569  0.07017544  0.00000000       0.028
   0.03921569 -0.07017544  0.00000000       0.028
   0.07843137  0.07017544  0.00000000       0.028
   0.07843137 -0.07017544  0.00000000       0.028
   0.11764706  0.07017544  0.00000000       0.028
   0.00000000  0.10526316  0.00000000       0.014
   0.03921569  0.10526316  0.00000000       0.028
   0.07843137  0.10526316  0.00000000       0.028
   0.11764706  0.10526316  0.00000000       0.014
   0.00000000  0.00000000  0.04487436       0.014
   0.03921569  0.00000000  0.04487436       0.028
   0.07843137  0.00000000  0.04487436       0.028
   0.11764706  0.00000000  0.04487436       0.014
   0.00000000  0.03508772  0.04487436       0.028
   0.03921569  0.03508772  0.04487436       0.028
   0.03921569 -0.03508772  0.04487436       0.028
   0.07843137  0.03508772  0.04487436       0.028
   0.07843137 -0.03508772  0.04487436       0.028
   0.11764706  0.03508772  0.04487436       0.028
   0.00000000  0.07017544  0.04487436       0.028
   0.03921569  0.07017544  0.04487436       0.028
   0.03921569 -0.07017544  0.04487436       0.028
   0.07843137  0.07017544  0.04487436       0.028
   0.07843137 -0.07017544  0.04487436       0.028
   0.11764706  0.07017544  0.04487436       0.028
   0.00000000  0.10526316  0.04487436       0.014
   0.03921569  0.10526316  0.04487436       0.028
   0.07843137  0.10526316  0.04487436       0.028
   0.11764706  0.10526316  0.04487436       0.014
 
 k-points in reciprocal lattice and weights: KPOINTS created by Atomic Simulation Env
   0.00000000  0.00000000  0.00000000       0.014
   0.16666667  0.00000000  0.00000000       0.028
   0.33333333  0.00000000  0.00000000       0.028
   0.50000000  0.00000000  0.00000000       0.014
   0.00000000  0.16666667  0.00000000       0.028
   0.16666667  0.16666667  0.00000000       0.028
   0.16666667 -0.16666667  0.00000000       0.028
   0.33333333  0.16666667  0.00000000       0.028
   0.33333333 -0.16666667  0.00000000       0.028
   0.50000000  0.16666667  0.00000000       0.028
   0.00000000  0.33333333  0.00000000       0.028
   0.16666667  0.33333333  0.00000000       0.028
   0.16666667 -0.33333333  0.00000000       0.028
   0.33333333  0.33333333  0.00000000       0.028
   0.33333333 -0.33333333  0.00000000       0.028
   0.50000000  0.33333333  0.00000000       0.028
   0.00000000  0.50000000  0.00000000       0.014
   0.16666667  0.50000000  0.00000000       0.028
   0.33333333  0.50000000  0.00000000       0.028
   0.50000000  0.50000000  0.00000000       0.014
   0.00000000  0.00000000  0.50000000       0.014
   0.16666667  0.00000000  0.50000000       0.028
   0.33333333  0.00000000  0.50000000       0.028
   0.50000000  0.00000000  0.50000000       0.014
   0.00000000  0.16666667  0.50000000       0.028
   0.16666667  0.16666667  0.50000000       0.028
   0.16666667 -0.16666667  0.50000000       0.028
   0.33333333  0.16666667  0.50000000       0.028
   0.33333333 -0.16666667  0.50000000       0.028
   0.50000000  0.16666667  0.50000000       0.028
   0.00000000  0.33333333  0.50000000       0.028
   0.16666667  0.33333333  0.50000000       0.028
   0.16666667 -0.33333333  0.50000000       0.028
   0.33333333  0.33333333  0.50000000       0.028
   0.33333333 -0.33333333  0.50000000       0.028
   0.50000000  0.33333333  0.50000000       0.028
   0.00000000  0.50000000  0.50000000       0.014
   0.16666667  0.50000000  0.50000000       0.028
   0.33333333  0.50000000  0.50000000       0.028
   0.50000000  0.50000000  0.50000000       0.014
 
 position of ions in fractional coordinates (direct lattice) 
   0.25000000  0.11471317  0.12989968
   0.75000000  0.61471317  0.37010032
   0.75000000  0.88528683  0.87010032
   0.25000000  0.38528683  0.62989968
   0.25000000  0.95950452  0.35019561
   0.75000000  0.45950452  0.14980439
   0.75000000  0.04049548  0.64980439
   0.25000000  0.54049548  0.85019561
 
 position of ions in cartesian coordinates  (Angst):
   1.06250000  0.54488755  1.44737092
   3.18750000  2.91988755  4.12373958
   3.18750000  4.20511245  9.69485008
   1.06250000  1.83011245  7.01848142
   1.06250000  4.55764647  3.90195691
   3.18750000  2.18264647  1.66915359
   3.18750000  0.19235353  7.24026409
   1.06250000  2.56735353  9.47306741
 


--------------------------------------------------------------------------------------------------------


 k-point   1 :   0.0000 0.0000 0.0000  plane waves:    3489
 k-point   2 :   0.1667 0.0000 0.0000  plane waves:    3495
 k-point   3 :   0.3333 0.0000 0.0000  plane waves:    3495
 k-point   4 :   0.5000 0.0000 0.0000  plane waves:    3506
 k-point   5 :   0.0000 0.1667 0.0000  plane waves:    3493
 k-point   6 :   0.1667 0.1667 0.0000  plane waves:    3507
 k-point   7 :   0.1667-0.1667 0.0000  plane waves:    3507
 k-point   8 :   0.3333 0.1667 0.0000  plane waves:    3487
 k-point   9 :   0.3333-0.1667 0.0000  plane waves:    3487
 k-point  10 :   0.5000 0.1667 0.0000  plane waves:    3472
 k-point  11 :   0.0000 0.3333 0.0000  plane waves:    3513
 k-point  12 :   0.1667 0.3333 0.0000  plane waves:    3490
 k-point  13 :   0.1667-0.3333 0.0000  plane waves:    3490
 k-point  14 :   0.3333 0.3333 0.0000  plane waves:    3475
 k-point  15 :   0.3333-0.3333 0.0000  plane waves:    3475
 k-point  16 :   0.5000 0.3333 0.0000  plane waves:    3466
 k-point  17 :   0.0000 0.5000 0.0000  plane waves:    3506
 k-point  18 :   0.1667 0.5000 0.0000  plane waves:    3496
 k-point  19 :   0.3333 0.5000 0.0000  plane waves:    3490
 k-point  20 :   0.5000 0.5000 0.0000  plane waves:    3476
 k-point  21 :   0.0000 0.0000 0.5000  plane waves:    3474
 k-point  22 :   0.1667 0.0000 0.5000  plane waves:    3482
 k-point  23 :   0.3333 0.0000 0.5000  plane waves:    3508
 k-point  24 :   0.5000 0.0000 0.5000  plane waves:    3488
 k-point  25 :   0.0000 0.1667 0.5000  plane waves:    3482
 k-point  26 :   0.1667 0.1667 0.5000  plane waves:    3500
 k-point  27 :   0.1667-0.1667 0.5000  plane waves:    3500
 k-point  28 :   0.3333 0.1667 0.5000  plane waves:    3500
 k-point  29 :   0.3333-0.1667 0.5000  plane waves:    3500
 k-point  30 :   0.5000 0.1667 0.5000  plane waves:    3472
 k-point  31 :   0.0000 0.3333 0.5000  plane waves:    3498
 k-point  32 :   0.1667 0.3333 0.5000  plane waves:    3496
 k-point  33 :   0.1667-0.3333 0.5000  plane waves:    3496
 k-point  34 :   0.3333 0.3333 0.5000  plane waves:    3476
 k-point  35 :   0.3333-0.3333 0.5000  plane waves:    3476
 k-point  36 :   0.5000 0.3333 0.5000  plane waves:    3468
 k-point  37 :   0.0000 0.5000 0.5000  plane waves:    3512
 k-point  38 :   0.1667 0.5000 0.5000  plane waves:    3480
 k-point  39 :   0.3333 0.5000 0.5000  plane waves:    3488
 k-point  40 :   0.5000 0.5000 0.5000  plane waves:    3488

 maximum and minimum number of plane-waves per node :       917      845

 maximum number of plane-waves:      3513
 maximum index in each direction: 
   IXMAX=    6   IYMAX=    7   IZMAX=   17
   IXMIN=   -7   IYMIN=   -7   IZMIN=  -17


 parallel 3D FFT for wavefunctions:
    minimum data exchange during FFTs selected (reduces bandwidth)
 parallel 3D FFT for charge:
    minimum data exchange during FFTs selected (reduces bandwidth)


 total amount of memory used by VASP MPI-rank0    40012. kBytes
=======================================================================

   base      :      30000. kBytes
   nonl-proj :       7839. kBytes
   fftplans  :        374. kBytes
   grid      :        555. kBytes
   one-center:         16. kBytes
   wavefun   :       1228. kBytes
 
     INWAV:  cpu time      0.0000: real time      0.0001
 Broyden mixing: mesh for mixing (old mesh)
   NGX = 13   NGY = 15   NGZ = 35
  (NGX  = 40   NGY  = 48   NGZ  =108)
  gives a total of   6825 points

 initial charge density was supplied:
 charge density of overlapping atoms calculated
 number of electron      40.0000000 magnetization 
 keeping initial charge density in first step


--------------------------------------------------------------------------------------------------------


 Maximum index for augmentation-charges            70 (set IRDMAX)


--------------------------------------------------------------------------------------------------------


 First call to EWALD:  gamma=   0.291
 Maximum number of real-space cells 4x 3x 2
 Maximum number of reciprocal cells 2x 2x 5

    FEWALD:  cpu time      0.0026: real time      0.0026


--------------------------------------- Ionic step        1  -------------------------------------------




--------------------------------------- Iteration      1(   1)  ---------------------------------------


    POTLOK:  cpu time      0.0096: real time      0.0100
    SETDIJ:  cpu time      0.1371: real time      0.1376
     EDDAV:  cpu time      0.2764: real time      0.2793
       DOS:  cpu time      0.0014: real time      0.0014
    --------------------------------------------
      LOOP:  cpu time      0.4246: real time      0.4282

 eigenvalue-minimisations  :  2560
 total energy-change (2. order) : 0.1336926E+03  (-0.1263144E+04)
 number of electron      40.0000000 magnetization 
 augmentation part       40.0000000 magnetization 

 Free energy of the ion-electron system (eV)
  ---------------------------------------------------
  alpha Z        PSCENC =        75.33088192
  Ewald energy   TEWEN  =     -1333.82303359
  -Hartree energ DENC   =      -160.24934685
  -exchange      EXHF   =         0.00000000
  -V(xc)+E(xc)   XCENC  =       -35.04873575
  PAW double counting   =      1193.78262552    -1080.73714043
  entropy T*S    EENTRO =        -0.00319192
  eigenvalues    EBANDS =        25.95595249
  atomic energy  EATOM  =      1448.48460880
  Solvation  Ediel_sol  =         0.00000000
  ---------------------------------------------------
  free energy    TOTEN  =       133.69262019 eV

  energy without entropy =      133.69581211  energy(sigma->0) =      133.69421615


--------------------------------------------------------------------------------------------------------




--------------------------------------- Iteration      1(   2)  ---------------------------------------


     EDDAV:  cpu time      0.3357: real time      0.3392
       DOS:  cpu time      0.0005: real time      0.0005
    --------------------------------------------
      LOOP:  cpu time      0.3363: real time      0.3397

 eigenvalue-minimisations  :  3712
 total energy-change (2. order) :-0.1578625E+03  (-0.1530495E+03)
 number of electron      40.0000000 magnetization 
 augmentation part       40.0000000 magnetization 

 Free energy of the ion-electron system (eV)
  ---------------------------------------------------
  alpha Z        PSCENC =        75.33088192
  Ewald energy   TEWEN  =     -1333.82303359
  -Hartree energ DENC   =      -160.24934685
  -exchange      EXHF   =         0.00000000
  -V(xc)+E(xc)   XCENC  =       -35.04873575
  PAW double counting   =      1193.78262552    -1080.73714043
  entropy T*S    EENTRO =        -0.00000000
  eigenvalues    EBANDS =      -131.90970037
  atomic energy  EATOM  =      1448.48460880
  Solvation  Ediel_sol  =         0.00000000
  ---------------------------------------------------
  free energy    TOTEN  =       -24.16984075 eV

  energy without entropy =      -24.16984075  energy(sigma->0) =      -24.16984075


--------------------------------------------------------------------------------------------------------




--------------------------------------- Iteration      1(   3)  ---------------------------------------


     EDDAV:  cpu time      0.3007: real time      0.3038
       DOS:  cpu time      0.0006: real time      0.0006
    --------------------------------------------
      LOOP:  cpu time      0.3013: real time      0.3044

 eigenvalue-minimisations  :  3120
 total energy-change (2. order) :-0.9709458E+01  (-0.9685490E+01)
 number of electron      40.0000000 magnetization 
 augmentation part       40.0000000 magnetization 

 Free energy of the ion-electron system (eV)
  ---------------------------------------------------
  alpha Z        PSCENC =        75.33088192
  Ewald energy   TEWEN  =     -1333.82303359
  -Hartree energ DENC   =      -160.24934685
  -exchange      EXHF   =         0.00000000
  -V(xc)+E(xc)   XCENC  =       -35.04873575
  PAW double counting   =      1193.78262552    -1080.73714043
  entropy T*S    EENTRO =        -0.00000000
  eigenvalues    EBANDS =      -141.61915815
  atomic energy  EATOM  =      1448.48460880
  Solvation  Ediel_sol  =         0.00000000
  ---------------------------------------------------
  free energy    TOTEN  =       -33.87929853 eV

  energy without entropy =      -33.87929853  energy(sigma->0) =      -33.87929853


--------------------------------------------------------------------------------------------------------




--------------------------------------- Iteration      1(   4)  ---------------------------------------


     EDDAV:  cpu time      0.3124: real time      0.3157
       DOS:  cpu time      0.0006: real time      0.0006
    --------------------------------------------
      LOOP:  cpu time      0.3130: real time      0.3163

 eigenvalue-minimisations  :  3168
 total energy-change (2. order) :-0.7585094E-01  (-0.7584306E-01)
 number of electron      40.0000000 magnetization 
 augmentation part       40.0000000 magnetization 

 Free energy of the ion-electron system (eV)
  ---------------------------------------------------
  alpha Z        PSCENC =        75.33088192
  Ewald energy   TEWEN  =     -1333.82303359
  -Hartree energ DENC   =      -160.24934685
  -exchange      EXHF   =         0.00000000
  -V(xc)+E(xc)   XCENC  =       -35.04873575
  PAW double counting   =      1193.78262552    -1080.73714043
  entropy T*S    EENTRO =        -0.00000000
  eigenvalues    EBANDS =      -141.69500908
  atomic energy  EATOM  =      1448.48460880
  Solvation  Ediel_sol  =         0.00000000
  ---------------------------------------------------
  free energy    TOTEN  =       -33.95514947 eV

  energy without entropy =      -33.95514946  energy(sigma->0) =      -33.95514946


--------------------------------------------------------------------------------------------------------




--------------------------------------- Iteration      1(   5)  ---------------------------------------


     EDDAV:  cpu time      0.3009: real time      0.3042
       DOS:  cpu time      0.0006: real time      0.0006
    CHARGE:  cpu time      0.0049: real time      0.0050
    MIXING:  cpu time      0.0008: real time      0.0008
    --------------------------------------------
      LOOP:  cpu time      0.3072: real time      0.3106

 eigenvalue-minimisations  :  3136
 total energy-change (2. order) :-0.5055645E-03  (-0.5055622E-03)
 number of electron      39.9999966 magnetization 
 augmentation part       -7.4145827 magnetization 

 Broyden mixing:
  rms(total) = 0.60599E+00    rms(broyden)= 0.60598E+00
  rms(prec ) = 0.72847E+00
  weight for this iteration     100.00

 Free energy of the ion-electron system (eV)
  ---------------------------------------------------
  alpha Z        PSCENC =        75.33088192
  Ewald energy   TEWEN  =     -1333.82303359
  -Hartree energ DENC   =      -160.24934685
  -exchange      EXHF   =         0.00000000
  -V(xc)+E(xc)   XCENC  =       -35.04873575
  PAW double counting   =      1193.78262552    -1080.73714043
  entropy T*S    EENTRO =        -0.00000000
  eigenvalues    EBANDS =      -141.69551465
  atomic energy  EATOM  =      1448.48460880
  Solvation  Ediel_sol  =         0.00000000
  ---------------------------------------------------
  free energy    TOTEN  =       -33.95565503 eV

  energy without entropy =      -33.95565503  energy(sigma->0) =      -33.95565503


--------------------------------------------------------------------------------------------------------




--------------------------------------- Iteration      1(   6)  ---------------------------------------


    POTLOK:  cpu time      0.0060: real time      0.0062
    SETDIJ:  cpu time      0.1376: real time      0.1382
     EDDAV:  cpu time      0.3078: real time      0.3108
       DOS:  cpu time      0.0009: real time      0.0009
    CHARGE:  cpu time      0.0057: real time      0.0057
    MIXING:  cpu time      0.0009: real time      0.0009
    --------------------------------------------
      LOOP:  cpu time      0.4589: real time      0.4627

 eigenvalue-minimisations  :  2864
 total energy-change (2. order) : 0.5714340E+00  (-0.1302703E+00)
 number of electron      39.9999967 magnetization 
 augmentation part       -7.3390041 magnetization 

 Broyden mixing:
  rms(total) = 0.37388E+00    rms(broyden)= 0.37388E+00
  rms(prec ) = 0.39999E+00
  weight for this iteration     100.00

 eigenvalues of (default mixing * dielectric matrix)
  average eigenvalue GAMMA=   1.8532
  1.8532

 Free energy of the ion-electron system (eV)
  ---------------------------------------------------
  alpha Z        PSCENC =        75.33088192
  Ewald energy   TEWEN  =     -1333.82303359
  -Hartree energ DENC   =      -167.66346394
  -exchange      EXHF   =         0.00000000
  -V(xc)+E(xc)   XCENC  =       -34.37044421
  PAW double counting   =      1422.30068959    -1309.53799878
  entropy T*S    EENTRO =        -0.00000000
  eigenvalues    EBANDS =      -134.10546084
  atomic energy  EATOM  =      1448.48460880
  Solvation  Ediel_sol  =         0.00000000
  ---------------------------------------------------
  free energy    TOTEN  =       -33.38422105 eV

  energy without entropy =      -33.38422105  energy(sigma->0) =      -33.38422105


--------------------------------------------------------------------------------------------------------




--------------------------------------- Iteration      1(   7)  ---------------------------------------


    POTLOK:  cpu time      0.0077: real time      0.0079
    SETDIJ:  cpu time      0.1358: real time      0.1365
     EDDAV:  cpu time      0.2872: real time      0.2904
       DOS:  cpu time      0.0006: real time      0.0006
    CHARGE:  cpu time      0.0048: real time      0.0049
    MIXING:  cpu time      0.0005: real time      0.0006
    --------------------------------------------
      LOOP:  cpu time      0.4367: real time      0.4408

 eigenvalue-minimisations  :  2976
 total energy-change (2. order) : 0.8341082E-02  (-0.2718849E-01)
 number of electron      39.9999967 magnetization 
 augmentation part       -7.3333250 magnetization 

 Broyden mixing:
  rms(total) = 0.16159E+00    rms(broyden)= 0.16159E+00
  rms(prec ) = 0.17275E+00
  weight for this iteration     100.00

 eigenvalues of (default mixing * dielectric matrix)
  average eigenvalue GAMMA=   1.7705
  1.1573  2.3836

 Free energy of the ion-electron system (eV)
  ---------------------------------------------------
  alpha Z        PSCENC =        75.33088192
  Ewald energy   TEWEN  =     -1333.82303359
  -Hartree energ DENC   =      -169.81895029
  -exchange      EXHF   =         0.00000000
  -V(xc)+E(xc)   XCENC  =       -33.98620874
  PAW double counting   =      1652.44017622    -1539.81682297
  entropy T*S    EENTRO =        -0.00000000
  eigenvalues    EBANDS =      -132.18653132
  atomic energy  EATOM  =      1448.48460880
  Solvation  Ediel_sol  =         0.00000000
  ---------------------------------------------------
  free energy    TOTEN  =       -33.37587997 eV

  energy without entropy =      -33.37587997  energy(sigma->0) =      -33.37587997


--------------------------------------------------------------------------------------------------------




--------------------------------------- Iteration      1(   8)  ---------------------------------------


    POTLOK:  cpu time      0.0058: real time      0.0060
    SETDIJ:  cpu time      0.1372: real time      0.1378
     EDDAV:  cpu time      0.2829: real time      0.2856
       DOS:  cpu time      0.0006: real time      0.0006
    CHARGE:  cpu time      0.0045: real time      0.0045
    MIXING:  cpu time      0.0006: real time      0.0006
    --------------------------------------------
      LOOP:  cpu time      0.4315: real time      0.4351

 eigenvalue-minimisations  :  2896
 total energy-change (2. order) :-0.3987278E-04  (-0.2772416E-02)
 number of electron      39.9999967 magnetization 
 augmentation part       -7.3444993 magnetization 

 Broyden mixing:
  rms(total) = 0.18224E-01    rms(broyden)= 0.18224E-01
  rms(prec ) = 0.24930E-01
  weight for this iteration     100.00

 eigenvalues of (default mixing * dielectric matrix)
  average eigenvalue GAMMA=   1.6020
  2.4270  1.1896  1.1896

 Free energy of the ion-electron system (eV)
  ---------------------------------------------------
  alpha Z        PSCENC =        75.33088192
  Ewald energy   TEWEN  =     -1333.82303359
  -Hartree energ DENC   =      -170.21800254
  -exchange      EXHF   =         0.00000000
  -V(xc)+E(xc)   XCENC  =       -33.78631885
  PAW double counting   =      1814.29062644    -1701.72423091
  entropy T*S    EENTRO =        -0.00000000
  eigenvalues    EBANDS =      -131.93045110
  atomic energy  EATOM  =      1448.48460880
  Solvation  Ediel_sol  =         0.00000000
  ---------------------------------------------------
  free energy    TOTEN  =       -33.37591984 eV

  energy without entropy =      -33.37591984  energy(sigma->0) =      -33.37591984


--------------------------------------------------------------------------------------------------------




--------------------------------------- Iteration      1(   9)  ---------------------------------------


    POTLOK:  cpu time      0.0058: real time      0.0060
    SETDIJ:  cpu time      0.1378: real time      0.1384
     EDDAV:  cpu time      0.2984: real time      0.3014
       DOS:  cpu time      0.0006: real time      0.0006
    CHARGE:  cpu time      0.0045: real time      0.0045
    MIXING:  cpu time      0.0005: real time      0.0005
    --------------------------------------------
      LOOP:  cpu time      0.4475: real time      0.4514

 eigenvalue-minimisations  :  3120
 total energy-change (2. order) : 0.6923681E-04  (-0.5293068E-03)
 number of electron      39.9999967 magnetization 
 augmentation part       -7.3407222 magnetization 

 Broyden mixing:
  rms(total) = 0.75578E-02    rms(broyden)= 0.75578E-02
  rms(prec ) = 0.90851E-02
  weight for this iteration     100.00

 eigenvalues of (default mixing * dielectric matrix)
  average eigenvalue GAMMA=   1.7364
  2.3499  2.3499  1.1229  1.1229

 Free energy of the ion-electron system (eV)
  ---------------------------------------------------
  alpha Z        PSCENC =        75.33088192
  Ewald energy   TEWEN  =     -1333.82303359
  -Hartree energ DENC   =      -170.71680871
  -exchange      EXHF   =         0.00000000
  -V(xc)+E(xc)   XCENC  =       -33.74500585
  PAW double counting   =      1821.80201558    -1709.24323895
  entropy T*S    EENTRO =        -0.00000000
  eigenvalues    EBANDS =      -131.46526981
  atomic energy  EATOM  =      1448.48460880
  Solvation  Ediel_sol  =         0.00000000
  ---------------------------------------------------
  free energy    TOTEN  =       -33.37585060 eV

  energy without entropy =      -33.37585060  energy(sigma->0) =      -33.37585060


--------------------------------------------------------------------------------------------------------




--------------------------------------- Iteration      1(  10)  ---------------------------------------


    POTLOK:  cpu time      0.0053: real time      0.0055
    SETDIJ:  cpu time      0.1376: real time      0.1382
     EDDAV:  cpu time      0.1915: real time      0.1924
       DOS:  cpu time      0.0003: real time      0.0003
    CHARGE:  cpu time      0.0035: real time      0.0036
    MIXING:  cpu time      0.0003: real time      0.0003
    --------------------------------------------
      LOOP:  cpu time      0.3386: real time      0.3403

 eigenvalue-minimisations  :  2848
 total energy-change (2. order) :-0.2120839E-03  (-0.6185997E-04)
 number of electron      39.9999967 magnetization 
 augmentation part       -7.3403444 magnetization 

 Broyden mixing:
  rms(total) = 0.25408E-02    rms(broyden)= 0.25408E-02
  rms(prec ) = 0.31317E-02
  weight for this iteration     100.00

 eigenvalues of (default mixing * dielectric matrix)
  average eigenvalue GAMMA=   1.7192
  2.7188  2.6094  1.1478  1.1478  0.9720

 Free energy of the ion-electron system (eV)
  ---------------------------------------------------
  alpha Z        PSCENC =        75.33088192
  Ewald energy   TEWEN  =     -1333.82303359
  -Hartree energ DENC   =      -170.80872289
  -exchange      EXHF   =         0.00000000
  -V(xc)+E(xc)   XCENC  =       -33.73610727
  PAW double counting   =      1817.11894432    -1704.55627713
  entropy T*S    EENTRO =        -0.00000000
  eigenvalues    EBANDS =      -131.38635685
  atomic energy  EATOM  =      1448.48460880
  Solvation  Ediel_sol  =         0.00000000
  ---------------------------------------------------
  free energy    TOTEN  =       -33.37606269 eV

  energy without entropy =      -33.37606269  energy(sigma->0) =      -33.37606269


--------------------------------------------------------------------------------------------------------




--------------------------------------- Iteration      1(  11)  ---------------------------------------


    POTLOK:  cpu time      0.0044: real time      0.0045
    SETDIJ:  cpu time      0.1361: real time      0.1368
     EDDAV:  cpu time      0.1986: real time      0.1996
       DOS:  cpu time      0.0003: real time      0.0003
    CHARGE:  cpu time      0.0036: real time      0.0036
    MIXING:  cpu time      0.0004: real time      0.0004
    --------------------------------------------
      LOOP:  cpu time      0.3434: real time      0.3453

 eigenvalue-minimisations  :  3040
 total energy-change (2. order) :-0.3273325E-04  (-0.5391175E-05)
 number of electron      39.9999967 magnetization 
 augmentation part       -7.3406656 magnetization 

 Broyden mixing:
  rms(total) = 0.14709E-02    rms(broyden)= 0.14709E-02
  rms(prec ) = 0.17670E-02
  weight for this iteration     100.00

 eigenvalues of (default mixing * dielectric matrix)
  average eigenvalue GAMMA=   1.7439
  2.7012  2.7012  1.7853  1.0999  1.0999  1.0760

 Free energy of the ion-electron system (eV)
  ---------------------------------------------------
  alpha Z        PSCENC =        75.33088192
  Ewald energy   TEWEN  =     -1333.82303359
  -Hartree energ DENC   =      -170.83070776
  -exchange      EXHF   =         0.00000000
  -V(xc)+E(xc)   XCENC  =       -33.73136390
  PAW double counting   =      1817.21620072    -1704.65300575
  entropy T*S    EENTRO =        -0.00000000
  eigenvalues    EBANDS =      -131.36967585
  atomic energy  EATOM  =      1448.48460880
  Solvation  Ediel_sol  =         0.00000000
  ---------------------------------------------------
  free energy    TOTEN  =       -33.37609542 eV

  energy without entropy =      -33.37609542  energy(sigma->0) =      -33.37609542


--------------------------------------------------------------------------------------------------------




--------------------------------------- Iteration      1(  12)  ---------------------------------------


    POTLOK:  cpu time      0.0040: real time      0.0042
    SETDIJ:  cpu time      0.1169: real time      0.1172
     EDDAV:  cpu time      0.1875: real time      0.1885
       DOS:  cpu time      0.0003: real time      0.0003
    CHARGE:  cpu time      0.0033: real time      0.0033
    MIXING:  cpu time      0.0003: real time      0.0003
    --------------------------------------------
      LOOP:  cpu time      0.3124: real time      0.3138

 eigenvalue-minimisations  :  2976
 total energy-change (2. order) :-0.1300914E-05  (-0.1370723E-05)
 number of electron      39.9999967 magnetization 
 augmentation part       -7.3406406 magnetization 

 Broyden mixing:
  rms(total) = 0.33129E-03    rms(broyden)= 0.33129E-03
  rms(prec ) = 0.36649E-03
  weight for this iteration     100.00

 eigenvalues of (default mixing * dielectric matrix)
  average eigenvalue GAMMA=   1.6641
  2.9084  2.3925  1.9340  0.9932  1.2189  1.1008  1.1008

 Free energy of the ion-electron system (eV)
  ---------------------------------------------------
  alpha Z        PSCENC =        75.33088192
  Ewald energy   TEWEN  =     -1333.82303359
  -Hartree energ DENC   =      -170.84817313
  -exchange      EXHF   =         0.00000000
  -V(xc)+E(xc)   XCENC  =       -33.72920036
  PAW double counting   =      1816.53377760    -1703.97026247
  entropy T*S    EENTRO =        -0.00000000
  eigenvalues    EBANDS =      -131.35469548
  atomic energy  EATOM  =      1448.48460880
  Solvation  Ediel_sol  =         0.00000000
  ---------------------------------------------------
  free energy    TOTEN  =       -33.37609672 eV

  energy without entropy =      -33.37609672  energy(sigma->0) =      -33.37609672


--------------------------------------------------------------------------------------------------------




--------------------------------------- Iteration      1(  13)  ---------------------------------------


    POTLOK:  cpu time      0.0037: real time      0.0039
    SETDIJ:  cpu time      0.1096: real time      0.1101
     EDDAV:  cpu time      0.1583: real time      0.1590
       DOS:  cpu time      0.0003: real time      0.0003
    --------------------------------------------
      LOOP:  cpu time      0.2720: real time      0.2734

 eigenvalue-minimisations  :  2112
 total energy-change (2. order) :-0.8397688E-06  (-0.1561880E-06)
 number of electron      39.9999967 magnetization 
 augmentation part       -7.3406406 magnetization 

 Free energy of the ion-electron system (eV)
  ---------------------------------------------------
  alpha Z        PSCENC =        75.33088192
  Ewald energy   TEWEN  =     -1333.82303359
  -Hartree energ DENC   =      -170.85090371
  -exchange      EXHF   =         0.00000000
  -V(xc)+E(xc)   XCENC  =       -33.72872948
  PAW double counting   =      1816.85378988    -1704.29035697
  entropy T*S    EENTRO =        -0.00000000
  eigenvalues    EBANDS =      -131.35235441
  atomic energy  EATOM  =      1448.48460880
  Solvation  Ediel_sol  =         0.00000000
  ---------------------------------------------------
  free energy    TOTEN  =       -33.37609756 eV

  energy without entropy =      -33.37609756  energy(sigma->0) =      -33.37609756


--------------------------------------------------------------------------------------------------------




 average (electrostatic) potential at core
  the test charge radii are     1.1631  1.0808
  (the norm of the test charge is              1.0000)
       1 -34.7393       2 -34.7393       3 -34.7393       4 -34.7393       5 -55.9835
       6 -55.9835       7 -55.9835       8 -55.9835
 
 
 
 E-fermi :   2.0062     XC(G=0):  -8.6148     alpha+bet : -7.5047

 Fermi energy:         2.0061996109

 k-point     1 :       0.0000    0.0000    0.0000
  band No.  band energies     occupation 
      1     -11.5088      2.00000
      2     -11.2849      2.00000
      3     -10.3561      2.00000
      4     -10.0668      2.00000
      5      -5.9259      2.00000
      6      -5.4671      2.00000
      7      -3.8752      2.00000
      8      -3.6832      2.00000
      9      -2.2791      2.00000
     10      -1.2633      2.00000
     11      -0.9752      2.00000
     12      -0.9457      2.00000
     13      -0.8861      2.00000
     14      -0.4940      2.00000
     15       0.0106      2.00000
     16       0.4865      2.00000
     17       0.9738      2.00000
     18       1.4692      2.00000
     19       1.6464      2.00000
     20       1.6859      2.00000
     21       3.5631      0.00000
     22       3.7683      0.00000
     23       3.8699      0.00000
     24       4.2025      0.00000
     25       4.3739      0.00000
     26       4.8875      0.00000
     27       5.2020      0.00000
     28       5.4018      0.00000
     29       6.4801      0.00000
     30       6.6397      0.00000
     31       7.2788      0.00000
     32       7.5036      0.00000

 k-point     2 :       0.1667    0.0000    0.0000
  band No.  band energies     occupation 
      1     -11.3722      2.00000
      2     -11.1613      2.00000
      3     -10.3127      2.00000
      4     -10.0701      2.00000
      5      -6.0515      2.00000
      6      -5.6279      2.00000
      7      -4.2134      2.00000
      8      -4.1851      2.00000
      9      -2.1201      2.00000
     10      -1.3545      2.00000
     11      -1.1051      2.00000
     12      -0.8573      2.00000
     13      -0.6836      2.00000
     14      -0.3643      2.00000
     15       0.1920      2.00000
     16       0.2105      2.00000
     17       1.0018      2.00000
     18       1.4166      2.00000
     19       1.5737      2.00000
     20       1.6418      2.00000
     21       3.7321      0.00000
     22       4.0337      0.00000
     23       4.2187      0.00000
     24       4.4224      0.00000
     25       4.5410      0.00000
     26       4.7011      0.00000
     27       4.8829      0.00000
     28       5.3069      0.00000
     29       5.7469      0.00000
     30       6.5143      0.00000
     31       6.6864      0.00000
     32       7.3373      0.00000

 k-point     3 :       0.3333    0.0000    0.0000
  band No.  band energies     occupation 
      1     -11.0006      2.00000
      2     -10.8365      2.00000
      3     -10.2834      2.00000
      4     -10.1785      2.00000
      5      -6.2288      2.00000
      6      -5.8323      2.00000
      7      -5.2220      2.00000
      8      -4.9248      2.00000
      9      -1.6875      2.00000
     10      -1.2738      2.00000
     11      -1.0553      2.00000
     12      -0.6112      2.00000
     13      -0.2113      2.00000
     14      -0.1898      2.00000
     15       0.0488      2.00000
     16       0.4475      2.00000
     17       0.8102      2.00000
     18       1.0674      2.00000
     19       1.2017      2.00000
     20       1.2644      2.00000
     21       3.2945      0.00000
     22       3.6944      0.00000
     23       3.9927      0.00000
     24       4.4097      0.00000
     25       4.4924      0.00000
     26       4.7726      0.00000
     27       4.8763      0.00000
     28       5.3811      0.00000
     29       5.7904      0.00000
     30       6.0260      0.00000
     31       6.3870      0.00000
     32       6.9747      0.00000

 k-point     4 :       0.5000    0.0000    0.0000
  band No.  band energies     occupation 
      1     -10.5271      2.00000
      2     -10.5271      2.00000
      3     -10.4675      2.00000
      4     -10.4675      2.00000
      5      -6.0028      2.00000
      6      -6.0028      2.00000
      7      -5.6073      2.00000
      8      -5.6073      2.00000
      9      -1.2343      2.00000
     10      -1.2343      2.00000
     11      -0.6855      2.00000
     12      -0.6855      2.00000
     13      -0.1000      2.00000
     14      -0.1000      2.00000
     15       0.3324      2.00000
     16       0.3324      2.00000
     17       0.7043      2.00000
     18       0.7043      2.00000
     19       0.9509      2.00000
     20       0.9509      2.00000
     21       3.2874      0.00000
     22       3.2874      0.00000
     23       3.9951      0.00000
     24       3.9951      0.00000
     25       4.5913      0.00000
     26       4.5913      0.00000
     27       4.8560      0.00000
     28       4.8560      0.00000
     29       5.9869      0.00000
     30       5.9869      0.00000
     31       6.3794      0.00000
     32       6.3794      0.00000

 k-point     5 :       0.0000    0.1667    0.0000
  band No.  band energies     occupation 
      1     -11.4199      2.00000
      2     -11.2028      2.00000
      3     -10.4021      2.00000
      4     -10.1410      2.00000
      5      -5.9996      2.00000
      6      -5.4248      2.00000
      7      -4.3061      2.00000
      8      -3.9213      2.00000
      9      -2.0880      2.00000
     10      -1.1444      2.00000
     11      -0.8405      2.00000
     12      -0.7514      2.00000
     13      -0.5816      2.00000
     14      -0.2887      2.00000
     15       0.0086      2.00000
     16       0.4189      2.00000
     17       1.0790      2.00000
     18       1.1017      2.00000
     19       1.6079      2.00000
     20       1.7308      2.00000
     21       3.3537      0.00000
     22       3.6289      0.00000
     23       3.8866      0.00000
     24       3.9778      0.00000
     25       4.3774      0.00000
     26       4.6053      0.00000
     27       5.2174      0.00000
     28       5.5654      0.00000
     29       5.9664      0.00000
     30       6.6600      0.00000
     31       6.8403      0.00000
     32       7.2349      0.00000

 k-point     6 :       0.1667    0.1667    0.0000
  band No.  band energies     occupation 
      1     -11.2885      2.00000
      2     -11.0849      2.00000
      3     -10.3547      2.00000
      4     -10.1331      2.00000
      5      -6.0739      2.00000
      6      -5.5540      2.00000
      7      -4.5125      2.00000
      8      -4.3125      2.00000
      9      -1.9678      2.00000
     10      -1.6394      2.00000
     11      -1.3156      2.00000
     12      -0.7750      2.00000
     13      -0.1500      2.00000
     14      -0.0908      2.00000
     15       0.0312      2.00000
     16       0.1553      2.00000
     17       1.0694      2.00000
     18       1.1315      2.00000
     19       1.5242      2.00000
     20       1.6247      2.00000
     21       3.7305      0.00000
     22       3.7795      0.00000
     23       4.0894      0.00000
     24       4.1575      0.00000
     25       4.5965      0.00000
     26       4.6619      0.00000
     27       5.2496      0.00000
     28       5.4773      0.00000
     29       5.8815      0.00000
     30       6.4290      0.00000
     31       6.4421      0.00000
     32       7.2344      0.00000

 k-point     7 :       0.1667   -0.1667    0.0000
  band No.  band energies     occupation 
      1     -11.2885      2.00000
      2     -11.0849      2.00000
      3     -10.3547      2.00000
      4     -10.1331      2.00000
      5      -6.0739      2.00000
      6      -5.5540      2.00000
      7      -4.5125      2.00000
      8      -4.3125      2.00000
      9      -1.9678      2.00000
     10      -1.6394      2.00000
     11      -1.3156      2.00000
     12      -0.7750      2.00000
     13      -0.1500      2.00000
     14      -0.0908      2.00000
     15       0.0312      2.00000
     16       0.1553      2.00000
     17       1.0694      2.00000
     18       1.1315      2.00000
     19       1.5242      2.00000
     20       1.6247      2.00000
     21       3.7305      0.00000
     22       3.7795      0.00000
     23       4.0894      0.00000
     24       4.1575      0.00000
     25       4.5965      0.00000
     26       4.6619      0.00000
     27       5.2496      0.00000
     28       5.4773      0.00000
     29       5.8815      0.00000
     30       6.4290      0.00000
     31       6.4421      0.00000
     32       7.2344      0.00000

 k-point     8 :       0.3333    0.1667    0.0000
  band No.  band energies     occupation 
      1     -10.9354      2.00000
      2     -10.7798      2.00000
      3     -10.3059      2.00000
      4     -10.2038      2.00000
      5      -6.1729      2.00000
      6      -5.7580      2.00000
      7      -5.2326      2.00000
      8      -5.0231      2.00000
      9      -1.7499      2.00000
     10      -1.6110      2.00000
     11      -1.4289      2.00000
     12      -0.8548      2.00000
     13      -0.2801      2.00000
     14      -0.0705      2.00000
     15      -0.0028      2.00000
     16       0.2238      2.00000
     17       0.5593      2.00000
     18       1.1124      2.00000
     19       1.2502      2.00000
     20       1.2938      2.00000
     21       3.3341      0.00000
     22       3.9064      0.00000
     23       4.0651      0.00000
     24       4.4480      0.00000
     25       5.0562      0.00000
     26       5.1946      0.00000
     27       5.1989      0.00000
     28       5.7968      0.00000
     29       5.9385      0.00000
     30       6.2272      0.00000
     31       6.6867      0.00000
     32       6.8342      0.00000

 k-point     9 :       0.3333   -0.1667    0.0000
  band No.  band energies     occupation 
      1     -10.9354      2.00000
      2     -10.7798      2.00000
      3     -10.3059      2.00000
      4     -10.2038      2.00000
      5      -6.1729      2.00000
      6      -5.7580      2.00000
      7      -5.2326      2.00000
      8      -5.0231      2.00000
      9      -1.7499      2.00000
     10      -1.6110      2.00000
     11      -1.4289      2.00000
     12      -0.8548      2.00000
     13      -0.2801      2.00000
     14      -0.0705      2.00000
     15      -0.0028      2.00000
     16       0.2238      2.00000
     17       0.5593      2.00000
     18       1.1124      2.00000
     19       1.2502      2.00000
     20       1.2938      2.00000
     21       3.3341      0.00000
     22       3.9064      0.00000
     23       4.0651      0.00000
     24       4.4480      0.00000
     25       5.0562      0.00000
     26       5.1946      0.00000
     27       5.1989      0.00000
     28       5.7968      0.00000
     29       5.9385      0.00000
     30       6.2272      0.00000
     31       6.6867      0.00000
     32       6.8342      0.00000

 k-point    10 :       0.5000    0.1667    0.0000
  band No.  band energies     occupation 
      1     -10.5003      2.00000
      2     -10.5003      2.00000
      3     -10.4482      2.00000
      4     -10.4482      2.00000
      5      -5.9407      2.00000
      6      -5.9407      2.00000
      7      -5.6030      2.00000
      8      -5.6030      2.00000
      9      -1.4340      2.00000
     10      -1.4340      2.00000
     11      -0.9843      2.00000
     12      -0.9843      2.00000
     13      -0.5404      2.00000
     14      -0.5404      2.00000
     15      -0.0520      2.00000
     16      -0.0520      2.00000
     17       0.7631      2.00000
     18       0.7631      2.00000
     19       1.2764      2.00000
     20       1.2764      2.00000
     21       3.2945      0.00000
     22       3.2945      0.00000
     23       4.4069      0.00000
     24       4.4069      0.00000
     25       5.2288      0.00000
     26       5.2288      0.00000
     27       5.5831      0.00000
     28       5.5831      0.00000
     29       6.1847      0.00000
     30       6.1847      0.00000
     31       6.2804      0.00000
     32       6.2804      0.00000

 k-point    11 :       0.0000    0.3333    0.0000
  band No.  band energies     occupation 
      1     -11.1760      2.00000
      2     -10.9769      2.00000
      3     -10.5643      2.00000
      4     -10.3575      2.00000
      5      -6.0036      2.00000
      6      -5.2855      2.00000
      7      -5.0723      2.00000
      8      -4.4496      2.00000
      9      -1.6129      2.00000
     10      -0.8155      2.00000
     11      -0.5559      2.00000
     12      -0.5058      2.00000
     13      -0.0753      2.00000
     14       0.1204      2.00000
     15       0.1305      2.00000
     16       0.1817      2.00000
     17       0.6010      2.00000
     18       1.1778      2.00000
     19       1.3347      2.00000
     20       1.6784      2.00000
     21       2.7837      0.00000
     22       3.4659      0.00000
     23       3.4977      0.00000
     24       4.2042      0.00000
     25       4.2660      0.00000
     26       4.3390      0.00000
     27       5.0265      0.00000
     28       5.0583      0.00000
     29       5.9390      0.00000
     30       5.9817      0.00000
     31       6.4034      0.00000
     32       7.3911      0.00000

 k-point    12 :       0.1667    0.3333    0.0000
  band No.  band energies     occupation 
      1     -11.0607      2.00000
      2     -10.8761      2.00000
      3     -10.5015      2.00000
      4     -10.3199      2.00000
      5      -6.0075      2.00000
      6      -5.3627      2.00000
      7      -5.1279      2.00000
      8      -4.6536      2.00000
      9      -1.7261      2.00000
     10      -1.5550      2.00000
     11      -1.3375      2.00000
     12      -0.8885      2.00000
     13      -0.5427      2.00000
     14      -0.0726      2.00000
     15       0.2344      2.00000
     16       0.5479      2.00000
     17       1.0017      2.00000
     18       1.0436      2.00000
     19       1.3697      2.00000
     20       1.5852      2.00000
     21       3.3833      0.00000
     22       3.8040      0.00000
     23       3.8317      0.00000
     24       3.8567      0.00000
     25       4.6459      0.00000
     26       5.0605      0.00000
     27       5.2033      0.00000
     28       5.6784      0.00000
     29       5.9951      0.00000
     30       6.3220      0.00000
     31       6.3714      0.00000
     32       7.1634      0.00000

 k-point    13 :       0.1667   -0.3333    0.0000
  band No.  band energies     occupation 
      1     -11.0607      2.00000
      2     -10.8761      2.00000
      3     -10.5015      2.00000
      4     -10.3199      2.00000
      5      -6.0075      2.00000
      6      -5.3627      2.00000
      7      -5.1279      2.00000
      8      -4.6536      2.00000
      9      -1.7261      2.00000
     10      -1.5550      2.00000
     11      -1.3375      2.00000
     12      -0.8885      2.00000
     13      -0.5427      2.00000
     14      -0.0726      2.00000
     15       0.2344      2.00000
     16       0.5479      2.00000
     17       1.0017      2.00000
     18       1.0436      2.00000
     19       1.3697      2.00000
     20       1.5852      2.00000
     21       3.3833      0.00000
     22       3.8040      0.00000
     23       3.8317      0.00000
     24       3.8567      0.00000
     25       4.6459      0.00000
     26       5.0605      0.00000
     27       5.2033      0.00000
     28       5.6784      0.00000
     29       5.9951      0.00000
     30       6.3220      0.00000
     31       6.3714      0.00000
     32       7.1634      0.00000

 k-point    14 :       0.3333    0.3333    0.0000
  band No.  band energies     occupation 
      1     -10.7640      2.00000
      2     -10.6309      2.00000
      3     -10.3900      2.00000
      4     -10.2916      2.00000
      5      -6.0025      2.00000
      6      -5.5704      2.00000
      7      -5.3826      2.00000
      8      -5.2042      2.00000
      9      -2.1702      2.00000
     10      -1.7096      2.00000
     11      -1.6070      2.00000
     12      -1.3159      2.00000
     13      -0.8368      2.00000
     14      -0.4126      2.00000
     15      -0.3977      2.00000
     16       0.2385      2.00000
     17       0.3401      2.00000
     18       1.0109      2.00000
     19       1.3202      2.00000
     20       1.3420      2.00000
     21       3.3625      0.00000
     22       4.4663      0.00000
     23       4.8750      0.00000
     24       5.3113      0.00000
     25       5.4830      0.00000
     26       5.5710      0.00000
     27       5.7451      0.00000
     28       6.0437      0.00000
     29       6.2894      0.00000
     30       6.6864      0.00000
     31       6.7638      0.00000
     32       7.2480      0.00000

 k-point    15 :       0.3333   -0.3333    0.0000
  band No.  band energies     occupation 
      1     -10.7640      2.00000
      2     -10.6309      2.00000
      3     -10.3900      2.00000
      4     -10.2916      2.00000
      5      -6.0025      2.00000
      6      -5.5704      2.00000
      7      -5.3826      2.00000
      8      -5.2042      2.00000
      9      -2.1702      2.00000
     10      -1.7096      2.00000
     11      -1.6070      2.00000
     12      -1.3159      2.00000
     13      -0.8368      2.00000
     14      -0.4126      2.00000
     15      -0.3977      2.00000
     16       0.2385      2.00000
     17       0.3401      2.00000
     18       1.0109      2.00000
     19       1.3202      2.00000
     20       1.3420      2.00000
     21       3.3625      0.00000
     22       4.4663      0.00000
     23       4.8750      0.00000
     24       5.3113      0.00000
     25       5.4830      0.00000
     26       5.5710      0.00000
     27       5.7451      0.00000
     28       6.0437      0.00000
     29       6.2894      0.00000
     30       6.6864      0.00000
     31       6.7638      0.00000
     32       7.2480      0.00000

 k-point    16 :       0.5000    0.3333    0.0000
  band No.  band energies     occupation 
      1     -10.4425      2.00000
      2     -10.4425      2.00000
      3     -10.4115      2.00000
      4     -10.4115      2.00000
      5      -5.7987      2.00000
      6      -5.7987      2.00000
      7      -5.6097      2.00000
      8      -5.6097      2.00000
      9      -1.8342      2.00000
     10      -1.8342      2.00000
     11      -1.5089      2.00000
     12      -1.5089      2.00000
     13      -0.9377      2.00000
     14      -0.9377      2.00000
     15      -0.4659      2.00000
     16      -0.4659      2.00000
     17       0.6122      2.00000
     18       0.6122      2.00000
     19       1.1863      2.00000
     20       1.1863      2.00000
     21       4.1272      0.00000
     22       4.1272      0.00000
     23       5.3520      0.00000
     24       5.3520      0.00000
     25       5.7495      0.00000
     26       5.7495      0.00000
     27       6.2245      0.00000
     28       6.2245      0.00000
     29       6.5794      0.00000
     30       6.5794      0.00000
     31       7.2967      0.00000
     32       7.2967      0.00000

 k-point    17 :       0.0000    0.5000    0.0000
  band No.  band energies     occupation 
      1     -10.8510      2.00000
      2     -10.8510      2.00000
      3     -10.6664      2.00000
      4     -10.6664      2.00000
      5      -5.6986      2.00000
      6      -5.6986      2.00000
      7      -4.9594      2.00000
      8      -4.9594      2.00000
      9      -0.9606      2.00000
     10      -0.9606      2.00000
     11      -0.3824      2.00000
     12      -0.3824      2.00000
     13      -0.1830      2.00000
     14      -0.1830      2.00000
     15       0.5943      2.00000
     16       0.5943      2.00000
     17       0.7679      2.00000
     18       0.7679      2.00000
     19       1.2200      2.00000
     20       1.2200      2.00000
     21       2.9329      0.00000
     22       2.9329      0.00000
     23       3.8149      0.00000
     24       3.8149      0.00000
     25       4.4005      0.00000
     26       4.4005      0.00000
     27       4.9807      0.00000
     28       4.9807      0.00000
     29       5.2806      0.00000
     30       5.2806      0.00000
     31       7.2090      0.00000
     32       7.2090      0.00000

 k-point    18 :       0.1667    0.5000    0.0000
  band No.  band energies     occupation 
      1     -10.7616      2.00000
      2     -10.7616      2.00000
      3     -10.5938      2.00000
      4     -10.5938      2.00000
      5      -5.6904      2.00000
      6      -5.6904      2.00000
      7      -5.0507      2.00000
      8      -5.0507      2.00000
      9      -1.4626      2.00000
     10      -1.4626      2.00000
     11      -1.0202      2.00000
     12      -1.0202      2.00000
     13      -0.7621      2.00000
     14      -0.7621      2.00000
     15       0.5319      2.00000
     16       0.5319      2.00000
     17       1.1028      2.00000
     18       1.1028      2.00000
     19       1.4800      2.00000
     20       1.4800      2.00000
     21       3.3751      0.00000
     22       3.3751      0.00000
     23       3.7780      0.00000
     24       3.7780      0.00000
     25       5.0989      0.00000
     26       5.0989      0.00000
     27       5.4398      0.00000
     28       5.4398      0.00000
     29       5.8929      0.00000
     30       5.8929      0.00000
     31       6.9508      0.00000
     32       6.9508      0.00000

[...]
     32       6.6983      0.00000

 k-point    32 :       0.1667    0.3333    0.5000
  band No.  band energies     occupation 
      1     -10.9831      2.00000
      2     -10.9831      2.00000
      3     -10.3964      2.00000
      4     -10.3964      2.00000
      5      -5.7556      2.00000
      6      -5.7556      2.00000
      7      -4.8433      2.00000
      8      -4.8433      2.00000
      9      -1.6011      2.00000
     10      -1.6011      2.00000
     11      -1.0154      2.00000
     12      -1.0154      2.00000
     13      -0.4055      2.00000
     14      -0.4055      2.00000
     15       0.3699      2.00000
     16       0.3699      2.00000
     17       0.9961      2.00000
     18       0.9961      2.00000
     19       1.3734      2.00000
     20       1.3734      2.00000
     21       3.7009      0.00000
     22       3.7009      0.00000
     23       3.9560      0.00000
     24       3.9560      0.00000
     25       4.9845      0.00000
     26       4.9845      0.00000
     27       5.3467      0.00000
     28       5.3467      0.00000
     29       6.0658      0.00000
     30       6.0658      0.00000
     31       6.5536      0.00000
     32       6.5536      0.00000

 k-point    33 :       0.1667   -0.3333    0.5000
  band No.  band energies     occupation 
      1     -10.9831      2.00000
      2     -10.9831      2.00000
      3     -10.3964      2.00000
      4     -10.3964      2.00000
      5      -5.7556      2.00000
      6      -5.7556      2.00000
      7      -4.8433      2.00000
      8      -4.8433      2.00000
      9      -1.6011      2.00000
     10      -1.6011      2.00000
     11      -1.0154      2.00000
     12      -1.0154      2.00000
     13      -0.4055      2.00000
     14      -0.4055      2.00000
     15       0.3699      2.00000
     16       0.3699      2.00000
     17       0.9961      2.00000
     18       0.9961      2.00000
     19       1.3734      2.00000
     20       1.3734      2.00000
     21       3.7009      0.00000
     22       3.7009      0.00000
     23       3.9560      0.00000
     24       3.9560      0.00000
     25       4.9845      0.00000
     26       4.9845      0.00000
     27       5.3467      0.00000
     28       5.3467      0.00000
     29       6.0658      0.00000
     30       6.0658      0.00000
     31       6.5536      0.00000
     32       6.5536      0.00000

 k-point    34 :       0.3333    0.3333    0.5000
  band No.  band energies     occupation 
      1     -10.7069      2.00000
      2     -10.7069      2.00000
      3     -10.3315      2.00000
      4     -10.3315      2.00000
      5      -5.8210      2.00000
      6      -5.8210      2.00000
      7      -5.2679      2.00000
      8      -5.2679      2.00000
      9      -1.9776      2.00000
     10      -1.9776      2.00000
     11      -1.3095      2.00000
     12      -1.3095      2.00000
     13      -0.8004      2.00000
     14      -0.8004      2.00000
     15      -0.1700      2.00000
     16      -0.1700      2.00000
     17       0.7636      2.00000
     18       0.7636      2.00000
     19       1.3645      2.00000
     20       1.3645      2.00000
     21       4.2590      0.00000
     22       4.2590      0.00000
     23       4.9531      0.00000
     24       4.9531      0.00000
     25       5.2209      0.00000
     26       5.2209      0.00000
     27       5.8424      0.00000
     28       5.8424      0.00000
     29       6.2554      0.00000
     30       6.2554      0.00000
     31       7.1102      0.00000
     32       7.1102      0.00000

 k-point    35 :       0.3333   -0.3333    0.5000
  band No.  band energies     occupation 
      1     -10.7069      2.00000
      2     -10.7069      2.00000
      3     -10.3315      2.00000
      4     -10.3315      2.00000
      5      -5.8210      2.00000
      6      -5.8210      2.00000
      7      -5.2679      2.00000
      8      -5.2679      2.00000
      9      -1.9776      2.00000
     10      -1.9776      2.00000
     11      -1.3095      2.00000
     12      -1.3095      2.00000
     13      -0.8004      2.00000
     14      -0.8004      2.00000
     15      -0.1700      2.00000
     16      -0.1700      2.00000
     17       0.7636      2.00000
     18       0.7636      2.00000
     19       1.3645      2.00000
     20       1.3645      2.00000
     21       4.2590      0.00000
     22       4.2590      0.00000
     23       4.9531      0.00000
     24       4.9531      0.00000
     25       5.2209      0.00000
     26       5.2209      0.00000
     27       5.8424      0.00000
     28       5.8424      0.00000
     29       6.2554      0.00000
     30       6.2554      0.00000
     31       7.1102      0.00000
     32       7.1102      0.00000

 k-point    36 :       0.5000    0.3333    0.5000
  band No.  band energies     occupation 
      1     -10.4271      2.00000
      2     -10.4271      2.00000
      3     -10.4271      2.00000
      4     -10.4271      2.00000
      5      -5.7073      2.00000
      6      -5.7073      2.00000
      7      -5.7073      2.00000
      8      -5.7073      2.00000
      9      -1.5969      2.00000
     10      -1.5969      2.00000
     11      -1.5969      2.00000
     12      -1.5969      2.00000
     13      -0.8887      2.00000
     14      -0.8887      2.00000
     15      -0.8887      2.00000
     16      -0.8887      2.00000
     17       1.0441      2.00000
     18       1.0441      2.00000
     19       1.0441      2.00000
     20       1.0441      2.00000
     21       4.7383      0.00000
     22       4.7383      0.00000
     23       4.7383      0.00000
     24       4.7383      0.00000
     25       5.6520      0.00000
     26       5.6520      0.00000
     27       5.6520      0.00000
     28       5.6520      0.00000
     29       7.0288      0.00000
     30       7.0288      0.00000
     31       7.0288      0.00000
     32       7.0288      0.00000

 k-point    37 :       0.0000    0.5000    0.5000
  band No.  band energies     occupation 
      1     -10.8467      2.00000
      2     -10.8467      2.00000
      3     -10.6715      2.00000
      4     -10.6715      2.00000
      5      -5.6134      2.00000
      6      -5.6134      2.00000
      7      -5.0847      2.00000
      8      -5.0847      2.00000
      9      -0.4301      2.00000
     10      -0.4301      2.00000
     11      -0.3744      2.00000
     12      -0.3744      2.00000
     13      -0.1927      2.00000
     14      -0.1927      2.00000
     15      -0.1305      2.00000
     16      -0.1305      2.00000
     17       1.0343      2.00000
     18       1.0343      2.00000
     19       1.0399      2.00000
     20       1.0399      2.00000
     21       3.0852      0.00000
     22       3.0852      0.00000
     23       3.6158      0.00000
     24       3.6158      0.00000
     25       4.4712      0.00000
     26       4.4712      0.00000
     27       5.1793      0.00000
     28       5.1793      0.00000
     29       5.7146      0.00000
     30       5.7146      0.00000
     31       6.5279      0.00000
     32       6.5279      0.00000

 k-point    38 :       0.1667    0.5000    0.5000
  band No.  band energies     occupation 
      1     -10.7577      2.00000
      2     -10.7577      2.00000
      3     -10.5984      2.00000
      4     -10.5984      2.00000
      5      -5.6225      2.00000
      6      -5.6225      2.00000
      7      -5.1443      2.00000
      8      -5.1443      2.00000
      9      -1.3377      2.00000
     10      -1.3377      2.00000
     11      -1.2554      2.00000
     12      -1.2554      2.00000
     13      -0.1257      2.00000
     14      -0.1257      2.00000
     15      -0.0217      2.00000
     16      -0.0217      2.00000
     17       1.1379      2.00000
     18       1.1379      2.00000
     19       1.3075      2.00000
     20       1.3075      2.00000
     21       3.6707      0.00000
     22       3.6707      0.00000
     23       3.7950      0.00000
     24       3.7950      0.00000
     25       5.2737      0.00000
     26       5.2737      0.00000
     27       5.3476      0.00000
     28       5.3476      0.00000
     29       5.9576      0.00000
     30       5.9576      0.00000
     31       6.3820      0.00000
     32       6.3820      0.00000

 k-point    39 :       0.3333    0.5000    0.5000
  band No.  band energies     occupation 
      1     -10.5521      2.00000
      2     -10.5521      2.00000
      3     -10.4494      2.00000
      4     -10.4494      2.00000
      5      -5.6869      2.00000
      6      -5.6869      2.00000
      7      -5.3971      2.00000
      8      -5.3971      2.00000
      9      -1.8438      2.00000
     10      -1.8438      2.00000
     11      -1.8334      2.00000
     12      -1.8334      2.00000
     13      -0.6291      2.00000
     14      -0.6291      2.00000
     15      -0.5840      2.00000
     16      -0.5840      2.00000
     17       0.9742      2.00000
     18       0.9742      2.00000
     19       1.1605      2.00000
     20       1.1605      2.00000
     21       4.7428      0.00000
     22       4.7428      0.00000
     23       4.9852      0.00000
     24       4.9852      0.00000
     25       5.5498      0.00000
     26       5.5498      0.00000
     27       5.5695      0.00000
     28       5.5695      0.00000
     29       6.8173      0.00000
     30       6.8173      0.00000
     31       7.0692      0.00000
     32       7.0692      0.00000

 k-point    40 :       0.5000    0.5000    0.5000
  band No.  band energies     occupation 
      1     -10.4027      2.00000
      2     -10.4027      2.00000
      3     -10.4027      2.00000
      4     -10.4027      2.00000
      5      -5.6718      2.00000
      6      -5.6718      2.00000
      7      -5.6718      2.00000
      8      -5.6718      2.00000
      9      -1.6975      2.00000
     10      -1.6975      2.00000
     11      -1.6975      2.00000
     12      -1.6975      2.00000
     13      -1.2225      2.00000
     14      -1.2225      2.00000
     15      -1.2225      2.00000
     16      -1.2225      2.00000
     17       1.1056      2.00000
     18       1.1056      2.00000
     19       1.1056      2.00000
     20       1.1056      2.00000
     21       4.8018      0.00000
     22       4.8018      0.00000
     23       4.8018      0.00000
     24       4.8018      0.00000
     25       6.0754      0.00000
     26       6.0754      0.00000
     27       6.0754      0.00000
     28       6.0754      0.00000
     29       7.6779      0.00000
     30       7.6779      0.00000
     31       7.6779      0.00000
     32       7.6779      0.00000


--------------------------------------------------------------------------------------------------------


 soft charge-density along one line, spin component            1
         0         1         2         3         4         5         6         7         8         9
 total charge-density along one line
 
 pseudopotential strength for first ion, spin component:            1
 14.881  18.577   0.035   0.051  -0.000   0.063   0.092  -0.000
 18.577  23.207   0.044   0.065  -0.000   0.079   0.116  -0.000
  0.035   0.044   3.285  -0.001  -0.000   5.597  -0.002  -0.000
  0.051   0.065  -0.001   3.279  -0.000  -0.002   5.586  -0.000
 -0.000  -0.000  -0.000  -0.000   3.284  -0.000  -0.000   5.595
  0.063   0.079   5.597  -0.002  -0.000   9.594  -0.004  -0.000
  0.092   0.116  -0.002   5.586  -0.000  -0.004   9.576  -0.000
 -0.000  -0.000  -0.000  -0.000   5.595  -0.000  -0.000   9.592
 -0.000  -0.000  -0.000   0.000   0.005  -0.000   0.000   0.009
 -0.003  -0.003   0.013   0.011   0.000   0.024   0.020   0.000
 -0.007  -0.009  -0.002   0.013   0.000  -0.004   0.025   0.000
 -0.000  -0.000   0.000  -0.000   0.013   0.000  -0.000   0.024
 -0.001  -0.001  -0.011   0.000  -0.000  -0.019   0.000  -0.000
 total augmentation occupancy for first ion, spin component:            1
  2.520  -0.552   0.216   0.406  -0.000  -0.028  -0.070   0.000  -0.000  -0.022   0.009   0.000   0.015
 -0.552   0.567  -0.325  -0.532   0.000   0.045   0.080  -0.000   0.000   0.019  -0.007  -0.000  -0.015
  0.216  -0.325   1.017  -0.022  -0.000  -0.153   0.017   0.000  -0.000   0.048  -0.089   0.000   0.021
  0.406  -0.532  -0.022   1.330   0.000   0.017  -0.203  -0.000  -0.000  -0.045   0.109   0.000  -0.003
 -0.000   0.000  -0.000   0.000   1.105  -0.000  -0.000  -0.181   0.117   0.000   0.000   0.037  -0.000
 -0.028   0.045  -0.153   0.017  -0.000   0.026  -0.005   0.000   0.000  -0.008   0.014  -0.000  -0.003
 -0.070   0.080   0.017  -0.203  -0.000  -0.005   0.036   0.000  -0.000   0.007  -0.019  -0.000   0.001
  0.000  -0.000   0.000  -0.000  -0.181   0.000   0.000   0.033  -0.020  -0.000  -0.000  -0.006   0.000
 -0.000   0.000  -0.000  -0.000   0.117   0.000  -0.000  -0.020   0.021  -0.000   0.000   0.002  -0.000
 -0.022   0.019   0.048  -0.045   0.000  -0.008   0.007  -0.000  -0.000   0.012  -0.008   0.000   0.003
  0.009  -0.007  -0.089   0.109   0.000   0.014  -0.019  -0.000   0.000  -0.008   0.026  -0.000  -0.004
  0.000  -0.000   0.000   0.000   0.037  -0.000  -0.000  -0.006   0.002   0.000  -0.000   0.009   0.000
  0.015  -0.015   0.021  -0.003  -0.000  -0.003   0.001   0.000  -0.000   0.003  -0.004   0.000   0.007


------------------------ aborting loop because EDIFF is reached ----------------------------------------


    CHARGE:  cpu time      0.0041: real time      0.0041
    FORLOC:  cpu time      0.0002: real time      0.0002
    FORNL :  cpu time      0.0242: real time      0.0242
    STRESS:  cpu time      0.2126: real time      0.2133
    FORCOR:  cpu time      0.0036: real time      0.0036
    FORHAR:  cpu time      0.0009: real time      0.0009
    MIXING:  cpu time      0.0009: real time      0.0009
    OFIELD:  cpu time      0.0000: real time      0.0000

  FORCE on cell =-STRESS in cart. coord.  units (eV):
  Direction    XX          YY          ZZ          XY          YZ          ZX
  --------------------------------------------------------------------------------------
  Alpha Z    75.33088    75.33088    75.33088
  Ewald    -391.29847  -480.05874  -462.46752     0.00000     0.00000     0.00000
  Hartree    82.23566    49.81670    38.80169     0.00000    -0.00000     0.00000
  E(xc)    -139.38097  -139.74839  -140.16949     0.00000    -0.00000     0.00000
  Local    -240.37373  -127.30254  -137.21743    -0.00000     0.00000     0.00000
  n-local   237.01825   236.18334   241.24742    -0.00000    -0.00000    -0.00000
  augment   -11.25170   -11.91850   -12.33941     0.00000     0.00000    -0.00000
  Kinetic   380.18146   394.76646   395.94033    -0.00000     0.00000     0.00000
  Fock        0.00000     0.00000     0.00000     0.00000     0.00000     0.00000
  -------------------------------------------------------------------------------------
  Total      -7.53861    -2.93079    -0.87353    -0.00000     0.00000     0.00000
  in kB     -53.69668   -20.87570    -6.22203    -0.00000     0.00000     0.00000
  external pressure =      -26.93 kB  Pullay stress =        0.00 kB


 VOLUME and BASIS-vectors are now :
 -----------------------------------------------------------------------------
  energy-cutoff  :      360.00
  volume of cell :      224.93
      direct lattice vectors                 reciprocal lattice vectors
     4.250000000  0.000000000  0.000000000     0.235294118  0.000000000  0.000000000
     0.000000000  4.750000000  0.000000000     0.000000000  0.210526316  0.000000000
     0.000000000  0.000000000 11.142221000     0.000000000  0.000000000  0.089748713

  length of vectors
     4.250000000  4.750000000 11.142221000     0.235294118  0.210526316  0.089748713


 FORCES acting on ions
    electron-ion (+dipol)            ewald-force                    non-local-force                 convergence-correction
 -----------------------------------------------------------------------------------------------
   -.133E-06 0.120E+02 0.291E+02   0.694E-14 -.146E+02 -.324E+02   0.108E-06 0.260E+01 0.330E+01   0.605E-07 -.938E-04 -.235E-03
   -.283E-06 0.120E+02 -.291E+02   -.339E-15 -.146E+02 0.324E+02   0.167E-06 0.260E+01 -.330E+01   0.140E-06 -.938E-04 0.235E-03
   0.313E-06 -.120E+02 -.291E+02   -.500E-14 0.146E+02 0.324E+02   -.174E-06 -.260E+01 -.330E+01   -.172E-06 0.939E-04 0.235E-03
   0.565E-07 -.120E+02 0.291E+02   -.261E-14 0.146E+02 -.324E+02   -.478E-07 -.260E+01 0.330E+01   -.145E-07 0.938E-04 -.235E-03
   -.627E-07 -.107E+02 -.290E+02   0.284E-14 0.122E+02 0.310E+02   0.204E-06 -.148E+01 -.194E+01   -.982E-07 0.413E-04 0.456E-03
   -.393E-06 -.107E+02 0.290E+02   -.799E-14 0.122E+02 -.310E+02   0.304E-06 -.148E+01 0.194E+01   0.923E-07 0.414E-04 -.456E-03
   0.258E-06 0.107E+02 0.290E+02   0.368E-14 -.122E+02 -.310E+02   -.223E-06 0.148E+01 0.194E+01   -.390E-07 -.412E-04 -.456E-03
   -.232E-06 0.107E+02 -.290E+02   0.447E-14 -.122E+02 0.310E+02   -.883E-07 0.148E+01 -.194E+01   0.243E-06 -.415E-04 0.456E-03
 -----------------------------------------------------------------------------------------------
   -.477E-06 -.837E-07 0.177E-06   0.199E-14 -.533E-14 0.107E-13   0.249E-06 0.517E-07 -.246E-06   0.213E-06 0.613E-07 -.991E-08
 
 
 POSITION                                       TOTAL-FORCE (eV/Angst)
 -----------------------------------------------------------------------------------
      1.06250      0.54489      1.44737         0.000000      0.008037      0.027793
      3.18750      2.91989      4.12374         0.000000      0.008037     -0.027794
      3.18750      4.20511      9.69485        -0.000000     -0.008037     -0.027793
      1.06250      1.83011      7.01848        -0.000000     -0.008037      0.027794
      1.06250      4.55765      3.90196         0.000000      0.013834     -0.018458
      3.18750      2.18265      1.66915         0.000000      0.013835      0.018458
      3.18750      0.19235      7.24026        -0.000000     -0.013834      0.018458
      1.06250      2.56735      9.47307        -0.000000     -0.013835     -0.018458
 -----------------------------------------------------------------------------------
    total drift:                               -0.000000      0.000000     -0.000000


--------------------------------------------------------------------------------------------------------



  FREE ENERGIE OF THE ION-ELECTRON SYSTEM (eV)
  ---------------------------------------------------
  free  energy   TOTEN  =       -33.37609756 eV

  energy  without entropy=      -33.37609756  energy(sigma->0) =      -33.37609756
 


--------------------------------------------------------------------------------------------------------


    POTLOK:  cpu time      0.1132: real time      0.1139


--------------------------------------------------------------------------------------------------------


     LOOP+:  cpu time      5.1941: real time      5.2355
    4ORBIT:  cpu time      0.0000: real time      0.0000

 total amount of memory used by VASP MPI-rank0    40012. kBytes
=======================================================================

   base      :      30000. kBytes
   nonl-proj :       7839. kBytes
   fftplans  :        374. kBytes
   grid      :        555. kBytes
   one-center:         16. kBytes
   wavefun   :       1228. kBytes
 
  
  
 General timing and accounting informations for this job:
 ========================================================
  
                  Total CPU time used (sec):        5.965
                            User time (sec):        5.749
                          System time (sec):        0.216
                         Elapsed time (sec):        7.614
  
                   Maximum memory used (kb):      195152.
                   Average memory used (kb):          N/A
  
                          Minor page faults:        24890
                          Major page faults:           33
                 Voluntary context switches:         8950
