 running  128 mpi-ranks, with    1 threads/rank, on    2 nodes
 distrk:  each k-point on   64 cores,    2 groups
 distr:  one band on    4 cores,   16 groups
 vasp.6.4.2 20Jul23 (build Oct 12 2023 10:31:02) complex                         
 POSCAR found type information on POSCAR GeSe
 POSCAR found :  2 types and       8 ions
 Reading from existing POTCAR
 scaLAPACK will be used
 Reading from existing POTCAR
 LDA part: xc-table for Pade appr. of Perdew
 POSCAR, INCAR and KPOINTS ok, starting setup
 FFT: planning ... GRIDC
 FFT: planning ... GRID_SOFT
 FFT: planning ... GRID
 WAVECAR not read
 entering main loop
       N       E                     dE             d eps       ncg     rms          rms(c)
DAV:   1     0.124110373165E+03    0.12411E+03   -0.13209E+04  2560   0.789E+02
DAV:   2    -0.260357150145E+02   -0.15015E+03   -0.14547E+03  3776   0.142E+02
DAV:   3    -0.332144362574E+02   -0.71787E+01   -0.71641E+01  3120   0.354E+01
DAV:   4    -0.332544962912E+02   -0.40060E-01   -0.40053E-01  3312   0.299E+00
DAV:   5    -0.332547270087E+02   -0.23072E-03   -0.23071E-03  3104   0.217E-01    0.714E+00
DAV:   6    -0.329744508597E+02    0.28028E+00   -0.55056E-01  3280   0.251E+00    0.445E+00
DAV:   7    -0.329658694540E+02    0.85814E-02   -0.20367E-01  3328   0.161E+00    0.102E+00
DAV:   8    -0.329624748962E+02    0.33946E-02   -0.23958E-02  3072   0.574E-01    0.154E-01
DAV:   9    -0.329626789153E+02   -0.20402E-03   -0.23999E-03  3024   0.211E-01    0.510E-02
DAV:  10    -0.329627077625E+02   -0.28847E-04   -0.97587E-05  3312   0.411E-02    0.205E-02
DAV:  11    -0.329627230656E+02   -0.15303E-04   -0.22055E-05  3040   0.220E-02    0.697E-03
DAV:  12    -0.329627229030E+02    0.16255E-06   -0.19590E-06  2352   0.674E-03
   1 F= -.32962723E+02 E0= -.32962075E+02  d E =-.129495E-02
