 running  160 mpi-ranks, with    1 threads/rank, on   10 nodes
 distrk:  each k-point on   80 cores,    2 groups
 distr:  one band on    5 cores,   16 groups
 vasp.6.4.2 20Jul23 (build Oct 12 2023 10:31:02) complex                         
 POSCAR found type information on POSCAR GeSe
 POSCAR found :  2 types and       8 ions
 Reading from existing POTCAR
 scaLAPACK will be used
 Reading from existing POTCAR
 LDA part: xc-table for Pade appr. of Perdew
 POSCAR, INCAR and KPOINTS ok, starting setup
 FFT: planning ... GRIDC
 FFT: planning ... GRID_SOFT
 FFT: planning ... GRID
 WAVECAR not read
 entering main loop
       N       E                     dE             d eps       ncg     rms          rms(c)
DAV:   1     0.132681498519E+03    0.13268E+03   -0.12866E+04  2560   0.772E+02
DAV:   2    -0.252029605016E+02   -0.15788E+03   -0.15317E+03  3744   0.138E+02
DAV:   3    -0.341519232833E+02   -0.89490E+01   -0.89284E+01  3184   0.384E+01
DAV:   4    -0.342151396954E+02   -0.63216E-01   -0.63205E-01  3280   0.370E+00
DAV:   5    -0.342155622103E+02   -0.42251E-03   -0.42251E-03  3232   0.295E-01    0.644E+00
DAV:   6    -0.338149934203E+02    0.40057E+00   -0.81521E-01  3088   0.304E+00    0.404E+00
DAV:   7    -0.338051751244E+02    0.98183E-02   -0.24313E-01  3152   0.174E+00    0.131E+00
DAV:   8    -0.338037265812E+02    0.14485E-02   -0.25429E-02  3056   0.596E-01    0.179E-01
DAV:   9    -0.338040188578E+02   -0.29228E-03   -0.38691E-03  3168   0.268E-01    0.664E-02
DAV:  10    -0.338041325367E+02   -0.11368E-03   -0.31539E-04  3008   0.772E-02    0.242E-02
DAV:  11    -0.338041627292E+02   -0.30192E-04   -0.41201E-05  3088   0.293E-02    0.124E-02
DAV:  12    -0.338041631234E+02   -0.39417E-06   -0.61947E-06  3280   0.102E-02
   1 F= -.33804163E+02 E0= -.33804163E+02  d E =-.302343E-12
