 running  160 mpi-ranks, with    1 threads/rank, on   10 nodes
 distrk:  each k-point on   80 cores,    2 groups
 distr:  one band on    5 cores,   16 groups
 vasp.6.4.2 20Jul23 (build Oct 12 2023 10:31:02) complex                         
 POSCAR found type information on POSCAR GeSe
 POSCAR found :  2 types and       8 ions
 Reading from existing POTCAR
 scaLAPACK will be used
 Reading from existing POTCAR
 LDA part: xc-table for Pade appr. of Perdew
 POSCAR, INCAR and KPOINTS ok, starting setup
 FFT: planning ... GRIDC
 FFT: planning ... GRID_SOFT
 FFT: planning ... GRID
 WAVECAR not read
 entering main loop
       N       E                     dE             d eps       ncg     rms          rms(c)
DAV:   1     0.164053571362E+03    0.16405E+03   -0.15881E+04  2560   0.104E+03
DAV:   2    -0.224659063695E+02   -0.18652E+03   -0.18085E+03  3632   0.155E+02
DAV:   3    -0.338800716293E+02   -0.11414E+02   -0.11382E+02  3536   0.443E+01
DAV:   4    -0.339662719113E+02   -0.86200E-01   -0.86192E-01  3072   0.437E+00
DAV:   5    -0.339668006841E+02   -0.52877E-03   -0.52876E-03  3504   0.350E-01    0.647E+00
DAV:   6    -0.335979787028E+02    0.36882E+00   -0.76107E-01  3200   0.293E+00    0.407E+00
DAV:   7    -0.335846212222E+02    0.13357E-01   -0.21759E-01  2880   0.169E+00    0.128E+00
DAV:   8    -0.335833881301E+02    0.12331E-02   -0.19479E-02  2976   0.542E-01    0.181E-01
DAV:   9    -0.335837078766E+02   -0.31975E-03   -0.31164E-03  3184   0.249E-01    0.678E-02
DAV:  10    -0.335838030711E+02   -0.95195E-04   -0.26283E-04  3232   0.699E-02    0.243E-02
DAV:  11    -0.335838294636E+02   -0.26392E-04   -0.38420E-05  2896   0.282E-02    0.123E-02
DAV:  12    -0.335838303455E+02   -0.88191E-06   -0.54862E-06  3536   0.104E-02
   1 F= -.33583830E+02 E0= -.33583830E+02  d E =-.263715E-11
