 running  160 mpi-ranks, with    1 threads/rank, on   10 nodes
 distrk:  each k-point on   80 cores,    2 groups
 distr:  one band on    5 cores,   16 groups
 vasp.6.4.2 20Jul23 (build Oct 12 2023 10:31:02) complex                         
 POSCAR found type information on POSCAR GeSe
 POSCAR found :  2 types and       8 ions
 Reading from existing POTCAR
 scaLAPACK will be used
 Reading from existing POTCAR
 LDA part: xc-table for Pade appr. of Perdew
 POSCAR, INCAR and KPOINTS ok, starting setup
 FFT: planning ... GRIDC
 FFT: planning ... GRID_SOFT
 FFT: planning ... GRID
 WAVECAR not read
 entering main loop
       N       E                     dE             d eps       ncg     rms          rms(c)
DAV:   1     0.163295805516E+03    0.16330E+03   -0.15871E+04  2560   0.104E+03
DAV:   2    -0.223723817622E+02   -0.18567E+03   -0.18025E+03  3696   0.154E+02
DAV:   3    -0.338356920358E+02   -0.11463E+02   -0.11431E+02  3312   0.445E+01
DAV:   4    -0.339229155097E+02   -0.87223E-01   -0.87210E-01  3136   0.441E+00
DAV:   5    -0.339234438814E+02   -0.52837E-03   -0.52836E-03  3232   0.352E-01    0.655E+00
DAV:   6    -0.335379337011E+02    0.38551E+00   -0.78157E-01  3120   0.297E+00    0.410E+00
DAV:   7    -0.335242571973E+02    0.13677E-01   -0.23212E-01  3040   0.172E+00    0.130E+00
DAV:   8    -0.335230851859E+02    0.11720E-02   -0.22838E-02  3056   0.574E-01    0.175E-01
DAV:   9    -0.335233722043E+02   -0.28702E-03   -0.35066E-03  2976   0.260E-01    0.642E-02
DAV:  10    -0.335235007490E+02   -0.12854E-03   -0.32565E-04  3264   0.766E-02    0.232E-02
DAV:  11    -0.335235326102E+02   -0.31861E-04   -0.45758E-05  2816   0.299E-02    0.119E-02
DAV:  12    -0.335235335892E+02   -0.97904E-06   -0.72495E-06  3392   0.115E-02
   1 F= -.33523534E+02 E0= -.33523534E+02  d E =-.170954E-10
