 running  128 mpi-ranks, with    1 threads/rank, on    2 nodes
 distrk:  each k-point on   64 cores,    2 groups
 distr:  one band on    4 cores,   16 groups
 vasp.6.4.2 20Jul23 (build Oct 12 2023 10:31:02) complex                         
 POSCAR found type information on POSCAR GeSe
 POSCAR found :  2 types and       8 ions
 Reading from existing POTCAR
 scaLAPACK will be used
 Reading from existing POTCAR
 LDA part: xc-table for Pade appr. of Perdew
 POSCAR, INCAR and KPOINTS ok, starting setup
 FFT: planning ... GRIDC
 FFT: planning ... GRID_SOFT
 FFT: planning ... GRID
 WAVECAR not read
 entering main loop
       N       E                     dE             d eps       ncg     rms          rms(c)
DAV:   1     0.127467612831E+03    0.12747E+03   -0.13126E+04  2560   0.786E+02
DAV:   2    -0.261729698336E+02   -0.15364E+03   -0.14948E+03  3792   0.140E+02
DAV:   3    -0.338672536964E+02   -0.76943E+01   -0.76812E+01  3136   0.363E+01
DAV:   4    -0.339135464064E+02   -0.46293E-01   -0.46282E-01  3312   0.320E+00
DAV:   5    -0.339138196783E+02   -0.27327E-03   -0.27325E-03  3040   0.240E-01    0.683E+00
DAV:   6    -0.335825433910E+02    0.33128E+00   -0.63862E-01  3264   0.275E+00    0.428E+00
DAV:   7    -0.335775820546E+02    0.49613E-02   -0.23746E-01  3360   0.172E+00    0.113E+00
DAV:   8    -0.335737898621E+02    0.37922E-02   -0.31515E-02  3168   0.657E-01    0.167E-01
DAV:   9    -0.335740324582E+02   -0.24260E-03   -0.33194E-03  3152   0.257E-01    0.606E-02
DAV:  10    -0.335740487889E+02   -0.16331E-04   -0.15644E-04  3216   0.571E-02    0.229E-02
DAV:  11    -0.335740699295E+02   -0.21141E-04   -0.36047E-05  3024   0.276E-02    0.936E-03
DAV:  12    -0.335740697815E+02    0.14805E-06   -0.46566E-06  3248   0.845E-03
   1 F= -.33574070E+02 E0= -.33574030E+02  d E =-.790517E-04
