 vasp.6.4.2 20Jul23 (build Oct 12 2023 10:31:02) complex                         
 executed on              LinuxNV date 2025.05.28  13:22:38
 running  128 mpi-ranks, with    1 threads/rank, on    2 nodes
 distrk:  each k-point on   64 cores,    2 groups
 distr:  one band on NCORE=   4 cores,   16 groups


--------------------------------------------------------------------------------------------------------


 INCAR:
   ENCUT = 360.000000
   SIGMA = 0.050000
   EDIFF = 1.00e-06
   ALGO = Normal
   GGA = PE
   PREC = Normal
   SYSTEM = ./
   ICHARG = 2
   ISMEAR = 0
   ISPIN = 1
   ISTART = 0
   ISYM = 0
   KPAR = 2
   LMAXMIX = 4
   NELM = 100
   NPAR = 16
   LASPH = .TRUE.
   LCHARG = .FALSE.
   LWAVE = .FALSE.

 POTCAR:    PAW_PBE Ge 05Jan2001                  
 POTCAR:    PAW_PBE Se 06Sep2000                  
 POTCAR:    PAW_PBE Ge 05Jan2001                  
   VRHFIN =Ge: s2p2                                                                                 
   LEXCH  = PE                                                                                      
   EATOM  =   104.9960 eV,    7.7170 Ry                                                             
                                                                                                    
   TITEL  = PAW_PBE Ge 05Jan2001                                                                    
   LULTRA =        F    use ultrasoft PP ?                                                          
   IUNSCR =        1    unscreen: 0-lin 1-nonlin 2-no                                               
   RPACOR =    2.170    partial core radius                                                         
   POMASS =   72.610; ZVAL   =    4.000    mass and valenz                                          
   RCORE  =    2.300    outmost cutoff radius                                                       
   RWIGS  =    2.300; RWIGS  =    1.217    wigner-seitz radius (au A)                               
   ENMAX  =  173.807; ENMIN  =  130.355 eV                                                          
   ICORE  =        3    local potential                                                             
   LCOR   =        T    correct aug charges                                                         
   LPAW   =        T    paw PP                                                                      
   EAUG   =  385.843                                                                                
   DEXC   =    0.000                                                                                
   RMAX   =    2.342    core radius for proj-oper                                                   
   RAUG   =    1.300    factor for augmentation sphere                                              
   RDEP   =    2.318    radius for radial grids                                                     
   RDEPT  =    2.103    core radius for aug-charge                                                  
                                                                                                    
   Atomic configuration                                                                             
   10 entries                                                                                       
     n  l   j            E        occ.                                                              
     1  0  0.50    -10959.8463   2.0000                                                             
     2  0  0.50     -1371.6056   2.0000                                                             
     2  1  1.50     -1198.4791   6.0000                                                             
     3  0  0.50      -168.4733   2.0000                                                             
     3  1  1.50      -115.6019   6.0000                                                             
     3  2  2.50       -29.3106  10.0000                                                             
     4  0  0.50       -11.7309   2.0000                                                             
     4  1  0.50        -3.8952   2.0000                                                             
     4  2  1.50        -4.0817   0.0000                                                             
     4  3  2.50        -4.0817   0.0000                                                             
   Description                                                                                      
     l       E           TYP  RCUT    TYP  RCUT                                                     
     0    -11.7309493     23  2.300                                                                 
     0     -7.4578696     23  2.300                                                                 
     1     -3.8952261     23  2.300                                                                 
     1      6.1178114     23  2.300                                                                 
     2     -4.0817478     23  2.300                                                                 
     3     -1.3605826      7  2.300                                                                 
  local pseudopotential read in
  partial core-charges read in
  partial kinetic energy density read in
  atomic valenz-charges read in
  non local Contribution for L=            0  read in
    real space projection operators read in
  non local Contribution for L=            0  read in
    real space projection operators read in
  non local Contribution for L=            1  read in
    real space projection operators read in
  non local Contribution for L=            1  read in
    real space projection operators read in
  non local Contribution for L=            2  read in
    real space projection operators read in
    PAW grid and wavefunctions read in
 
   number of l-projection  operators is LMAX  =            5
   number of lm-projection operators is LMMAX =           13
 
 POTCAR:    PAW_PBE Se 06Sep2000                  
   VRHFIN =Se: s2p4                                                                                 
   LEXCH  = PE                                                                                      
   EATOM  =   257.1286 eV,   18.8984 Ry                                                             
                                                                                                    
   TITEL  = PAW_PBE Se 06Sep2000                                                                    
   LULTRA =        F    use ultrasoft PP ?                                                          
   IUNSCR =        1    unscreen: 0-lin 1-nonlin 2-no                                               
   RPACOR =    1.900    partial core radius                                                         
   POMASS =   78.960; ZVAL   =    6.000    mass and valenz                                          
   RCORE  =    2.100    outmost cutoff radius                                                       
   RWIGS  =    2.200; RWIGS  =    1.164    wigner-seitz radius (au A)                               
   ENMAX  =  211.555; ENMIN  =  158.666 eV                                                          
   ICORE  =        3    local potential                                                             
   LCOR   =        T    correct aug charges                                                         
   LPAW   =        T    paw PP                                                                      
   EAUG   =  446.842                                                                                
   DEXC   =    0.000                                                                                
   RMAX   =    2.147    core radius for proj-oper                                                   
   RAUG   =    1.300    factor for augmentation sphere                                              
   RDEP   =    2.177    radius for radial grids                                                     
   RDEPT  =    1.928    core radius for aug-charge                                                  
                                                                                                    
   Atomic configuration                                                                             
   10 entries                                                                                       
     n  l   j            E        occ.                                                              
     1  0  0.50    -12503.4787   2.0000                                                             
     2  0  0.50     -1606.9547   2.0000                                                             
     2  1  1.50     -1413.3140   6.0000                                                             
     3  0  0.50      -213.4885   2.0000                                                             
     3  1  1.50      -152.9538   6.0000                                                             
     3  2  2.50       -53.1221  10.0000                                                             
     4  0  0.50       -17.2865   2.0000                                                             
     4  1  0.50        -6.5110   4.0000                                                             
     4  2  2.50        -6.8029   0.0000                                                             
     4  3  2.50        -6.8029   0.0000                                                             
   Description                                                                                      
     l       E           TYP  RCUT    TYP  RCUT                                                     
     0    -17.2865377     23  2.100                                                                 
     0    -15.3094411     23  2.100                                                                 
     1     -6.5110275     23  2.100                                                                 
     1     -0.0695192     23  2.100                                                                 
     2     -6.8029130     23  2.100                                                                 
     3     -1.3605826      7  2.100                                                                 
  local pseudopotential read in
  partial core-charges read in
  partial kinetic energy density read in
  atomic valenz-charges read in
  non local Contribution for L=            0  read in
    real space projection operators read in
  non local Contribution for L=            0  read in
    real space projection operators read in
  non local Contribution for L=            1  read in
    real space projection operators read in
  non local Contribution for L=            1  read in
    real space projection operators read in
  non local Contribution for L=            2  read in
    real space projection operators read in
    PAW grid and wavefunctions read in
 
   number of l-projection  operators is LMAX  =            5
   number of lm-projection operators is LMMAX =           13
 
  PAW_PBE Ge 05Jan2001                  :
 energy of atom  1       EATOM= -104.9960
 kinetic energy error for atom=    0.0005 (will be added to EATOM!!)
  PAW_PBE Se 06Sep2000                  :
 energy of atom  2       EATOM= -257.1286
 kinetic energy error for atom=    0.0030 (will be added to EATOM!!)
 
 
 POSCAR: Ge Se
  positions in cartesian coordinates
  No initial velocities read in
 exchange correlation table for  LEXCH =        8
   RHO(1)=    0.500       N(1)  =     2000
   RHO(2)=  100.500       N(2)  =     4000
 


--------------------------------------------------------------------------------------------------------


 ion  position               nearest neighbor table
   1  0.108  0.250  0.124-   6 2.59   6 2.59   5 2.60
   2  0.608  0.750  0.376-   5 2.59   5 2.59   6 2.60
   3  0.892  0.750  0.876-   8 2.59   8 2.59   7 2.60
   4  0.392  0.250  0.624-   7 2.59   7 2.59   8 2.60
   5  0.995  0.250  0.353-   2 2.59   2 2.59   1 2.60
   6  0.495  0.750  0.147-   1 2.59   1 2.59   2 2.60
   7  0.005  0.750  0.647-   4 2.59   4 2.59   3 2.60
   8  0.505  0.250  0.853-   3 2.59   3 2.59   4 2.60
 

IMPORTANT INFORMATION: All symmetrisations will be switched off!
NOSYMM: (Re-)initialisation of all symmetry stuff for point group C_1.


----------------------------------------------------------------------------------------

                                     Primitive cell                                     

  volume of cell :     190.8941

  direct lattice vectors                    reciprocal lattice vectors
     4.450000000  0.000000000  0.000000000     0.224719101  0.000000000  0.000000000
     0.000000000  3.850000000  0.000000000     0.000000000  0.259740260  0.000000000
     0.000000000  0.000000000 11.142221000     0.000000000  0.000000000  0.089748713

  length of vectors
     4.450000000  3.850000000 11.142221000     0.224719101  0.259740260  0.089748713

  position of ions in fractional coordinates (direct lattice)
     0.108416962  0.250000000  0.124415772
     0.608416962  0.750000000  0.375584228
     0.891583038  0.750000000  0.875584228
     0.391583038  0.250000000  0.624415772
     0.995099909  0.250000000  0.352933269
     0.495099909  0.750000000  0.147066731
     0.004900091  0.750000000  0.647066731
     0.504900091  0.250000000  0.852933269

  ion indices of the primitive-cell ions
   primitive index   ion index
                 1           1
                 2           2
                 3           3
                 4           4
                 5           5
                 6           6
                 7           7
                 8           8

----------------------------------------------------------------------------------------

 
 
 KPOINTS: KPOINTS created by Atomic Simulation Env

Automatic generation of k-mesh.
 Grid dimensions read from file:
 generate k-points for:    6    6    2

 Generating k-lattice:

  Cartesian coordinates                     Fractional coordinates (reciprocal lattice)
     0.037453184  0.000000000  0.000000000     0.166666667  0.000000000  0.000000000
     0.000000000  0.043290043  0.000000000     0.000000000  0.166666667  0.000000000
     0.000000000  0.000000000  0.044874357     0.000000000  0.000000000  0.500000000

  Length of vectors
     0.037453184  0.043290043  0.044874357

  Shift w.r.t. Gamma in fractional coordinates (k-lattice)
     0.000000000  0.000000000  0.000000000

 
 Subroutine IBZKPT returns following result:
 ===========================================
 
 Found     40 irreducible k-points:
 
 Following reciprocal coordinates:
            Coordinates               Weight
  0.000000  0.000000  0.000000      1.000000
  0.166667  0.000000  0.000000      2.000000
  0.333333  0.000000  0.000000      2.000000
  0.500000  0.000000  0.000000      1.000000
  0.000000  0.166667  0.000000      2.000000
  0.166667  0.166667  0.000000      2.000000
 -0.166667  0.166667  0.000000      2.000000
  0.333333  0.166667  0.000000      2.000000
 -0.333333  0.166667  0.000000      2.000000
  0.500000  0.166667  0.000000      2.000000
  0.000000  0.333333  0.000000      2.000000
  0.166667  0.333333  0.000000      2.000000
 -0.166667  0.333333  0.000000      2.000000
  0.333333  0.333333  0.000000      2.000000
 -0.333333  0.333333  0.000000      2.000000
  0.500000  0.333333  0.000000      2.000000
  0.000000  0.500000  0.000000      1.000000
  0.166667  0.500000  0.000000      2.000000
  0.333333  0.500000  0.000000      2.000000
  0.500000  0.500000  0.000000      1.000000
  0.000000  0.000000  0.500000      1.000000
  0.166667  0.000000  0.500000      2.000000
  0.333333  0.000000  0.500000      2.000000
  0.500000  0.000000  0.500000      1.000000
  0.000000  0.166667  0.500000      2.000000
  0.166667  0.166667  0.500000      2.000000
 -0.166667  0.166667  0.500000      2.000000
  0.333333  0.166667  0.500000      2.000000
 -0.333333  0.166667  0.500000      2.000000
  0.500000  0.166667  0.500000      2.000000
  0.000000  0.333333  0.500000      2.000000
  0.166667  0.333333  0.500000      2.000000
 -0.166667  0.333333  0.500000      2.000000
  0.333333  0.333333  0.500000      2.000000
 -0.333333  0.333333  0.500000      2.000000
  0.500000  0.333333  0.500000      2.000000
  0.000000  0.500000  0.500000      1.000000
  0.166667  0.500000  0.500000      2.000000
  0.333333  0.500000  0.500000      2.000000
  0.500000  0.500000  0.500000      1.000000
 
 Following cartesian coordinates:
            Coordinates               Weight
  0.000000  0.000000  0.000000      1.000000
  0.037453  0.000000  0.000000      2.000000
  0.074906  0.000000  0.000000      2.000000
  0.112360  0.000000  0.000000      1.000000
  0.000000  0.043290  0.000000      2.000000
  0.037453  0.043290  0.000000      2.000000
 -0.037453  0.043290  0.000000      2.000000
  0.074906  0.043290  0.000000      2.000000
 -0.074906  0.043290  0.000000      2.000000
  0.112360  0.043290  0.000000      2.000000
  0.000000  0.086580  0.000000      2.000000
  0.037453  0.086580  0.000000      2.000000
 -0.037453  0.086580  0.000000      2.000000
  0.074906  0.086580  0.000000      2.000000
 -0.074906  0.086580  0.000000      2.000000
  0.112360  0.086580  0.000000      2.000000
  0.000000  0.129870  0.000000      1.000000
  0.037453  0.129870  0.000000      2.000000
  0.074906  0.129870  0.000000      2.000000
  0.112360  0.129870  0.000000      1.000000
  0.000000  0.000000  0.044874      1.000000
  0.037453  0.000000  0.044874      2.000000
  0.074906  0.000000  0.044874      2.000000
  0.112360  0.000000  0.044874      1.000000
  0.000000  0.043290  0.044874      2.000000
  0.037453  0.043290  0.044874      2.000000
 -0.037453  0.043290  0.044874      2.000000
  0.074906  0.043290  0.044874      2.000000
 -0.074906  0.043290  0.044874      2.000000
  0.112360  0.043290  0.044874      2.000000
  0.000000  0.086580  0.044874      2.000000
  0.037453  0.086580  0.044874      2.000000
 -0.037453  0.086580  0.044874      2.000000
  0.074906  0.086580  0.044874      2.000000
 -0.074906  0.086580  0.044874      2.000000
  0.112360  0.086580  0.044874      2.000000
  0.000000  0.129870  0.044874      1.000000
  0.037453  0.129870  0.044874      2.000000
  0.074906  0.129870  0.044874      2.000000
  0.112360  0.129870  0.044874      1.000000
 


--------------------------------------------------------------------------------------------------------




 Dimension of arrays:
   k-points           NKPTS =     40   k-points in BZ     NKDIM =     40   number of bands    NBANDS=     32
   number of dos      NEDOS =    301   number of ions     NIONS =      8
   non local maximal  LDIM  =      5   non local SUM 2l+1 LMDIM =     13
   total plane-waves  NPLWV =  23328
   max r-space proj   IRMAX =      1   max aug-charges    IRDMAX=   6841
   dimension x,y,z NGX =    24 NGY =   18 NGZ =   54
   dimension x,y,z NGXF=    48 NGYF=   36 NGZF=  108
   support grid    NGXF=    48 NGYF=   36 NGZF=  108
   ions per type =               4   4
   NGX,Y,Z   is equivalent  to a cutoff of   8.97,  7.77,  8.06 a.u.
   NGXF,Y,Z  is equivalent  to a cutoff of  17.93, 15.55, 16.11 a.u.

 SYSTEM =  ./                                      
 POSCAR =  Ge Se                                   

 Startparameter for this run:
   NWRITE =      2    write-flag & timer
   PREC   = normal    normal or accurate (medium, high low for compatibility)
   ISTART =      0    job   : 0-new  1-cont  2-samecut
   ICHARG =      2    charge: 1-file 2-atom 10-const
   ISPIN  =      1    spin polarized calculation?
   LNONCOLLINEAR =      F non collinear calculations
   LSORBIT =      F    spin-orbit coupling
   INIWAV =      1    electr: 0-lowe 1-rand  2-diag
   LASPH  =      T    aspherical Exc in radial PAW
 Electronic Relaxation 1
   ENCUT  =  360.0 eV  26.46 Ry    5.14 a.u.   6.88  5.96 17.24*2*pi/ulx,y,z
   ENINI  =  360.0     initial cutoff
   ENAUG  =  446.8 eV  augmentation charge cutoff
   NELM   =    100;   NELMIN=  2; NELMDL= -5     # of ELM steps 
   EDIFF  = 0.1E-05   stopping-criterion for ELM
   LREAL  =      F    real-space projection
   NLSPLINE    = F    spline interpolate recip. space projectors
   LCOMPAT=      F    compatible to vasp.4.4
   GGA_COMPAT  = T    GGA compatible to vasp.4.4-vasp.4.6
   LMAXPAW     = -100 max onsite density
   LMAXMIX     =    4 max onsite mixed and CHGCAR
   VOSKOWN=      0    Vosko Wilk Nusair interpolation
   ROPT   =    0.00000   0.00000
 Ionic relaxation
   EDIFFG = 0.1E-04   stopping-criterion for IOM
   NSW    =      0    number of steps for IOM
   NBLOCK =      1;   KBLOCK =      1    inner block; outer block 
   IBRION =     -1    ionic relax: 0-MD 1-quasi-New 2-CG
   NFREE  =      0    steps in history (QN), initial steepest desc. (CG)
   ISIF   =      2    stress and relaxation
   IWAVPR =     10    prediction:  0-non 1-charg 2-wave 3-comb
   ISYM   =      0    0-nonsym 1-usesym 2-fastsym
   LCORR  =      T    Harris-Foulkes like correction to forces

   POTIM  = 0.5000    time-step for ionic-motion
   TEIN   =    0.0    initial temperature
   TEBEG  =    0.0;   TEEND  =   0.0 temperature during run
   SMASS  =  -3.00    Nose mass-parameter (am)
   estimated Nose-frequenzy (Omega)   =  0.10E-29 period in steps = 0.13E+47 mass=  -0.453E-27a.u.
   SCALEE = 1.0000    scale energy and forces
   NPACO  =    256;   APACO  = 10.0  distance and # of slots for P.C.
   PSTRESS=    0.0 pullay stress

  Mass of Ions in am
   POMASS =  72.61 78.96
  Ionic Valenz
   ZVAL   =   4.00  6.00
  Atomic Wigner-Seitz radii
   RWIGS  =  -1.00 -1.00
  virtual crystal weights 
   VCA    =   1.00  1.00
   NELECT =      40.0000    total number of electrons
   NUPDOWN=      -1.0000    fix difference up-down

 DOS related values:
   EMIN   =  10.00;   EMAX   =-10.00  energy-range for DOS
   EFERMI =   0.00;   METHOD = LEGACY      
   ISMEAR =     0;   SIGMA  =   0.05  broadening in eV -4-tet -1-fermi 0-gaus

 Electronic relaxation 2 (details)
   IALGO  =     38    algorithm
   LDIAG  =      T    sub-space diagonalisation (order eigenvalues)
   LSUBROT=      F    optimize rotation matrix (better conditioning)
   TURBO    =      0    0=normal 1=particle mesh
   IRESTART =      0    0=no restart 2=restart with 2 vectors
   NREBOOT  =      0    no. of reboots
   NMIN     =      0    reboot dimension
   EREF     =   0.00    reference energy to select bands
   IMIX   =      4    mixing-type and parameters
     AMIX     =   0.40;   BMIX     =  1.00
     AMIX_MAG =   1.60;   BMIX_MAG =  1.00
     AMIN     =   0.10
     WC   =   100.;   INIMIX=   1;  MIXPRE=   1;  MAXMIX= -45

 Intra band minimization:
   WEIMIN = 0.0000     energy-eigenvalue tresh-hold
   EBREAK =  0.78E-08  absolut break condition
   DEPER  =   0.30     relativ break condition  

   TIME   =   0.40     timestep for ELM

  volume/ion in A,a.u.               =      23.86       161.03
  Fermi-wavevector in a.u.,A,eV,Ry     =   0.972368  1.837509 12.864302  0.945500
  Thomas-Fermi vector in A             =   2.102661
 
 Write flags
   LWAVE        =      F    write WAVECAR
   LDOWNSAMPLE  =      F    k-point downsampling of WAVECAR
   LCHARG       =      F    write CHGCAR
   LVTOT        =      F    write LOCPOT, total local potential
   LVHAR        =      F    write LOCPOT, Hartree potential only
   LELF         =      F    write electronic localiz. function (ELF)
   LORBIT       =      0    0 simple, 1 ext, 2 COOP (PROOUT), +10 PAW based schemes


 Dipole corrections
   LMONO  =      F    monopole corrections only (constant potential shift)
   LDIPOL =      F    correct potential (dipole corrections)
   IDIPOL =      0    1-x, 2-y, 3-z, 4-all directions 
   EPSILON=  1.0000000 bulk dielectric constant

 Exchange correlation treatment:
   GGA     =    PE    GGA type
   LEXCH   =     8    internal setting for exchange type
   LIBXC   =     F    Libxc                    
   VOSKOWN =     0    Vosko Wilk Nusair interpolation
   LHFCALC =     F    Hartree Fock is set to
   LHFONE  =     F    Hartree Fock one center treatment
   AEXX    =    0.0000 exact exchange contribution

 Linear response parameters
   LEPSILON=     F    determine dielectric tensor
   LRPA    =     F    only Hartree local field effects (RPA)
   LNABLA  =     F    use nabla operator in PAW spheres
   LVEL    =     F    velocity operator in full k-point grid
   CSHIFT  =0.1000    complex shift for real part using Kramers Kronig
   OMEGAMAX=  -1.0    maximum frequency
   DEG_THRESHOLD= 0.2000000E-02 threshold for treating states as degnerate
   RTIME   =   -0.100 relaxation time in fs
  (WPLASMAI=    0.000 imaginary part of plasma frequency in eV, 0.658/RTIME)
   DFIELD  = 0.0000000 0.0000000 0.0000000 field for delta impulse in time
 
  Optional k-point grid parameters
   LKPOINTS_OPT  =     F    use optional k-point grid
   KPOINTS_OPT_MODE=     1    mode for optional k-point grid
 
 Orbital magnetization related:
   ORBITALMAG=     F  switch on orbital magnetization
   LCHIMAG   =     F  perturbation theory with respect to B field
   DQ        =  0.001000  dq finite difference perturbation B field
   LLRAUG    =     F  two centre corrections for induced B field
   LBONE     =     F  B-component reconstruction in AE one-centre
   LVGVCALC  =     T  calculate vGv susceptibility
   LVGVAPPL  =     F  apply vGv susceptibility instead of pGv for G=0

 Random number generation:
   RANDOM_GENERATOR = DEFAULT
   PCG_SEED         = not used


--------------------------------------------------------------------------------------------------------


 Static calculation
 charge density and potential will be updated during run
 non-spin polarized calculation
 Variant of blocked Davidson
 Davidson routine will perform the subspace rotation
 perform sub-space diagonalisation
    after iterative eigenvector-optimisation
 modified Broyden-mixing scheme, WC =      100.0
 initial mixing is a Kerker type mixing with AMIX =  0.4000 and BMIX =      1.0000
 Hartree-type preconditioning will be used
 using additional bands            12
 reciprocal scheme for non local part
 use partial core corrections
 calculate Harris-corrections to forces 
   (improved forces if not selfconsistent)
 use gradient corrections 
 use of overlap-Matrix (Vanderbilt PP)
 Gauss-broadening in eV      SIGMA  =   0.05


--------------------------------------------------------------------------------------------------------


  energy-cutoff  :      360.00
  volume of cell :      190.89
      direct lattice vectors                 reciprocal lattice vectors
     4.450000000  0.000000000  0.000000000     0.224719101  0.000000000  0.000000000
     0.000000000  3.850000000  0.000000000     0.000000000  0.259740260  0.000000000
     0.000000000  0.000000000 11.142221000     0.000000000  0.000000000  0.089748713

  length of vectors
     4.450000000  3.850000000 11.142221000     0.224719101  0.259740260  0.089748713


 
 k-points in units of 2pi/SCALE and weight: KPOINTS created by Atomic Simulation Env
   0.00000000  0.00000000  0.00000000       0.014
   0.03745318  0.00000000  0.00000000       0.028
   0.07490637  0.00000000  0.00000000       0.028
   0.11235955  0.00000000  0.00000000       0.014
   0.00000000  0.04329004  0.00000000       0.028
   0.03745318  0.04329004  0.00000000       0.028
  -0.03745318  0.04329004  0.00000000       0.028
   0.07490637  0.04329004  0.00000000       0.028
  -0.07490637  0.04329004  0.00000000       0.028
   0.11235955  0.04329004  0.00000000       0.028
   0.00000000  0.08658009  0.00000000       0.028
   0.03745318  0.08658009  0.00000000       0.028
  -0.03745318  0.08658009  0.00000000       0.028
   0.07490637  0.08658009  0.00000000       0.028
  -0.07490637  0.08658009  0.00000000       0.028
   0.11235955  0.08658009  0.00000000       0.028
   0.00000000  0.12987013  0.00000000       0.014
   0.03745318  0.12987013  0.00000000       0.028
   0.07490637  0.12987013  0.00000000       0.028
   0.11235955  0.12987013  0.00000000       0.014
   0.00000000  0.00000000  0.04487436       0.014
   0.03745318  0.00000000  0.04487436       0.028
   0.07490637  0.00000000  0.04487436       0.028
   0.11235955  0.00000000  0.04487436       0.014
   0.00000000  0.04329004  0.04487436       0.028
   0.03745318  0.04329004  0.04487436       0.028
  -0.03745318  0.04329004  0.04487436       0.028
   0.07490637  0.04329004  0.04487436       0.028
  -0.07490637  0.04329004  0.04487436       0.028
   0.11235955  0.04329004  0.04487436       0.028
   0.00000000  0.08658009  0.04487436       0.028
   0.03745318  0.08658009  0.04487436       0.028
  -0.03745318  0.08658009  0.04487436       0.028
   0.07490637  0.08658009  0.04487436       0.028
  -0.07490637  0.08658009  0.04487436       0.028
   0.11235955  0.08658009  0.04487436       0.028
   0.00000000  0.12987013  0.04487436       0.014
   0.03745318  0.12987013  0.04487436       0.028
   0.07490637  0.12987013  0.04487436       0.028
   0.11235955  0.12987013  0.04487436       0.014
 
 k-points in reciprocal lattice and weights: KPOINTS created by Atomic Simulation Env
   0.00000000  0.00000000  0.00000000       0.014
   0.16666667  0.00000000  0.00000000       0.028
   0.33333333  0.00000000  0.00000000       0.028
   0.50000000  0.00000000  0.00000000       0.014
   0.00000000  0.16666667  0.00000000       0.028
   0.16666667  0.16666667  0.00000000       0.028
  -0.16666667  0.16666667  0.00000000       0.028
   0.33333333  0.16666667  0.00000000       0.028
  -0.33333333  0.16666667  0.00000000       0.028
   0.50000000  0.16666667  0.00000000       0.028
   0.00000000  0.33333333  0.00000000       0.028
   0.16666667  0.33333333  0.00000000       0.028
  -0.16666667  0.33333333  0.00000000       0.028
   0.33333333  0.33333333  0.00000000       0.028
  -0.33333333  0.33333333  0.00000000       0.028
   0.50000000  0.33333333  0.00000000       0.028
   0.00000000  0.50000000  0.00000000       0.014
   0.16666667  0.50000000  0.00000000       0.028
   0.33333333  0.50000000  0.00000000       0.028
   0.50000000  0.50000000  0.00000000       0.014
   0.00000000  0.00000000  0.50000000       0.014
   0.16666667  0.00000000  0.50000000       0.028
   0.33333333  0.00000000  0.50000000       0.028
   0.50000000  0.00000000  0.50000000       0.014
   0.00000000  0.16666667  0.50000000       0.028
   0.16666667  0.16666667  0.50000000       0.028
  -0.16666667  0.16666667  0.50000000       0.028
   0.33333333  0.16666667  0.50000000       0.028
  -0.33333333  0.16666667  0.50000000       0.028
   0.50000000  0.16666667  0.50000000       0.028
   0.00000000  0.33333333  0.50000000       0.028
   0.16666667  0.33333333  0.50000000       0.028
  -0.16666667  0.33333333  0.50000000       0.028
   0.33333333  0.33333333  0.50000000       0.028
  -0.33333333  0.33333333  0.50000000       0.028
   0.50000000  0.33333333  0.50000000       0.028
   0.00000000  0.50000000  0.50000000       0.014
   0.16666667  0.50000000  0.50000000       0.028
   0.33333333  0.50000000  0.50000000       0.028
   0.50000000  0.50000000  0.50000000       0.014
 
 position of ions in fractional coordinates (direct lattice) 
   0.10841696  0.25000000  0.12441577
   0.60841696  0.75000000  0.37558423
   0.89158304  0.75000000  0.87558423
   0.39158304  0.25000000  0.62441577
   0.99509991  0.25000000  0.35293327
   0.49509991  0.75000000  0.14706673
   0.00490009  0.75000000  0.64706673
   0.50490009  0.25000000  0.85293327
 
 position of ions in cartesian coordinates  (Angst):
   0.48245548  0.96250000  1.38626802
   2.70745548  2.88750000  4.18484248
   3.96754452  2.88750000  9.75595298
   1.74254452  0.96250000  6.95737852
   4.42819459  0.96250000  3.93246049
   2.20319459  2.88750000  1.63865001
   0.02180541  2.88750000  7.20976051
   2.24680541  0.96250000  9.50357099
 


--------------------------------------------------------------------------------------------------------


 k-point   1 :   0.0000 0.0000 0.0000  plane waves:    2933
 k-point   2 :   0.1667 0.0000 0.0000  plane waves:    2944
 k-point   3 :   0.3333 0.0000 0.0000  plane waves:    2956
 k-point   4 :   0.5000 0.0000 0.0000  plane waves:    2938
 k-point   5 :   0.0000 0.1667 0.0000  plane waves:    2958
 k-point   6 :   0.1667 0.1667 0.0000  plane waves:    2968
 k-point   7 :  -0.1667 0.1667 0.0000  plane waves:    2968
 k-point   8 :   0.3333 0.1667 0.0000  plane waves:    2962
 k-point   9 :  -0.3333 0.1667 0.0000  plane waves:    2962
 k-point  10 :   0.5000 0.1667 0.0000  plane waves:    2952
 k-point  11 :   0.0000 0.3333 0.0000  plane waves:    2970
 k-point  12 :   0.1667 0.3333 0.0000  plane waves:    2963
 k-point  13 :  -0.1667 0.3333 0.0000  plane waves:    2963
 k-point  14 :   0.3333 0.3333 0.0000  plane waves:    2965
 k-point  15 :  -0.3333 0.3333 0.0000  plane waves:    2965
 k-point  16 :   0.5000 0.3333 0.0000  plane waves:    2982
 k-point  17 :   0.0000 0.5000 0.0000  plane waves:    2984
 k-point  18 :   0.1667 0.5000 0.0000  plane waves:    2974
 k-point  19 :   0.3333 0.5000 0.0000  plane waves:    2972
 k-point  20 :   0.5000 0.5000 0.0000  plane waves:    2976
 k-point  21 :   0.0000 0.0000 0.5000  plane waves:    2926
 k-point  22 :   0.1667 0.0000 0.5000  plane waves:    2934
 k-point  23 :   0.3333 0.0000 0.5000  plane waves:    2956
 k-point  24 :   0.5000 0.0000 0.5000  plane waves:    2976
 k-point  25 :   0.0000 0.1667 0.5000  plane waves:    2956
 k-point  26 :   0.1667 0.1667 0.5000  plane waves:    2946
 k-point  27 :  -0.1667 0.1667 0.5000  plane waves:    2946
 k-point  28 :   0.3333 0.1667 0.5000  plane waves:    2974
 k-point  29 :  -0.3333 0.1667 0.5000  plane waves:    2974
 k-point  30 :   0.5000 0.1667 0.5000  plane waves:    2968
 k-point  31 :   0.0000 0.3333 0.5000  plane waves:    2962
 k-point  32 :   0.1667 0.3333 0.5000  plane waves:    2968
 k-point  33 :  -0.1667 0.3333 0.5000  plane waves:    2968
 k-point  34 :   0.3333 0.3333 0.5000  plane waves:    2972
 k-point  35 :  -0.3333 0.3333 0.5000  plane waves:    2972
 k-point  36 :   0.5000 0.3333 0.5000  plane waves:    2984
 k-point  37 :   0.0000 0.5000 0.5000  plane waves:    2952
 k-point  38 :   0.1667 0.5000 0.5000  plane waves:    2984
 k-point  39 :   0.3333 0.5000 0.5000  plane waves:    2976
 k-point  40 :   0.5000 0.5000 0.5000  plane waves:    2944

 maximum and minimum number of plane-waves per node :       756      717

 maximum number of plane-waves:      2984
 maximum index in each direction: 
   IXMAX=    7   IYMAX=    5   IZMAX=   17
   IXMIN=   -7   IYMIN=   -6   IZMIN=  -17


 parallel 3D FFT for wavefunctions:
    minimum data exchange during FFTs selected (reduces bandwidth)
 parallel 3D FFT for charge:
    minimum data exchange during FFTs selected (reduces bandwidth)


 total amount of memory used by VASP MPI-rank0    38146. kBytes
=======================================================================

   base      :      30000. kBytes
   nonl-proj :       6352. kBytes
   fftplans  :        320. kBytes
   grid      :        455. kBytes
   one-center:         16. kBytes
   wavefun   :       1003. kBytes
 
     INWAV:  cpu time      0.0000: real time      0.0001
 Broyden mixing: mesh for mixing (old mesh)
   NGX = 13   NGY = 11   NGZ = 35
  (NGX  = 48   NGY  = 36   NGZ  =108)
  gives a total of   5005 points

 initial charge density was supplied:
 charge density of overlapping atoms calculated
 number of electron      40.0000000 magnetization 
 keeping initial charge density in first step


--------------------------------------------------------------------------------------------------------


 Maximum index for augmentation-charges           333 (set IRDMAX)


--------------------------------------------------------------------------------------------------------


 First call to EWALD:  gamma=   0.308
 Maximum number of real-space cells 3x 4x 2
 Maximum number of reciprocal cells 2x 2x 5

    FEWALD:  cpu time      0.0009: real time      0.0009


--------------------------------------- Ionic step        1  -------------------------------------------




--------------------------------------- Iteration      1(   1)  ---------------------------------------


    POTLOK:  cpu time      0.0057: real time      0.0061
    SETDIJ:  cpu time      0.1390: real time      0.1395
     EDDAV:  cpu time      0.2603: real time      0.2629
       DOS:  cpu time      0.0015: real time      0.0015
    --------------------------------------------
      LOOP:  cpu time      0.4064: real time      0.4099

 eigenvalue-minimisations  :  2560
 total energy-change (2. order) : 0.1299903E+03  (-0.1291881E+04)
 number of electron      40.0000000 magnetization 
 augmentation part       40.0000000 magnetization 

 Free energy of the ion-electron system (eV)
  ---------------------------------------------------
  alpha Z        PSCENC =        88.76358843
  Ewald energy   TEWEN  =     -1428.50936410
  -Hartree energ DENC   =      -124.22456037
  -exchange      EXHF   =         0.00000000
  -V(xc)+E(xc)   XCENC  =       -33.26589900
  PAW double counting   =      1193.78262552    -1080.73714043
  entropy T*S    EENTRO =        -0.00116672
  eigenvalues    EBANDS =        65.69765014
  atomic energy  EATOM  =      1448.48460880
  Solvation  Ediel_sol  =         0.00000000
  ---------------------------------------------------
  free energy    TOTEN  =       129.99034226 eV

  energy without entropy =      129.99150898  energy(sigma->0) =      129.99092562


--------------------------------------------------------------------------------------------------------




--------------------------------------- Iteration      1(   2)  ---------------------------------------


     EDDAV:  cpu time      0.3226: real time      0.3258
       DOS:  cpu time      0.0006: real time      0.0006
    --------------------------------------------
      LOOP:  cpu time      0.3233: real time      0.3264

 eigenvalue-minimisations  :  3712
 total energy-change (2. order) :-0.1555486E+03  (-0.1505967E+03)
 number of electron      40.0000000 magnetization 
 augmentation part       40.0000000 magnetization 

 Free energy of the ion-electron system (eV)
  ---------------------------------------------------
  alpha Z        PSCENC =        88.76358843
  Ewald energy   TEWEN  =     -1428.50936410
  -Hartree energ DENC   =      -124.22456037
  -exchange      EXHF   =         0.00000000
  -V(xc)+E(xc)   XCENC  =       -33.26589900
  PAW double counting   =      1193.78262552    -1080.73714043
  entropy T*S    EENTRO =        -0.00000000
  eigenvalues    EBANDS =       -89.85212679
  atomic energy  EATOM  =      1448.48460880
  Solvation  Ediel_sol  =         0.00000000
  ---------------------------------------------------
  free energy    TOTEN  =       -25.55826795 eV

  energy without entropy =      -25.55826795  energy(sigma->0) =      -25.55826795


--------------------------------------------------------------------------------------------------------




--------------------------------------- Iteration      1(   3)  ---------------------------------------


     EDDAV:  cpu time      0.2893: real time      0.2924
       DOS:  cpu time      0.0005: real time      0.0005
    --------------------------------------------
      LOOP:  cpu time      0.2899: real time      0.2929

 eigenvalue-minimisations  :  3168
 total energy-change (2. order) :-0.8573132E+01  (-0.8553671E+01)
 number of electron      40.0000000 magnetization 
 augmentation part       40.0000000 magnetization 

 Free energy of the ion-electron system (eV)
  ---------------------------------------------------
  alpha Z        PSCENC =        88.76358843
  Ewald energy   TEWEN  =     -1428.50936410
  -Hartree energ DENC   =      -124.22456037
  -exchange      EXHF   =         0.00000000
  -V(xc)+E(xc)   XCENC  =       -33.26589900
  PAW double counting   =      1193.78262552    -1080.73714043
  entropy T*S    EENTRO =        -0.00000000
  eigenvalues    EBANDS =       -98.42525879
  atomic energy  EATOM  =      1448.48460880
  Solvation  Ediel_sol  =         0.00000000
  ---------------------------------------------------
  free energy    TOTEN  =       -34.13139994 eV

  energy without entropy =      -34.13139994  energy(sigma->0) =      -34.13139994


--------------------------------------------------------------------------------------------------------




--------------------------------------- Iteration      1(   4)  ---------------------------------------


     EDDAV:  cpu time      0.3095: real time      0.3126
       DOS:  cpu time      0.0005: real time      0.0005
    --------------------------------------------
      LOOP:  cpu time      0.3100: real time      0.3131

 eigenvalue-minimisations  :  3312
 total energy-change (2. order) :-0.5758763E-01  (-0.5757622E-01)
 number of electron      40.0000000 magnetization 
 augmentation part       40.0000000 magnetization 

 Free energy of the ion-electron system (eV)
  ---------------------------------------------------
  alpha Z        PSCENC =        88.76358843
  Ewald energy   TEWEN  =     -1428.50936410
  -Hartree energ DENC   =      -124.22456037
  -exchange      EXHF   =         0.00000000
  -V(xc)+E(xc)   XCENC  =       -33.26589900
  PAW double counting   =      1193.78262552    -1080.73714043
  entropy T*S    EENTRO =        -0.00000000
  eigenvalues    EBANDS =       -98.48284642
  atomic energy  EATOM  =      1448.48460880
  Solvation  Ediel_sol  =         0.00000000
  ---------------------------------------------------
  free energy    TOTEN  =       -34.18898757 eV

  energy without entropy =      -34.18898757  energy(sigma->0) =      -34.18898757


--------------------------------------------------------------------------------------------------------




--------------------------------------- Iteration      1(   5)  ---------------------------------------


     EDDAV:  cpu time      0.2991: real time      0.3024
       DOS:  cpu time      0.0006: real time      0.0006
    CHARGE:  cpu time      0.0042: real time      0.0042
    MIXING:  cpu time      0.0007: real time      0.0007
    --------------------------------------------
      LOOP:  cpu time      0.3045: real time      0.3079

 eigenvalue-minimisations  :  3136
 total energy-change (2. order) :-0.3312485E-03  (-0.3312404E-03)
 number of electron      39.9999997 magnetization 
 augmentation part       -7.4008569 magnetization 

 Broyden mixing:
  rms(total) = 0.64946E+00    rms(broyden)= 0.64944E+00
  rms(prec ) = 0.73000E+00
  weight for this iteration     100.00

 Free energy of the ion-electron system (eV)
  ---------------------------------------------------
  alpha Z        PSCENC =        88.76358843
  Ewald energy   TEWEN  =     -1428.50936410
  -Hartree energ DENC   =      -124.22456037
  -exchange      EXHF   =         0.00000000
  -V(xc)+E(xc)   XCENC  =       -33.26589900
  PAW double counting   =      1193.78262552    -1080.73714043
  entropy T*S    EENTRO =        -0.00000000
  eigenvalues    EBANDS =       -98.48317767
  atomic energy  EATOM  =      1448.48460880
  Solvation  Ediel_sol  =         0.00000000
  ---------------------------------------------------
  free energy    TOTEN  =       -34.18931882 eV

  energy without entropy =      -34.18931882  energy(sigma->0) =      -34.18931882


--------------------------------------------------------------------------------------------------------




--------------------------------------- Iteration      1(   6)  ---------------------------------------


    POTLOK:  cpu time      0.0053: real time      0.0055
    SETDIJ:  cpu time      0.1376: real time      0.1381
     EDDAV:  cpu time      0.3175: real time      0.3204
       DOS:  cpu time      0.0005: real time      0.0005
    CHARGE:  cpu time      0.0051: real time      0.0051
    MIXING:  cpu time      0.0014: real time      0.0014
    --------------------------------------------
      LOOP:  cpu time      0.4674: real time      0.4710

 eigenvalue-minimisations  :  3072
 total energy-change (2. order) : 0.3696627E+00  (-0.7358338E-01)
 number of electron      39.9999998 magnetization 
 augmentation part       -7.3467128 magnetization 

 Broyden mixing:
  rms(total) = 0.40832E+00    rms(broyden)= 0.40832E+00
  rms(prec ) = 0.42957E+00
  weight for this iteration     100.00

 eigenvalues of (default mixing * dielectric matrix)
  average eigenvalue GAMMA=   2.2206
  2.2206

 Free energy of the ion-electron system (eV)
  ---------------------------------------------------
  alpha Z        PSCENC =        88.76358843
  Ewald energy   TEWEN  =     -1428.50936410
  -Hartree energ DENC   =      -129.85151587
  -exchange      EXHF   =         0.00000000
  -V(xc)+E(xc)   XCENC  =       -32.67324257
  PAW double counting   =      1459.67797876    -1346.95411357
  entropy T*S    EENTRO =        -0.00000000
  eigenvalues    EBANDS =       -92.75759599
  atomic energy  EATOM  =      1448.48460880
  Solvation  Ediel_sol  =         0.00000000
  ---------------------------------------------------
  free energy    TOTEN  =       -33.81965613 eV

  energy without entropy =      -33.81965613  energy(sigma->0) =      -33.81965613


--------------------------------------------------------------------------------------------------------




--------------------------------------- Iteration      1(   7)  ---------------------------------------


    POTLOK:  cpu time      0.0070: real time      0.0072
    SETDIJ:  cpu time      0.1373: real time      0.1379
     EDDAV:  cpu time      0.2856: real time      0.2887
       DOS:  cpu time      0.0006: real time      0.0006
    CHARGE:  cpu time      0.0040: real time      0.0041
    MIXING:  cpu time      0.0005: real time      0.0005
    --------------------------------------------
      LOOP:  cpu time      0.4350: real time      0.4389

 eigenvalue-minimisations  :  3040
 total energy-change (2. order) : 0.1195988E-01  (-0.2323904E-01)
 number of electron      39.9999998 magnetization 
 augmentation part       -7.3341505 magnetization 

 Broyden mixing:
  rms(total) = 0.12603E+00    rms(broyden)= 0.12603E+00
  rms(prec ) = 0.13457E+00
  weight for this iteration     100.00

 eigenvalues of (default mixing * dielectric matrix)
  average eigenvalue GAMMA=   1.7992
  1.2064  2.3919

 Free energy of the ion-electron system (eV)
  ---------------------------------------------------
  alpha Z        PSCENC =        88.76358843
  Ewald energy   TEWEN  =     -1428.50936410
  -Hartree energ DENC   =      -132.41775669
  -exchange      EXHF   =         0.00000000
  -V(xc)+E(xc)   XCENC  =       -32.19669876
  PAW double counting   =      1795.61900662    -1683.14468971
  entropy T*S    EENTRO =        -0.00000000
  eigenvalues    EBANDS =       -90.40639084
  atomic energy  EATOM  =      1448.48460880
  Solvation  Ediel_sol  =         0.00000000
  ---------------------------------------------------
  free energy    TOTEN  =       -33.80769625 eV

  energy without entropy =      -33.80769625  energy(sigma->0) =      -33.80769625


--------------------------------------------------------------------------------------------------------




--------------------------------------- Iteration      1(   8)  ---------------------------------------


    POTLOK:  cpu time      0.0051: real time      0.0053
    SETDIJ:  cpu time      0.1377: real time      0.1383
     EDDAV:  cpu time      0.2719: real time      0.2745
       DOS:  cpu time      0.0005: real time      0.0005
    CHARGE:  cpu time      0.0039: real time      0.0039
    MIXING:  cpu time      0.0005: real time      0.0005
    --------------------------------------------
      LOOP:  cpu time      0.4196: real time      0.4230

 eigenvalue-minimisations  :  2976
 total energy-change (2. order) : 0.1874274E-02  (-0.2357897E-02)
 number of electron      39.9999998 magnetization 
 augmentation part       -7.3430675 magnetization 

 Broyden mixing:
  rms(total) = 0.17791E-01    rms(broyden)= 0.17791E-01
  rms(prec ) = 0.21474E-01
  weight for this iteration     100.00

 eigenvalues of (default mixing * dielectric matrix)
  average eigenvalue GAMMA=   1.7074
  2.5157  1.3033  1.3033

 Free energy of the ion-electron system (eV)
  ---------------------------------------------------
  alpha Z        PSCENC =        88.76358843
  Ewald energy   TEWEN  =     -1428.50936410
  -Hartree energ DENC   =      -132.39710705
  -exchange      EXHF   =         0.00000000
  -V(xc)+E(xc)   XCENC  =       -32.06988502
  PAW double counting   =      1930.15894642    -1817.74374767
  entropy T*S    EENTRO =        -0.00000000
  eigenvalues    EBANDS =       -90.49286178
  atomic energy  EATOM  =      1448.48460880
  Solvation  Ediel_sol  =         0.00000000
  ---------------------------------------------------
  free energy    TOTEN  =       -33.80582197 eV

  energy without entropy =      -33.80582197  energy(sigma->0) =      -33.80582197


--------------------------------------------------------------------------------------------------------




--------------------------------------- Iteration      1(   9)  ---------------------------------------


    POTLOK:  cpu time      0.0050: real time      0.0052
    SETDIJ:  cpu time      0.1371: real time      0.1377
     EDDAV:  cpu time      0.2914: real time      0.2942
       DOS:  cpu time      0.0007: real time      0.0007
    CHARGE:  cpu time      0.0038: real time      0.0039
    MIXING:  cpu time      0.0007: real time      0.0007
    --------------------------------------------
      LOOP:  cpu time      0.4386: real time      0.4423

 eigenvalue-minimisations  :  3136
 total energy-change (2. order) :-0.2350598E-03  (-0.3461272E-03)
 number of electron      39.9999998 magnetization 
 augmentation part       -7.3412132 magnetization 

 Broyden mixing:
  rms(total) = 0.63977E-02    rms(broyden)= 0.63977E-02
  rms(prec ) = 0.70817E-02
  weight for this iteration     100.00

 eigenvalues of (default mixing * dielectric matrix)
  average eigenvalue GAMMA=   1.7216
  2.2686  2.2686  1.1746  1.1746

 Free energy of the ion-electron system (eV)
  ---------------------------------------------------
  alpha Z        PSCENC =        88.76358843
  Ewald energy   TEWEN  =     -1428.50936410
  -Hartree energ DENC   =      -132.73815247
  -exchange      EXHF   =         0.00000000
  -V(xc)+E(xc)   XCENC  =       -32.03118991
  PAW double counting   =      1944.33029740    -1831.92536308
  entropy T*S    EENTRO =        -0.00000000
  eigenvalues    EBANDS =       -90.18048210
  atomic energy  EATOM  =      1448.48460880
  Solvation  Ediel_sol  =         0.00000000
  ---------------------------------------------------
  free energy    TOTEN  =       -33.80605703 eV

  energy without entropy =      -33.80605703  energy(sigma->0) =      -33.80605703


--------------------------------------------------------------------------------------------------------




--------------------------------------- Iteration      1(  10)  ---------------------------------------


    POTLOK:  cpu time      0.0048: real time      0.0050
    SETDIJ:  cpu time      0.1375: real time      0.1382
     EDDAV:  cpu time      0.2716: real time      0.2727
       DOS:  cpu time      0.0003: real time      0.0003
    CHARGE:  cpu time      0.0030: real time      0.0030
    MIXING:  cpu time      0.0003: real time      0.0003
    --------------------------------------------
      LOOP:  cpu time      0.4176: real time      0.4196

 eigenvalue-minimisations  :  3184
 total energy-change (2. order) :-0.6340696E-04  (-0.2333972E-04)
 number of electron      39.9999998 magnetization 
 augmentation part       -7.3411385 magnetization 

 Broyden mixing:
  rms(total) = 0.23947E-02    rms(broyden)= 0.23947E-02
  rms(prec ) = 0.28798E-02
  weight for this iteration     100.00

 eigenvalues of (default mixing * dielectric matrix)
  average eigenvalue GAMMA=   1.7493
  2.7196  2.3592  1.2157  1.2259  1.2259

 Free energy of the ion-electron system (eV)
  ---------------------------------------------------
  alpha Z        PSCENC =        88.76358843
  Ewald energy   TEWEN  =     -1428.50936410
  -Hartree energ DENC   =      -132.75697946
  -exchange      EXHF   =         0.00000000
  -V(xc)+E(xc)   XCENC  =       -32.02991928
  PAW double counting   =      1937.61231938    -1825.20238070
  entropy T*S    EENTRO =        -0.00000000
  eigenvalues    EBANDS =       -90.16799351
  atomic energy  EATOM  =      1448.48460880
  Solvation  Ediel_sol  =         0.00000000
  ---------------------------------------------------
  free energy    TOTEN  =       -33.80612044 eV

  energy without entropy =      -33.80612044  energy(sigma->0) =      -33.80612044


--------------------------------------------------------------------------------------------------------




--------------------------------------- Iteration      1(  11)  ---------------------------------------


    POTLOK:  cpu time      0.0034: real time      0.0036
    SETDIJ:  cpu time      0.1370: real time      0.1373
     EDDAV:  cpu time      0.1882: real time      0.1890
       DOS:  cpu time      0.0003: real time      0.0003
    CHARGE:  cpu time      0.0030: real time      0.0030
    MIXING:  cpu time      0.0003: real time      0.0003
    --------------------------------------------
      LOOP:  cpu time      0.3322: real time      0.3336

 eigenvalue-minimisations  :  2880
 total energy-change (2. order) :-0.2380132E-04  (-0.3523821E-05)
 number of electron      39.9999998 magnetization 
 augmentation part       -7.3413752 magnetization 

 Broyden mixing:
  rms(total) = 0.12444E-02    rms(broyden)= 0.12444E-02
  rms(prec ) = 0.13557E-02
  weight for this iteration     100.00

 eigenvalues of (default mixing * dielectric matrix)
  average eigenvalue GAMMA=   1.7071
  2.4224  2.4224  2.1444  1.1782  1.1782  0.8969

 Free energy of the ion-electron system (eV)
  ---------------------------------------------------
  alpha Z        PSCENC =        88.76358843
  Ewald energy   TEWEN  =     -1428.50936410
  -Hartree energ DENC   =      -132.77868158
  -exchange      EXHF   =         0.00000000
  -V(xc)+E(xc)   XCENC  =       -32.02378287
  PAW double counting   =      1939.39155837    -1826.98210976
  entropy T*S    EENTRO =        -0.00000000
  eigenvalues    EBANDS =       -90.15196153
  atomic energy  EATOM  =      1448.48460880
  Solvation  Ediel_sol  =         0.00000000
  ---------------------------------------------------
  free energy    TOTEN  =       -33.80614424 eV

  energy without entropy =      -33.80614424  energy(sigma->0) =      -33.80614424


--------------------------------------------------------------------------------------------------------




--------------------------------------- Iteration      1(  12)  ---------------------------------------


    POTLOK:  cpu time      0.0041: real time      0.0111
    SETDIJ:  cpu time      0.1165: real time      0.1168
     EDDAV:  cpu time      0.1978: real time      0.1989
       DOS:  cpu time      0.0003: real time      0.0003
    --------------------------------------------
      LOOP:  cpu time      0.3187: real time      0.3271

 eigenvalue-minimisations  :  3264
 total energy-change (2. order) : 0.7821328E-07  (-0.4510792E-06)
 number of electron      39.9999998 magnetization 
 augmentation part       -7.3413752 magnetization 

 Free energy of the ion-electron system (eV)
  ---------------------------------------------------
  alpha Z        PSCENC =        88.76358843
  Ewald energy   TEWEN  =     -1428.50936410
  -Hartree energ DENC   =      -132.79004164
  -exchange      EXHF   =         0.00000000
  -V(xc)+E(xc)   XCENC  =       -32.02300948
  PAW double counting   =      1938.57594328    -1826.16621750
  entropy T*S    EENTRO =        -0.00000000
  eigenvalues    EBANDS =       -90.14165196
  atomic energy  EATOM  =      1448.48460880
  Solvation  Ediel_sol  =         0.00000000
  ---------------------------------------------------
  free energy    TOTEN  =       -33.80614416 eV

  energy without entropy =      -33.80614416  energy(sigma->0) =      -33.80614416


--------------------------------------------------------------------------------------------------------




 average (electrostatic) potential at core
  the test charge radii are     1.1631  1.0808
  (the norm of the test charge is              1.0000)
       1 -33.3639       2 -33.3639       3 -33.3639       4 -33.3639       5 -54.8591
       6 -54.8591       7 -54.8591       8 -54.8591
 
 
 
 E-fermi :   3.6258     XC(G=0):  -9.3706     alpha+bet : -8.8429

 Fermi energy:         3.6257766733

 k-point     1 :       0.0000    0.0000    0.0000
  band No.  band energies     occupation 
      1     -10.9133      2.00000
      2     -10.5931      2.00000
      3      -9.6161      2.00000
      4      -9.1238      2.00000
      5      -4.5533      2.00000
      6      -3.9911      2.00000
      7      -2.4475      2.00000
      8      -2.0783      2.00000
      9      -1.7944      2.00000
     10      -0.2888      2.00000
     11      -0.0847      2.00000
     12      -0.0541      2.00000
     13       0.2156      2.00000
     14       0.5994      2.00000
     15       1.4462      2.00000
     16       1.5426      2.00000
     17       2.0214      2.00000
     18       2.2364      2.00000
     19       2.6220      2.00000
     20       3.3175      2.00000
     21       4.0264      0.00000
     22       6.0065      0.00000
     23       6.0981      0.00000
     24       6.1291      0.00000
     25       6.4456      0.00000
     26       6.6790      0.00000
     27       6.9981      0.00000
     28       7.6199      0.00000
     29       8.3654      0.00000
     30       8.6908      0.00000
     31       8.8297      0.00000
     32       9.2483      0.00000

 k-point     2 :       0.1667    0.0000    0.0000
  band No.  band energies     occupation 
      1     -10.7903      2.00000
      2     -10.4772      2.00000
      3      -9.6184      2.00000
      4      -9.1728      2.00000
      5      -4.9165      2.00000
      6      -4.1463      2.00000
      7      -3.2082      2.00000
      8      -2.5751      2.00000
      9      -1.6039      2.00000
     10       0.0282      2.00000
     11       0.3661      2.00000
     12       0.5106      2.00000
     13       0.5504      2.00000
     14       0.7374      2.00000
     15       1.5031      2.00000
     16       1.9570      2.00000
     17       2.0213      2.00000
     18       2.2056      2.00000
     19       2.6819      2.00000
     20       3.1796      2.00000
     21       4.1297      0.00000
     22       5.4953      0.00000
     23       6.0364      0.00000
     24       6.1125      0.00000
     25       6.3420      0.00000
     26       6.4368      0.00000
     27       7.1011      0.00000
     28       7.2052      0.00000
     29       7.6775      0.00000
     30       8.1869      0.00000
     31       8.6535      0.00000
     32       8.7512      0.00000

 k-point     3 :       0.3333    0.0000    0.0000
  band No.  band energies     occupation 
      1     -10.4549      2.00000
      2     -10.1597      2.00000
      3      -9.7130      2.00000
      4      -9.3695      2.00000
      5      -5.3205      2.00000
      6      -4.3573      2.00000
      7      -4.3509      2.00000
      8      -3.4423      2.00000
      9      -1.1083      2.00000
     10       0.4224      2.00000
     11       0.7776      2.00000
     12       1.1078      2.00000
     13       1.3194      2.00000
     14       1.4041      2.00000
     15       1.5482      2.00000
     16       1.9070      2.00000
     17       1.9101      2.00000
     18       2.7764      2.00000
     19       2.9207      2.00000
     20       3.3877      2.00000
     21       4.5137      0.00000
     22       4.7069      0.00000
     23       5.0302      0.00000
     24       5.7025      0.00000
     25       5.7147      0.00000
     26       6.3781      0.00000
     27       6.5071      0.00000
     28       6.6373      0.00000
     29       6.9506      0.00000
     30       7.5528      0.00000
     31       8.0525      0.00000
     32       9.1657      0.00000

 k-point     4 :       0.5000    0.0000    0.0000
  band No.  band energies     occupation 
      1     -10.0260      2.00000
      2     -10.0260      2.00000
      3      -9.7386      2.00000
      4      -9.7386      2.00000
      5      -5.1476      2.00000
      6      -5.1476      2.00000
      7      -4.1298      2.00000
      8      -4.1298      2.00000
      9      -0.3261      2.00000
     10      -0.3261      2.00000
     11       1.2864      2.00000
     12       1.2864      2.00000
     13       1.5652      2.00000
     14       1.5652      2.00000
     15       1.9313      2.00000
     16       1.9313      2.00000
     17       2.5017      2.00000
     18       2.5017      2.00000
     19       3.0607      2.00000
     20       3.0607      2.00000
     21       4.7379      0.00000
     22       4.7379      0.00000
     23       5.3528      0.00000
     24       5.3528      0.00000
     25       5.7141      0.00000
     26       5.7141      0.00000
     27       5.8118      0.00000
     28       5.8118      0.00000
     29       6.7412      0.00000
     30       6.7412      0.00000
     31       8.9745      0.00000
     32       8.9745      0.00000

 k-point     5 :       0.0000    0.1667    0.0000
  band No.  band energies     occupation 
      1     -10.7197      2.00000
      2     -10.4148      2.00000
      3      -9.4982      2.00000
      4      -9.0680      2.00000
      5      -4.7708      2.00000
      6      -4.2783      2.00000
      7      -2.7676      2.00000
      8      -2.7564      2.00000
      9      -1.6140      2.00000
     10      -0.2001      2.00000
     11      -0.0720      2.00000
     12       0.0933      2.00000
     13       0.2890      2.00000
     14       0.3468      2.00000
     15       1.4466      2.00000
     16       1.5334      2.00000
     17       1.7410      2.00000
     18       2.5476      2.00000
     19       2.6491      2.00000
     20       3.0648      2.00000
     21       4.2170      0.00000
     22       5.5412      0.00000
     23       6.0353      0.00000
     24       6.4018      0.00000
     25       6.5933      0.00000
     26       6.8037      0.00000
     27       7.0699      0.00000
     28       7.2510      0.00000
     29       7.3775      0.00000
     30       8.2709      0.00000
     31       8.4978      0.00000
     32       8.6042      0.00000

 k-point     6 :       0.1667    0.1667    0.0000
  band No.  band energies     occupation 
      1     -10.6022      2.00000
      2     -10.3050      2.00000
      3      -9.5024      2.00000
      4      -9.1113      2.00000
      5      -4.9816      2.00000
      6      -4.2952      2.00000
      7      -3.3313      2.00000
      8      -2.9464      2.00000
      9      -1.4390      2.00000
     10      -0.7198      2.00000
     11      -0.4583      2.00000
     12       0.3041      2.00000
     13       0.8546      2.00000
     14       1.0911      2.00000
     15       1.2715      2.00000
     16       1.4402      2.00000
     17       2.2931      2.00000
     18       2.3017      2.00000
     19       2.7876      2.00000
     20       3.0397      2.00000
     21       4.3254      0.00000
     22       5.2623      0.00000
     23       5.6171      0.00000
     24       5.7611      0.00000
     25       6.4974      0.00000
     26       6.8018      0.00000
     27       7.3084      0.00000
     28       7.3201      0.00000
     29       7.7953      0.00000
     30       7.9958      0.00000
     31       8.1061      0.00000
     32       8.9509      0.00000

 k-point     7 :      -0.1667    0.1667    0.0000
  band No.  band energies     occupation 
      1     -10.6022      2.00000
      2     -10.3050      2.00000
      3      -9.5024      2.00000
      4      -9.1113      2.00000
      5      -4.9816      2.00000
      6      -4.2952      2.00000
      7      -3.3313      2.00000
      8      -2.9464      2.00000
      9      -1.4390      2.00000
     10      -0.7198      2.00000
     11      -0.4583      2.00000
     12       0.3041      2.00000
     13       0.8546      2.00000
     14       1.0911      2.00000
     15       1.2715      2.00000
     16       1.4402      2.00000
     17       2.2931      2.00000
     18       2.3017      2.00000
     19       2.7876      2.00000
     20       3.0397      2.00000
     21       4.3254      0.00000
     22       5.2623      0.00000
     23       5.6171      0.00000
     24       5.7611      0.00000
     25       6.4974      0.00000
     26       6.8018      0.00000
     27       7.3084      0.00000
     28       7.3201      0.00000
     29       7.7953      0.00000
     30       7.9958      0.00000
     31       8.1061      0.00000
     32       8.9509      0.00000

 k-point     8 :       0.3333    0.1667    0.0000
  band No.  band energies     occupation 
      1     -10.2841      2.00000
      2     -10.0069      2.00000
      3      -9.5935      2.00000
      4      -9.2854      2.00000
      5      -5.2216      2.00000
      6      -4.3121      2.00000
      7      -4.2837      2.00000
      8      -3.5168      2.00000
      9      -0.9427      2.00000
     10      -0.7241      2.00000
     11      -0.4333      2.00000
     12       0.3987      2.00000
     13       0.5160      2.00000
     14       1.0006      2.00000
     15       1.4120      2.00000
     16       1.9727      2.00000
     17       2.3349      2.00000
     18       2.4774      2.00000
     19       2.7526      2.00000
     20       2.9069      2.00000
     21       4.5674      0.00000
     22       5.1809      0.00000
     23       5.7229      0.00000
     24       5.8697      0.00000
     25       6.0325      0.00000
     26       6.4774      0.00000
     27       6.9046      0.00000
     28       7.7004      0.00000
     29       7.7820      0.00000
     30       8.0281      0.00000
     31       8.3167      0.00000
     32       8.9473      0.00000

 k-point     9 :      -0.3333    0.1667    0.0000
  band No.  band energies     occupation 
      1     -10.2841      2.00000
      2     -10.0069      2.00000
      3      -9.5935      2.00000
      4      -9.2854      2.00000
      5      -5.2216      2.00000
      6      -4.3121      2.00000
      7      -4.2837      2.00000
      8      -3.5168      2.00000
      9      -0.9427      2.00000
     10      -0.7241      2.00000
     11      -0.4333      2.00000
     12       0.3987      2.00000
     13       0.5160      2.00000
     14       1.0006      2.00000
     15       1.4120      2.00000
     16       1.9727      2.00000
     17       2.3349      2.00000
     18       2.4774      2.00000
     19       2.7526      2.00000
     20       2.9069      2.00000
     21       4.5674      0.00000
     22       5.1809      0.00000
     23       5.7229      0.00000
     24       5.8697      0.00000
     25       6.0325      0.00000
     26       6.4774      0.00000
     27       6.9046      0.00000
     28       7.7004      0.00000
     29       7.7820      0.00000
     30       8.0281      0.00000
     31       8.3167      0.00000
     32       8.9473      0.00000

 k-point    10 :       0.5000    0.1667    0.0000
  band No.  band energies     occupation 
      1      -9.8833      2.00000
      2      -9.8833      2.00000
      3      -9.6181      2.00000
      4      -9.6181      2.00000
      5      -5.0094      2.00000
      6      -5.0094      2.00000
      7      -4.0687      2.00000
      8      -4.0687      2.00000
      9      -0.4121      2.00000
     10      -0.4121      2.00000
     11      -0.0643      2.00000
     12      -0.0643      2.00000
     13       0.3184      2.00000
     14       0.3184      2.00000
     15       1.7272      2.00000
     16       1.7272      2.00000
     17       2.4510      2.00000
     18       2.4510      2.00000
     19       2.9028      2.00000
     20       2.9028      2.00000
     21       4.8630      0.00000
     22       4.8630      0.00000
     23       5.8158      0.00000
     24       5.8158      0.00000
     25       6.5632      0.00000
     26       6.5632      0.00000
     27       7.1984      0.00000
     28       7.1984      0.00000
     29       7.6992      0.00000
     30       7.6992      0.00000
     31       8.6907      0.00000
     32       8.6907      0.00000

 k-point    11 :       0.0000    0.3333    0.0000
  band No.  band energies     occupation 
      1     -10.1872      2.00000
      2      -9.9425      2.00000
      3      -9.2954      2.00000
      4      -9.0823      2.00000
      5      -5.2116      2.00000
      6      -4.7571      2.00000
      7      -4.1062      2.00000
      8      -3.6777      2.00000
      9      -1.0060      2.00000
     10      -0.0903      2.00000
     11       0.1900      2.00000
     12       0.5369      2.00000
     13       0.6390      2.00000
     14       0.6786      2.00000
     15       1.3091      2.00000
     16       1.6570      2.00000
     17       1.8906      2.00000
     18       2.2923      2.00000
     19       2.5205      2.00000
     20       2.6709      2.00000
     21       4.2693      0.00000
     22       4.6244      0.00000
     23       4.9304      0.00000
     24       5.4561      0.00000
     25       5.4608      0.00000
     26       6.0062      0.00000
     27       6.0133      0.00000
     28       6.8550      0.00000
     29       7.1295      0.00000
     30       7.4323      0.00000
     31       7.5799      0.00000
     32       8.5404      0.00000

 k-point    12 :       0.1667    0.3333    0.0000
  band No.  band energies     occupation 
      1     -10.0902      2.00000
      2      -9.8557      2.00000
      3      -9.2955      2.00000
      4      -9.0946      2.00000
      5      -5.1660      2.00000
      6      -4.6479      2.00000
      7      -4.1001      2.00000
      8      -3.7840      2.00000
      9      -0.9910      2.00000
     10      -0.8866      2.00000
     11      -0.6690      2.00000
     12       0.0552      2.00000
     13       0.7570      2.00000
     14       1.1106      2.00000
     15       1.1388      2.00000
     16       1.5171      2.00000
     17       1.6243      2.00000
     18       2.2957      2.00000
     19       2.3678      2.00000
     20       2.4790      2.00000
     21       4.3283      0.00000
     22       4.9760      0.00000
     23       5.2195      0.00000
     24       5.4331      0.00000
     25       5.9786      0.00000
     26       6.5720      0.00000
     27       6.9628      0.00000
     28       7.4090      0.00000
     29       7.5528      0.00000
     30       7.6051      0.00000
     31       8.3480      0.00000
     32       8.6694      0.00000

 k-point    13 :      -0.1667    0.3333    0.0000
  band No.  band energies     occupation 
      1     -10.0902      2.00000
      2      -9.8557      2.00000
      3      -9.2955      2.00000
      4      -9.0946      2.00000
      5      -5.1660      2.00000
      6      -4.6479      2.00000
      7      -4.1001      2.00000
      8      -3.7840      2.00000
      9      -0.9910      2.00000
     10      -0.8866      2.00000
     11      -0.6690      2.00000
     12       0.0552      2.00000
     13       0.7570      2.00000
     14       1.1106      2.00000
     15       1.1388      2.00000
     16       1.5171      2.00000
     17       1.6243      2.00000
     18       2.2957      2.00000
     19       2.3678      2.00000
     20       2.4790      2.00000
     21       4.3283      0.00000
     22       4.9760      0.00000
     23       5.2195      0.00000
     24       5.4331      0.00000
     25       5.9786      0.00000
     26       6.5720      0.00000
     27       6.9628      0.00000
     28       7.4090      0.00000
     29       7.5528      0.00000
     30       7.6051      0.00000
     31       8.3480      0.00000
     32       8.6694      0.00000

 k-point    14 :       0.3333    0.3333    0.0000
  band No.  band energies     occupation 
      1      -9.8370      2.00000
      2      -9.6296      2.00000
      3      -9.3490      2.00000
      4      -9.1704      2.00000
      5      -5.0239      2.00000
      6      -4.3857      2.00000
      7      -4.2989      2.00000
      8      -3.9600      2.00000
      9      -1.6034      2.00000
     10      -1.2022      2.00000
     11      -0.8346      2.00000
     12      -0.5040      2.00000
     13      -0.1143      2.00000
     14       0.4840      2.00000
     15       0.7076      2.00000
     16       1.1123      2.00000
     17       1.4753      2.00000
     18       1.8678      2.00000
     19       2.1967      2.00000
     20       2.4759      2.00000
     21       4.4708      0.00000
     22       6.1209      0.00000
     23       6.4590      0.00000
     24       6.6795      0.00000
     25       6.7415      0.00000
     26       7.1625      0.00000
     27       7.5860      0.00000
     28       8.0698      0.00000
     29       8.3538      0.00000
     30       8.5552      0.00000
     31       8.6092      0.00000
     32       9.7019      0.00000

 k-point    15 :      -0.3333    0.3333    0.0000
  band No.  band energies     occupation 
      1      -9.8370      2.00000
      2      -9.6296      2.00000
      3      -9.3490      2.00000
      4      -9.1704      2.00000
      5      -5.0239      2.00000
      6      -4.3857      2.00000
      7      -4.2989      2.00000
      8      -3.9600      2.00000
      9      -1.6034      2.00000
     10      -1.2022      2.00000
     11      -0.8346      2.00000
     12      -0.5040      2.00000
     13      -0.1143      2.00000
     14       0.4840      2.00000
     15       0.7076      2.00000
     16       1.1123      2.00000
     17       1.4753      2.00000
     18       1.8678      2.00000
     19       2.1967      2.00000
     20       2.4759      2.00000
     21       4.4708      0.00000
     22       6.1209      0.00000
     23       6.4590      0.00000
     24       6.6795      0.00000
     25       6.7415      0.00000
     26       7.1625      0.00000
     27       7.5860      0.00000
     28       8.0698      0.00000
     29       8.3538      0.00000
     30       8.5552      0.00000
     31       8.6092      0.00000
     32       9.7018      0.00000

 k-point    16 :       0.5000    0.3333    0.0000
  band No.  band energies     occupation 
      1      -9.5416      2.00000
      2      -9.5416      2.00000
      3      -9.3625      2.00000
      4      -9.3625      2.00000
      5      -4.7267      2.00000
      6      -4.7267      2.00000
      7      -4.1230      2.00000
      8      -4.1230      2.00000
      9      -1.4837      2.00000
     10      -1.4837      2.00000
     11      -0.9543      2.00000
     12      -0.9543      2.00000
     13      -0.0395      2.00000
     14      -0.0395      2.00000
     15       0.8096      2.00000
     16       0.8096      2.00000
     17       1.2885      2.00000
     18       1.2885      2.00000
     19       2.2799      2.00000
     20       2.2800      2.00000
     21       5.4480      0.00000
     22       5.4480      0.00000
     23       7.2362      0.00000
     24       7.2362      0.00000
     25       7.8697      0.00000
     26       7.8697      0.00000
     27       8.0715      0.00000
     28       8.0715      0.00000
     29       8.4978      0.00000
     30       8.4978      0.00000
     31       9.4244      0.00000
     32       9.4244      0.00000

 k-point    17 :       0.0000    0.5000    0.0000
  band No.  band energies     occupation 
      1      -9.5087      2.00000
      2      -9.5087      2.00000
      3      -9.4271      2.00000
      4      -9.4271      2.00000
      5      -5.1048      2.00000
      6      -5.1048      2.00000
      7      -4.5759      2.00000
      8      -4.5759      2.00000
      9      -0.1879      2.00000
     10      -0.1879      2.00000
     11       0.6428      2.00000
     12       0.6428      2.00000
     13       0.9471      2.00000
     14       0.9471      2.00000
     15       1.4985      2.00000
     16       1.4985      2.00000
     17       1.9925      2.00000
     18       1.9925      2.00000
     19       2.1856      2.00000
     20       2.1856      2.00000
     21       4.4922      0.00000
     22       4.4922      0.00000
     23       4.6529      0.00000
     24       4.6529      0.00000
     25       5.2703      0.00000
     26       5.2703      0.00000
     27       5.7641      0.00000
     28       5.7641      0.00000
     29       6.6130      0.00000
     30       6.6130      0.00000
     31       8.0502      0.00000
     32       8.0502      0.00000

 k-point    18 :       0.1667    0.5000    0.0000
  band No.  band energies     occupation 
      1      -9.4590      2.00000
      2      -9.4590      2.00000
      3      -9.3868      2.00000
      4      -9.3868      2.00000
      5      -4.9889      2.00000
      6      -4.9889      2.00000
      7      -4.5226      2.00000
      8      -4.5226      2.00000
      9      -0.4840      2.00000
     10      -0.4840      2.00000
     11      -0.0997      2.00000
     12      -0.0997      2.00000
     13       0.4428      2.00000
     14       0.4428      2.00000
     15       1.0620      2.00000
     16       1.0620      2.00000
     17       1.7109      2.00000
     18       1.7109      2.00000
     19       2.4547      2.00000
     20       2.4547      2.00000
     21       4.4121      0.00000
     22       4.4121      0.00000
     23       5.4844      0.00000
     24       5.4844      0.00000
     25       6.4164      0.00000
     26       6.4164      0.00000
     27       6.6353      0.00000
     28       6.6353      0.00000
     29       7.4197      0.00000
     30       7.4197      0.00000
     31       7.7541      0.00000
     32       7.7541      0.00000

 k-point    19 :       0.3333    0.5000    0.0000
  band No.  band energies     occupation 
      1      -9.3512      2.00000
      2      -9.3512      2.00000
      3      -9.3058      2.00000
      4      -9.3058      2.00000
      5      -4.7112      2.00000
      6      -4.7112      2.00000
      7      -4.4286      2.00000
      8      -4.4286      2.00000
      9      -1.2701      2.00000
     10      -1.2701      2.00000
     11      -0.8444      2.00000
     12      -0.8444      2.00000
     13      -0.1982      2.00000
     14      -0.1982      2.00000
     15       0.4790      2.00000
     16       0.4790      2.00000
     17       1.2237      2.00000
     18       1.2237      2.00000
     19       2.1596      2.00000
     20       2.1596      2.00000
     21       5.4764      0.00000
     22       5.4764      0.00000
     23       6.8729      0.00000
     24       6.8729      0.00000
     25       7.4705      0.00000
     26       7.4705      0.00000
     27       7.7098      0.00000
     28       7.7098      0.00000
     29       8.1603      0.00000
     30       8.1603      0.00000
     31       9.3408      0.00000
     32       9.3408      0.00000

 k-point    20 :       0.5000    0.5000    0.0000
  band No.  band energies     occupation 
      1      -9.2886      2.00000
      2      -9.2886      2.00000
      3      -9.2693      2.00000
      4      -9.2692      2.00000
      5      -4.5237      2.00000
      6      -4.5237      2.00000
      7      -4.4081      2.00000
      8      -4.4081      2.00000
      9      -1.5752      2.00000
     10      -1.5752      2.00000
     11      -1.2153      2.00000
     12      -1.2153      2.00000
     13      -0.3956      2.00000
     14      -0.3956      2.00000
     15       0.0197      2.00000
     16       0.0197      2.00000
     17       1.3353      2.00000
     18       1.3353      2.00000
[...]
     32       7.6224      0.00000

 k-point    32 :       0.1667    0.3333    0.5000
  band No.  band energies     occupation 
      1      -9.9902      2.00000
      2      -9.9902      2.00000
      3      -9.1769      2.00000
      4      -9.1769      2.00000
      5      -4.9408      2.00000
      6      -4.9408      2.00000
      7      -3.9403      2.00000
      8      -3.9403      2.00000
      9      -0.8995      2.00000
     10      -0.8995      2.00000
     11      -0.0985      2.00000
     12      -0.0985      2.00000
     13       0.6261      2.00000
     14       0.6261      2.00000
     15       1.3817      2.00000
     16       1.3817      2.00000
     17       1.6920      2.00000
     18       1.6920      2.00000
     19       2.5445      2.00000
     20       2.5445      2.00000
     21       5.1137      0.00000
     22       5.1137      0.00000
     23       5.3590      0.00000
     24       5.3590      0.00000
     25       6.4354      0.00000
     26       6.4354      0.00000
     27       6.7080      0.00000
     28       6.7080      0.00000
     29       7.4247      0.00000
     30       7.4247      0.00000
     31       8.3269      0.00000
     32       8.3269      0.00000

 k-point    33 :      -0.1667    0.3333    0.5000
  band No.  band energies     occupation 
      1      -9.9902      2.00000
      2      -9.9902      2.00000
      3      -9.1769      2.00000
      4      -9.1769      2.00000
      5      -4.9408      2.00000
      6      -4.9408      2.00000
      7      -3.9403      2.00000
      8      -3.9403      2.00000
      9      -0.8995      2.00000
     10      -0.8995      2.00000
     11      -0.0985      2.00000
     12      -0.0985      2.00000
     13       0.6261      2.00000
     14       0.6261      2.00000
     15       1.3817      2.00000
     16       1.3817      2.00000
     17       1.6920      2.00000
     18       1.6920      2.00000
     19       2.5445      2.00000
     20       2.5445      2.00000
     21       5.1137      0.00000
     22       5.1137      0.00000
     23       5.3590      0.00000
     24       5.3590      0.00000
     25       6.4354      0.00000
     26       6.4354      0.00000
     27       6.7080      0.00000
     28       6.7080      0.00000
     29       7.4247      0.00000
     30       7.4247      0.00000
     31       8.3269      0.00000
     32       8.3269      0.00000

 k-point    34 :       0.3333    0.3333    0.5000
  band No.  band energies     occupation 
      1      -9.7530      2.00000
      2      -9.7530      2.00000
      3      -9.2402      2.00000
      4      -9.2402      2.00000
      5      -4.7789      2.00000
      6      -4.7789      2.00000
      7      -4.0763      2.00000
      8      -4.0763      2.00000
      9      -1.4131      2.00000
     10      -1.4131      2.00000
     11      -0.5799      2.00000
     12      -0.5799      2.00000
     13       0.1462      2.00000
     14       0.1462      2.00000
     15       0.8650      2.00000
     16       0.8650      2.00000
     17       1.5737      2.00000
     18       1.5737      2.00000
     19       2.3726      2.00000
     20       2.3726      2.00000
     21       5.6956      0.00000
     22       5.6956      0.00000
     23       6.3332      0.00000
     24       6.3332      0.00000
     25       6.6000      0.00000
     26       6.6000      0.00000
     27       7.7779      0.00000
     28       7.7779      0.00000
     29       8.1053      0.00000
     30       8.1053      0.00000
     31       9.6002      0.00000
     32       9.6002      0.00000

 k-point    35 :      -0.3333    0.3333    0.5000
  band No.  band energies     occupation 
      1      -9.7530      2.00000
      2      -9.7530      2.00000
      3      -9.2402      2.00000
      4      -9.2402      2.00000
      5      -4.7789      2.00000
      6      -4.7789      2.00000
      7      -4.0763      2.00000
      8      -4.0763      2.00000
      9      -1.4131      2.00000
     10      -1.4131      2.00000
     11      -0.5799      2.00000
     12      -0.5799      2.00000
     13       0.1462      2.00000
     14       0.1462      2.00000
     15       0.8650      2.00000
     16       0.8650      2.00000
     17       1.5737      2.00000
     18       1.5737      2.00000
     19       2.3726      2.00000
     20       2.3726      2.00000
     21       5.6956      0.00000
     22       5.6956      0.00000
     23       6.3332      0.00000
     24       6.3332      0.00000
     25       6.6000      0.00000
     26       6.6000      0.00000
     27       7.7779      0.00000
     28       7.7779      0.00000
     29       8.1053      0.00000
     30       8.1053      0.00000
     31       9.6002      0.00000
     32       9.6002      0.00000

 k-point    36 :       0.5000    0.3333    0.5000
  band No.  band energies     occupation 
      1      -9.5382      2.00000
      2      -9.5382      2.00000
      3      -9.3666      2.00000
      4      -9.3666      2.00000
      5      -4.6822      2.00000
      6      -4.6822      2.00000
      7      -4.1837      2.00000
      8      -4.1837      2.00000
      9      -1.2620      2.00000
     10      -1.2620      2.00000
     11      -1.2374      2.00000
     12      -1.2374      2.00000
     13       0.3058      2.00000
     14       0.3058      2.00000
     15       0.3792      2.00000
     16       0.3792      2.00000
     17       1.6930      2.00000
     18       1.6930      2.00000
     19       1.9994      2.00000
     20       1.9994      2.00000
     21       5.9170      0.00000
     22       5.9170      0.00000
     23       6.5908      0.00000
     24       6.5908      0.00000
     25       7.6136      0.00000
     26       7.6136      0.00000
     27       7.6748      0.00000
     28       7.6748      0.00000
     29       9.1636      0.00000
     30       9.1636      0.00000
     31       9.3567      0.00000
     32       9.3567      0.00000

 k-point    37 :       0.0000    0.5000    0.5000
  band No.  band energies     occupation 
      1      -9.4689      2.00000
      2      -9.4689      2.00000
      3      -9.4689      2.00000
      4      -9.4689      2.00000
      5      -4.8584      2.00000
      6      -4.8584      2.00000
      7      -4.8584      2.00000
      8      -4.8584      2.00000
      9       0.3340      2.00000
     10       0.3340      2.00000
     11       0.3340      2.00000
     12       0.3340      2.00000
     13       1.1677      2.00000
     14       1.1677      2.00000
     15       1.1677      2.00000
     16       1.1677      2.00000
     17       1.9035      2.00000
     18       1.9035      2.00000
     19       1.9035      2.00000
     20       1.9035      2.00000
     21       4.8643      0.00000
     22       4.8643      0.00000
     23       4.8643      0.00000
     24       4.8643      0.00000
     25       5.4884      0.00000
     26       5.4884      0.00000
     27       5.4884      0.00000
     28       5.4884      0.00000
     29       7.0797      0.00000
     30       7.0797      0.00000
     31       7.0797      0.00000
     32       7.0797      0.00000

 k-point    38 :       0.1667    0.5000    0.5000
  band No.  band energies     occupation 
      1      -9.4236      2.00000
      2      -9.4236      2.00000
      3      -9.4236      2.00000
      4      -9.4236      2.00000
      5      -4.7699      2.00000
      6      -4.7699      2.00000
      7      -4.7699      2.00000
      8      -4.7699      2.00000
      9      -0.2470      2.00000
     10      -0.2470      2.00000
     11      -0.2470      2.00000
     12      -0.2470      2.00000
     13       0.7581      2.00000
     14       0.7581      2.00000
     15       0.7581      2.00000
     16       0.7581      2.00000
     17       1.9039      2.00000
     18       1.9039      2.00000
     19       1.9039      2.00000
     20       1.9039      2.00000
     21       5.2353      0.00000
     22       5.2353      0.00000
     23       5.2353      0.00000
     24       5.2353      0.00000
     25       6.5773      0.00000
     26       6.5773      0.00000
     27       6.5773      0.00000
     28       6.5773      0.00000
     29       7.2186      0.00000
     30       7.2186      0.00000
     31       7.2186      0.00000
     32       7.2186      0.00000

 k-point    39 :       0.3333    0.5000    0.5000
  band No.  band energies     occupation 
      1      -9.3288      2.00000
      2      -9.3288      2.00000
      3      -9.3288      2.00000
      4      -9.3288      2.00000
      5      -4.5765      2.00000
      6      -4.5765      2.00000
      7      -4.5765      2.00000
      8      -4.5765      2.00000
      9      -1.0181      2.00000
     10      -1.0181      2.00000
     11      -1.0181      2.00000
     12      -1.0181      2.00000
     13      -0.0385      2.00000
     14      -0.0385      2.00000
     15      -0.0385      2.00000
     16      -0.0385      2.00000
     17       1.8629      2.00000
     18       1.8629      2.00000
     19       1.8629      2.00000
     20       1.8629      2.00000
     21       6.0591      0.00000
     22       6.0591      0.00000
     23       6.0591      0.00000
     24       6.0591      0.00000
     25       7.2419      0.00000
     26       7.2419      0.00000
     27       7.2419      0.00000
     28       7.2419      0.00000
     29       8.9735      0.00000
     30       8.9735      0.00000
     31       8.9735      0.00000
     32       8.9735      0.00000

 k-point    40 :       0.5000    0.5000    0.5000
  band No.  band energies     occupation 
      1      -9.2789      2.00000
      2      -9.2789      2.00000
      3      -9.2789      2.00000
      4      -9.2789      2.00000
      5      -4.4708      2.00000
      6      -4.4708      2.00000
      7      -4.4708      2.00000
      8      -4.4708      2.00000
      9      -1.2668      2.00000
     10      -1.2668      2.00000
     11      -1.2668      2.00000
     12      -1.2668      2.00000
     13      -0.4903      2.00000
     14      -0.4903      2.00000
     15      -0.4903      2.00000
     16      -0.4903      2.00000
     17       1.9143      2.00000
     18       1.9143      2.00000
     19       1.9143      2.00000
     20       1.9143      2.00000
     21       5.9293      0.00000
     22       5.9293      0.00000
     23       5.9293      0.00000
     24       5.9293      0.00000
     25       8.2481      0.00000
     26       8.2481      0.00000
     27       8.2481      0.00000
     28       8.2481      0.00000
     29      10.0017      0.00000
     30      10.0017      0.00000
     31      10.0017      0.00000
     32      10.0017      0.00000


--------------------------------------------------------------------------------------------------------


 soft charge-density along one line, spin component            1
         0         1         2         3         4         5         6         7         8         9
 total charge-density along one line
 
 pseudopotential strength for first ion, spin component:            1
 14.482  18.067  -0.000   0.046   0.040  -0.000   0.083   0.073
 18.067  22.554  -0.000   0.058   0.051  -0.000   0.105   0.092
 -0.000  -0.000   3.220   0.000  -0.000   5.481   0.000  -0.000
  0.046   0.058   0.000   3.216  -0.003   0.000   5.475  -0.005
  0.040   0.051  -0.000  -0.003   3.218  -0.000  -0.005   5.478
 -0.000  -0.000   5.481   0.000  -0.000   9.386   0.000  -0.000
  0.083   0.105   0.000   5.475  -0.005   0.000   9.376  -0.008
  0.073   0.092  -0.000  -0.005   5.478  -0.000  -0.008   9.382
 -0.000  -0.000   0.007  -0.000  -0.000   0.013  -0.000  -0.000
  0.000   0.000   0.012  -0.000  -0.000   0.022  -0.000  -0.000
 -0.003  -0.004   0.000   0.012  -0.003   0.000   0.022  -0.007
 -0.006  -0.007  -0.000   0.013   0.012  -0.000   0.023   0.022
 -0.002  -0.002   0.000  -0.000   0.012   0.000  -0.000   0.021
 total augmentation occupancy for first ion, spin component:            1
  2.730  -0.704  -0.000   0.369   0.336   0.000  -0.067  -0.063   0.000  -0.000  -0.007  -0.007  -0.010
 -0.704   0.667   0.000  -0.482  -0.429  -0.000   0.075   0.068  -0.000   0.000   0.007   0.005   0.006
 -0.000   0.000   1.258   0.000  -0.000  -0.218  -0.000  -0.000   0.143   0.038   0.000   0.000   0.000
  0.369  -0.482   0.000   1.301   0.077  -0.000  -0.212  -0.002   0.000  -0.000   0.103  -0.017   0.004
  0.336  -0.429  -0.000   0.077   1.247   0.000  -0.002  -0.205   0.000   0.000  -0.096   0.043  -0.001
  0.000  -0.000  -0.218  -0.000   0.000   0.042   0.000   0.000  -0.025  -0.006  -0.000  -0.000   0.000
 -0.067   0.075  -0.000  -0.212  -0.002   0.000   0.039  -0.001  -0.000   0.000  -0.018   0.003  -0.001
 -0.063   0.068  -0.000  -0.002  -0.205   0.000  -0.001   0.038  -0.000  -0.000   0.016  -0.007  -0.000
  0.000  -0.000   0.143   0.000   0.000  -0.025  -0.000  -0.000   0.032   0.004   0.000  -0.000  -0.000
 -0.000   0.000   0.038  -0.000   0.000  -0.006   0.000  -0.000   0.004   0.011  -0.000   0.000  -0.000
 -0.007   0.007   0.000   0.103  -0.096  -0.000  -0.018   0.016   0.000  -0.000   0.031  -0.007   0.002
 -0.007   0.005   0.000  -0.017   0.043  -0.000   0.003  -0.007  -0.000   0.000  -0.007   0.012  -0.001
 -0.010   0.006   0.000   0.004  -0.001   0.000  -0.001  -0.000  -0.000  -0.000   0.002  -0.001   0.009


------------------------ aborting loop because EDIFF is reached ----------------------------------------


    CHARGE:  cpu time      0.0031: real time      0.0031
    FORLOC:  cpu time      0.0002: real time      0.0002
    FORNL :  cpu time      0.0207: real time      0.0208
    STRESS:  cpu time      0.1858: real time      0.1864
    FORCOR:  cpu time      0.0032: real time      0.0032
    FORHAR:  cpu time      0.0008: real time      0.0008
    MIXING:  cpu time      0.0006: real time      0.0006
    OFIELD:  cpu time      0.0000: real time      0.0000

  FORCE on cell =-STRESS in cart. coord.  units (eV):
  Direction    XX          YY          ZZ          XY          YZ          ZX
  --------------------------------------------------------------------------------------
  Alpha Z    88.76359    88.76359    88.76359
  Ewald    -481.02064  -437.35326  -510.13734    -0.00000     0.00000     0.00000
  Hartree    43.30892    62.72596    26.76198    -0.00000     0.00000    -0.00000
  E(xc)    -141.25212  -141.24073  -141.57104     0.00000     0.00000    -0.00000
  Local    -134.15693  -191.63439   -92.74461     0.00000     0.00000    -0.00000
  n-local   240.29929   240.80145   241.94455    -0.00000    -0.00000     0.00000
  augment   -11.75601   -11.37786   -12.14080    -0.00000    -0.00000    -0.00000
  Kinetic   397.07988   391.15980   399.55306     0.00000    -0.00000     0.00000
  Fock        0.00000     0.00000     0.00000     0.00000     0.00000     0.00000
  -------------------------------------------------------------------------------------
  Total       1.26597     1.84455     0.42938     0.00000     0.00000     0.00000
  in kB      10.62530    15.48132     3.60380     0.00002     0.00000     0.00000
  external pressure =        9.90 kB  Pullay stress =        0.00 kB


 VOLUME and BASIS-vectors are now :
 -----------------------------------------------------------------------------
  energy-cutoff  :      360.00
  volume of cell :      190.89
      direct lattice vectors                 reciprocal lattice vectors
     4.450000000  0.000000000  0.000000000     0.224719101  0.000000000  0.000000000
     0.000000000  3.850000000  0.000000000     0.000000000  0.259740260  0.000000000
     0.000000000  0.000000000 11.142221000     0.000000000  0.000000000  0.089748713

  length of vectors
     4.450000000  3.850000000 11.142221000     0.224719101  0.259740260  0.089748713


 FORCES acting on ions
    electron-ion (+dipol)            ewald-force                    non-local-force                 convergence-correction
 -----------------------------------------------------------------------------------------------
   0.148E+02 -.300E-06 0.269E+02   -.173E+02 0.144E-14 -.298E+02   0.248E+01 0.549E-07 0.290E+01   -.664E-04 0.253E-06 -.136E-02
   0.148E+02 -.786E-06 -.269E+02   -.173E+02 -.291E-14 0.298E+02   0.248E+01 0.103E-06 -.290E+01   -.648E-04 0.729E-06 0.137E-02
   -.148E+02 0.178E-05 -.269E+02   0.173E+02 -.146E-14 0.298E+02   -.248E+01 -.690E-06 -.290E+01   0.648E-04 -.112E-05 0.136E-02
   -.148E+02 0.120E-05 0.269E+02   0.173E+02 -.865E-15 -.298E+02   -.248E+01 -.501E-06 0.290E+01   0.665E-04 -.767E-06 -.137E-02
   -.137E+02 0.250E-05 -.262E+02   0.152E+02 0.302E-14 0.278E+02   -.143E+01 -.377E-06 -.158E+01   0.183E-03 -.158E-05 0.249E-02
   -.137E+02 0.246E-07 0.262E+02   0.152E+02 -.274E-15 -.278E+02   -.143E+01 0.257E-06 0.158E+01   0.182E-03 -.600E-07 -.248E-02
   0.137E+02 -.239E-05 0.262E+02   -.152E+02 0.102E-14 -.278E+02   0.143E+01 0.511E-06 0.158E+01   -.183E-03 0.134E-05 -.249E-02
   0.137E+02 -.533E-05 -.262E+02   -.152E+02 0.218E-14 0.278E+02   0.143E+01 0.172E-05 -.158E+01   -.181E-03 0.278E-05 0.248E-02
 -----------------------------------------------------------------------------------------------
   -.124E-05 -.330E-05 0.168E-05   0.355E-14 0.215E-14 -.320E-13   0.825E-06 0.108E-05 -.162E-05   0.246E-06 0.157E-05 -.735E-06
 
 
 POSITION                                       TOTAL-FORCE (eV/Angst)
 -----------------------------------------------------------------------------------
      0.48246      0.96250      1.38627        -0.032609      0.000000      0.018371
      2.70746      2.88750      4.18484        -0.032609      0.000000     -0.018373
      3.96754      2.88750      9.75595         0.032609      0.000000     -0.018371
      1.74254      0.96250      6.95738         0.032609      0.000000      0.018373
      4.42819      0.96250      3.93246         0.051359      0.000001     -0.010936
      2.20319      2.88750      1.63865         0.051359      0.000000      0.010936
      0.02181      2.88750      7.20976        -0.051359     -0.000000      0.010936
      2.24681      0.96250      9.50357        -0.051359     -0.000001     -0.010936
 -----------------------------------------------------------------------------------
    total drift:                               -0.000000     -0.000001     -0.000001


--------------------------------------------------------------------------------------------------------



  FREE ENERGIE OF THE ION-ELECTRON SYSTEM (eV)
  ---------------------------------------------------
  free  energy   TOTEN  =       -33.80614416 eV

  energy  without entropy=      -33.80614416  energy(sigma->0) =      -33.80614416
 


--------------------------------------------------------------------------------------------------------


    POTLOK:  cpu time      0.1138: real time      0.1141


--------------------------------------------------------------------------------------------------------


     LOOP+:  cpu time      4.9019: real time      4.9473
    4ORBIT:  cpu time      0.0000: real time      0.0000

 total amount of memory used by VASP MPI-rank0    38146. kBytes
=======================================================================

   base      :      30000. kBytes
   nonl-proj :       6352. kBytes
   fftplans  :        320. kBytes
   grid      :        455. kBytes
   one-center:         16. kBytes
   wavefun   :       1003. kBytes
 
  
  
 General timing and accounting informations for this job:
 ========================================================
  
                  Total CPU time used (sec):        5.744
                            User time (sec):        5.411
                          System time (sec):        0.333
                         Elapsed time (sec):        7.136
  
                   Maximum memory used (kb):      190956.
                   Average memory used (kb):          N/A
  
                          Minor page faults:        21730
                          Major page faults:           33
                 Voluntary context switches:         3064
