 running  128 mpi-ranks, with    1 threads/rank, on    2 nodes
 distrk:  each k-point on   64 cores,    2 groups
 distr:  one band on    4 cores,   16 groups
 vasp.6.4.2 20Jul23 (build Oct 12 2023 10:31:02) complex                         
 POSCAR found type information on POSCAR GeSe
 POSCAR found :  2 types and       8 ions
 Reading from existing POTCAR
 scaLAPACK will be used
 Reading from existing POTCAR
 LDA part: xc-table for Pade appr. of Perdew
 POSCAR, INCAR and KPOINTS ok, starting setup
 FFT: planning ... GRIDC
 FFT: planning ... GRID_SOFT
 FFT: planning ... GRID
 WAVECAR not read
 entering main loop
       N       E                     dE             d eps       ncg     rms          rms(c)
DAV:   1     0.125679475197E+03    0.12568E+03   -0.13122E+04  2560   0.785E+02
DAV:   2    -0.261364052607E+02   -0.15182E+03   -0.14741E+03  3728   0.141E+02
DAV:   3    -0.336571443308E+02   -0.75207E+01   -0.74850E+01  3168   0.359E+01
DAV:   4    -0.337000907035E+02   -0.42946E-01   -0.42937E-01  3328   0.311E+00
DAV:   5    -0.337003385152E+02   -0.24781E-03   -0.24780E-03  3120   0.228E-01    0.698E+00
DAV:   6    -0.333958385997E+02    0.30450E+00   -0.58770E-01  3360   0.263E+00    0.437E+00
DAV:   7    -0.333876923669E+02    0.81462E-02   -0.21589E-01  3136   0.166E+00    0.108E+00
DAV:   8    -0.333842481935E+02    0.34442E-02   -0.25591E-02  3168   0.595E-01    0.162E-01
DAV:   9    -0.333845012333E+02   -0.25304E-03   -0.27389E-03  3184   0.229E-01    0.550E-02
DAV:  10    -0.333845316309E+02   -0.30398E-04   -0.10355E-04  3120   0.434E-02    0.219E-02
DAV:  11    -0.333845507323E+02   -0.19101E-04   -0.27545E-05  3056   0.243E-02    0.824E-03
DAV:  12    -0.333845503873E+02    0.34500E-06   -0.24521E-06  2544   0.714E-03
   1 F= -.33384550E+02 E0= -.33384545E+02  d E =-.107215E-04
