 vasp.6.4.2 20Jul23 (build Oct 12 2023 10:31:02) complex                         
 executed on              LinuxNV date 2024.11.02  00:26:15
 running  128 mpi-ranks, with    1 threads/rank, on    2 nodes
 distrk:  each k-point on   64 cores,    2 groups
 distr:  one band on NCORE=   8 cores,    8 groups


--------------------------------------------------------------------------------------------------------


 INCAR:
   ENCUT = 520.000000
   SIGMA = 0.050000
   EDIFF = 1.00e-06
   ALGO = N
   GGA = PE
   PREC = Accurate
   SYSTEM = 01_AOPT
   ICHARG = 0
   ISMEAR = 0
   ISPIN = 2
   ISTART = 1
   ISYM = -1
   KPAR = 2
   LORBIT = 11
   NBANDS = 220
   NELM = 100
   NELMIN = 5
   NPAR = 8
   LASPH = .TRUE.
   LCHARG = .FALSE.
   LWAVE = .FALSE.
   LREAL = .FALSE.

 POTCAR:    PAW_PBE Ge 05Jan2001                  
 POTCAR:    PAW_PBE Se 06Sep2000                  
 -----------------------------------------------------------------------------
|                                                                             |
|           W    W    AA    RRRRR   N    N  II  N    N   GGGG   !!!           |
|           W    W   A  A   R    R  NN   N  II  NN   N  G    G  !!!           |
|           W    W  A    A  R    R  N N  N  II  N N  N  G       !!!           |
|           W WW W  AAAAAA  RRRRR   N  N N  II  N  N N  G  GGG   !            |
|           WW  WW  A    A  R   R   N   NN  II  N   NN  G    G                |
|           W    W  A    A  R    R  N    N  II  N    N   GGGG   !!!           |
|                                                                             |
|     You use a magnetic or noncollinear calculation, but did not specify     |
|     the initial magnetic moment with the MAGMOM tag. Note that a            |
|     default of 1 will be used for all atoms. This ferromagnetic setup       |
|     may break the symmetry of the crystal, in particular it may rule        |
|     out finding an antiferromagnetic solution. Thence, we recommend         |
|     setting the initial magnetic moment manually or verifying carefully     |
|     that this magnetic setup is desired.                                    |
|                                                                             |
 -----------------------------------------------------------------------------

 POTCAR:    PAW_PBE Ge 05Jan2001                  
   VRHFIN =Ge: s2p2                                                                                 
   LEXCH  = PE                                                                                      
   EATOM  =   104.9960 eV,    7.7170 Ry                                                             
                                                                                                    
   TITEL  = PAW_PBE Ge 05Jan2001                                                                    
   LULTRA =        F    use ultrasoft PP ?                                                          
   IUNSCR =        1    unscreen: 0-lin 1-nonlin 2-no                                               
   RPACOR =    2.170    partial core radius                                                         
   POMASS =   72.610; ZVAL   =    4.000    mass and valenz                                          
   RCORE  =    2.300    outmost cutoff radius                                                       
   RWIGS  =    2.300; RWIGS  =    1.217    wigner-seitz radius (au A)                               
   ENMAX  =  173.807; ENMIN  =  130.355 eV                                                          
   ICORE  =        3    local potential                                                             
   LCOR   =        T    correct aug charges                                                         
   LPAW   =        T    paw PP                                                                      
   EAUG   =  385.843                                                                                
   DEXC   =    0.000                                                                                
   RMAX   =    2.342    core radius for proj-oper                                                   
   RAUG   =    1.300    factor for augmentation sphere                                              
   RDEP   =    2.318    radius for radial grids                                                     
   RDEPT  =    2.103    core radius for aug-charge                                                  
                                                                                                    
   Atomic configuration                                                                             
   10 entries                                                                                       
     n  l   j            E        occ.                                                              
     1  0  0.50    -10959.8463   2.0000                                                             
     2  0  0.50     -1371.6056   2.0000                                                             
     2  1  1.50     -1198.4791   6.0000                                                             
     3  0  0.50      -168.4733   2.0000                                                             
     3  1  1.50      -115.6019   6.0000                                                             
     3  2  2.50       -29.3106  10.0000                                                             
     4  0  0.50       -11.7309   2.0000                                                             
     4  1  0.50        -3.8952   2.0000                                                             
     4  2  1.50        -4.0817   0.0000                                                             
     4  3  2.50        -4.0817   0.0000                                                             
   Description                                                                                      
     l       E           TYP  RCUT    TYP  RCUT                                                     
     0    -11.7309493     23  2.300                                                                 
     0     -7.4578696     23  2.300                                                                 
     1     -3.8952261     23  2.300                                                                 
     1      6.1178114     23  2.300                                                                 
     2     -4.0817478     23  2.300                                                                 
     3     -1.3605826      7  2.300                                                                 
  local pseudopotential read in
  partial core-charges read in
  partial kinetic energy density read in
  atomic valenz-charges read in
  non local Contribution for L=            0  read in
    real space projection operators read in
  non local Contribution for L=            0  read in
    real space projection operators read in
  non local Contribution for L=            1  read in
    real space projection operators read in
  non local Contribution for L=            1  read in
    real space projection operators read in
  non local Contribution for L=            2  read in
    real space projection operators read in
    PAW grid and wavefunctions read in
 
   number of l-projection  operators is LMAX  =            5
   number of lm-projection operators is LMMAX =           13
 
 POTCAR:    PAW_PBE Se 06Sep2000                  
   VRHFIN =Se: s2p4                                                                                 
   LEXCH  = PE                                                                                      
   EATOM  =   257.1286 eV,   18.8984 Ry                                                             
                                                                                                    
   TITEL  = PAW_PBE Se 06Sep2000                                                                    
   LULTRA =        F    use ultrasoft PP ?                                                          
   IUNSCR =        1    unscreen: 0-lin 1-nonlin 2-no                                               
   RPACOR =    1.900    partial core radius                                                         
   POMASS =   78.960; ZVAL   =    6.000    mass and valenz                                          
   RCORE  =    2.100    outmost cutoff radius                                                       
   RWIGS  =    2.200; RWIGS  =    1.164    wigner-seitz radius (au A)                               
   ENMAX  =  211.555; ENMIN  =  158.666 eV                                                          
   ICORE  =        3    local potential                                                             
   LCOR   =        T    correct aug charges                                                         
   LPAW   =        T    paw PP                                                                      
   EAUG   =  446.842                                                                                
   DEXC   =    0.000                                                                                
   RMAX   =    2.147    core radius for proj-oper                                                   
   RAUG   =    1.300    factor for augmentation sphere                                              
   RDEP   =    2.177    radius for radial grids                                                     
   RDEPT  =    1.928    core radius for aug-charge                                                  
                                                                                                    
   Atomic configuration                                                                             
   10 entries                                                                                       
     n  l   j            E        occ.                                                              
     1  0  0.50    -12503.4787   2.0000                                                             
     2  0  0.50     -1606.9547   2.0000                                                             
     2  1  1.50     -1413.3140   6.0000                                                             
     3  0  0.50      -213.4885   2.0000                                                             
     3  1  1.50      -152.9538   6.0000                                                             
     3  2  2.50       -53.1221  10.0000                                                             
     4  0  0.50       -17.2865   2.0000                                                             
     4  1  0.50        -6.5110   4.0000                                                             
     4  2  2.50        -6.8029   0.0000                                                             
     4  3  2.50        -6.8029   0.0000                                                             
   Description                                                                                      
     l       E           TYP  RCUT    TYP  RCUT                                                     
     0    -17.2865377     23  2.100                                                                 
     0    -15.3094411     23  2.100                                                                 
     1     -6.5110275     23  2.100                                                                 
     1     -0.0695192     23  2.100                                                                 
     2     -6.8029130     23  2.100                                                                 
     3     -1.3605826      7  2.100                                                                 
  local pseudopotential read in
  partial core-charges read in
  partial kinetic energy density read in
  atomic valenz-charges read in
  non local Contribution for L=            0  read in
    real space projection operators read in
  non local Contribution for L=            0  read in
    real space projection operators read in
  non local Contribution for L=            1  read in
    real space projection operators read in
  non local Contribution for L=            1  read in
    real space projection operators read in
  non local Contribution for L=            2  read in
    real space projection operators read in
    PAW grid and wavefunctions read in
 
   number of l-projection  operators is LMAX  =            5
   number of lm-projection operators is LMMAX =           13
 
 -----------------------------------------------------------------------------
|                                                                             |
|               ----> ADVICE to this user running VASP <----                  |
|                                                                             |
|     You have a (more or less) 'large supercell' and for larger cells it     |
|     might be more efficient to use real-space projection operators.         |
|     Therefore, try LREAL= Auto in the INCAR file.                           |
|     Mind: For very accurate calculation, you might also keep the            |
|     reciprocal projection scheme (i.e. LREAL=.FALSE.).                      |
|                                                                             |
 -----------------------------------------------------------------------------

  PAW_PBE Ge 05Jan2001                  :
 energy of atom  1       EATOM= -104.9960
 kinetic energy error for atom=    0.0002 (will be added to EATOM!!)
  PAW_PBE Se 06Sep2000                  :
 energy of atom  2       EATOM= -257.1286
 kinetic energy error for atom=    0.0007 (will be added to EATOM!!)
 
 
 POSCAR: Ge Se
  positions in cartesian coordinates
  No initial velocities read in
 exchange correlation table for  LEXCH =        8
   RHO(1)=    0.500       N(1)  =     2000
   RHO(2)=  100.500       N(2)  =     4000
 


--------------------------------------------------------------------------------------------------------


 ion  position               nearest neighbor table
   1  0.063  0.067  0.103-  54 2.60  45 2.64  55 2.65
   2  0.231  0.874  0.368-  67 2.48  48 2.72  45 2.73
   3  0.558  0.198  0.373-  68 2.61  56 2.68  49 2.74
   4  0.574  0.541  0.379-  69 2.58  72 2.77  50 2.80
   5  0.582  0.881  0.376-  70 2.54  44 2.65  48 2.84
   6  0.916  0.212  0.355-  55 2.51  46 2.66
   7  0.895  0.538  0.366-  72 2.67  71 2.68  47 2.70
   8  0.909  0.878  0.371-  53 2.56  45 2.65  44 2.80
   9  0.081  0.137  0.629-  51 2.55  57 2.55  37 2.61
  10  0.117  0.487  0.609-  38 2.53  58 2.68  39 2.75
  11  0.068  0.797  0.616-  39 2.54  52 2.66  59 2.82
  12  0.400  0.145  0.631-  60 2.59  51 2.67  40 2.80
  13  0.407  0.488  0.637-  61 2.50  38 2.59  41 2.60
  14  0.422  0.837  0.636-  40 2.50  62 2.54  42 2.80
  15  0.761  0.167  0.636-  63 2.56  43 2.63  37 2.65
  16  0.741  0.477  0.631-  43 2.43  64 2.47
  17  0.241  0.554  0.375-  66 2.50  50 2.60  47 2.84
  18  0.237  0.207  0.385-  49 2.59  54 2.62  46 2.67
  19  0.743  0.807  0.620-  42 2.53  65 2.56  52 2.59
  20  0.903  0.625  0.873-  64 2.53  58 2.57  52 2.64
  21  0.898  0.983  0.867-  37 2.50  65 2.57  59 2.78
  22  0.074  0.379  0.120-  46 2.63  66 2.69
  23  0.061  0.711  0.134-  47 2.50  53 2.61  67 2.82
  24  0.399  0.048  0.131-  68 2.60  48 2.61  54 2.62
  25  0.404  0.396  0.112-  69 2.59  66 2.69  49 2.73
  26  0.739  0.058  0.156-  44 2.47  55 2.68  68 2.74
  27  0.716  0.372  0.150-  56 2.51  69 2.53  71 2.76
  28  0.405  0.712  0.143-  50 2.52  70 2.71  67 2.74
  29  0.257  0.334  0.858-  38 2.38  60 2.57
  30  0.245  0.686  0.874-  62 2.53  39 2.56
  31  0.230  0.977  0.886-  51 2.49  62 2.56  59 2.67
  32  0.577  0.311  0.875-  41 2.57  60 2.68  63 2.77
  33  0.598  0.648  0.860-  64 2.53  42 2.56  61 2.57
  34  0.604  0.008  0.873-  65 2.59  63 2.59  40 2.59
  35  0.924  0.330  0.878-  57 2.54  58 2.61  43 2.67
  36  0.723  0.713  0.119-  72 2.55  70 2.69  53 2.71
  37  0.910  0.016  0.645-  21 2.50   9 2.61  15 2.65
  38  0.258  0.344  0.644-  29 2.38  10 2.53  13 2.59
  39  0.229  0.674  0.643-  11 2.54  30 2.56  10 2.75
  40  0.557  0.985  0.646-  14 2.50  34 2.59  12 2.80
  41  0.552  0.338  0.646-  32 2.57  13 2.60
  42  0.584  0.681  0.633-  19 2.53  33 2.56  14 2.80
  43  0.880  0.341  0.642-  16 2.43  15 2.63  35 2.67
  44  0.739  0.025  0.376-  26 2.47   5 2.65   8 2.80
  45  0.067  0.016  0.334-   1 2.64   8 2.65   2 2.73
  46  0.079  0.350  0.354-  22 2.63   6 2.66  18 2.67
  47  0.054  0.684  0.357-  23 2.50   7 2.70  17 2.84
  48  0.397  0.015  0.363-  24 2.61   2 2.72   5 2.84
  49  0.392  0.342  0.351-  18 2.59  25 2.73   3 2.74
  50  0.403  0.687  0.369-  28 2.52  17 2.60   4 2.80
  51  0.237  0.008  0.664-  31 2.49   9 2.55  12 2.67
  52  0.898  0.669  0.640-  19 2.59  20 2.64  11 2.66
  53  0.897  0.842  0.144-   8 2.56  23 2.61  36 2.71
  54  0.235  0.178  0.151-   1 2.60  24 2.62  18 2.62
  55  0.899  0.200  0.130-   6 2.51   1 2.65  26 2.68
  56  0.716  0.344  0.375-  27 2.51   3 2.68
  57  0.074  0.194  0.849-  35 2.54   9 2.55
  58  0.056  0.489  0.840-  20 2.57  35 2.61  10 2.68
  59  0.067  0.838  0.867-  31 2.67  21 2.78  11 2.82
  60  0.401  0.187  0.861-  29 2.57  12 2.59  32 2.68
  61  0.433  0.524  0.857-  13 2.50  33 2.57
  62  0.379  0.838  0.860-  30 2.53  14 2.54  31 2.56
  63  0.743  0.163  0.867-  15 2.56  34 2.59  32 2.77
  64  0.741  0.504  0.852-  16 2.47  33 2.53  20 2.53
  65  0.740  0.852  0.846-  19 2.56  21 2.57  34 2.59
  66  0.232  0.523  0.152-  17 2.50  22 2.69  25 2.69
  67  0.236  0.853  0.146-   2 2.48  28 2.74  23 2.82
  68  0.558  0.183  0.138-  24 2.60   3 2.61  26 2.74
  69  0.572  0.514  0.148-  27 2.53   4 2.58  25 2.59
  70  0.566  0.859  0.149-   5 2.54  36 2.69  28 2.71
  71  0.887  0.513  0.126-   7 2.68  27 2.76
  72  0.741  0.686  0.346-  36 2.55   7 2.67   4 2.77
 

IMPORTANT INFORMATION: All symmetrisations will be switched off!
NOSYMM: (Re-)initialisation of all symmetry stuff for point group C_1.


----------------------------------------------------------------------------------------

                                     Primitive cell                                     

  volume of cell :    1720.3478

  direct lattice vectors                    reciprocal lattice vectors
    12.403664512 -0.000001644 -0.000003398     0.080621336  0.000000011  0.000000028
    -0.000001659 12.517809865  0.000001404     0.000000011  0.079886179 -0.000000012
    -0.000003908  0.000001599 11.079952601     0.000000025 -0.000000010  0.090253094

  length of vectors
    12.403664512 12.517809865 11.079952601     0.080621336  0.079886179  0.090253094

  position of ions in fractional coordinates (direct lattice)
     0.063342109  0.066930597  0.102743441
     0.231327094  0.873701282  0.368257782
     0.557559945  0.198016771  0.372735175
     0.574101008  0.541162102  0.378759459
     0.582005853  0.880878002  0.376215891
     0.915907571  0.212182812  0.354981802
     0.894583023  0.537749554  0.365784668
     0.908877242  0.877725525  0.370708164
     0.080918364  0.136821846  0.628632232
     0.117042560  0.486548352  0.608587332
     0.068073480  0.796968279  0.616000193
     0.399789963  0.145099031  0.631487637
     0.407006365  0.487799061  0.637355560
     0.422096791  0.836525108  0.635564603
     0.760912745  0.167006732  0.636137100
     0.740565248  0.476921404  0.630514104
     0.241296167  0.553641533  0.374733825
     0.236591045  0.206887604  0.384668369
     0.743149715  0.806783367  0.620043299
     0.903287786  0.625039585  0.872788898
     0.898172755  0.983262842  0.866567385
     0.073573286  0.379079276  0.119652696
     0.060715950  0.710583370  0.133534815
     0.399089371  0.047959760  0.130671517
     0.403651323  0.395747100  0.112465939
     0.738672518  0.058061998  0.155735431
     0.716433408  0.372269989  0.150396172
     0.405199432  0.712492683  0.143175789
     0.256916599  0.334385955  0.858178439
     0.245375164  0.686312178  0.873672151
     0.229546862  0.976993400  0.885711663
     0.576975442  0.311483691  0.874532446
     0.598487762  0.647602030  0.859821202
     0.604379929  0.007700364  0.872759091
     0.923730910  0.329740920  0.878074808
     0.723052572  0.713216797  0.119270134
     0.910232945  0.015693784  0.644536061
     0.257516796  0.343509647  0.643978354
     0.229223639  0.673814756  0.643423837
     0.556575543  0.984879365  0.646243943
     0.551727425  0.337990269  0.646224026
     0.584238760  0.680820074  0.632583944
     0.879934703  0.340567776  0.642408928
     0.738875867  0.024549837  0.375647612
     0.066996593  0.015853933  0.333787083
     0.078849473  0.349851871  0.354347364
     0.054448854  0.683756708  0.357296300
     0.397464657  0.014936337  0.363073889
     0.392201559  0.342087006  0.351097045
     0.402606845  0.686624108  0.368635898
     0.237010060  0.008458165  0.664091661
     0.898036442  0.668953512  0.640262255
     0.897278814  0.841692486  0.143892436
     0.235089960  0.178104057  0.150689868
     0.898629130  0.200142611  0.130006662
     0.716071280  0.343879861  0.374935888
     0.073841922  0.194366571  0.849241886
     0.055775550  0.488708049  0.840297980
     0.067030651  0.837743946  0.866637998
     0.401108922  0.187142204  0.860518812
     0.433313211  0.524002639  0.857479231
     0.379249399  0.838277677  0.860143982
     0.742692532  0.162725299  0.866556002
     0.741284454  0.503594774  0.851526717
     0.740002851  0.852160753  0.845700424
     0.232080008  0.522715774  0.152365600
     0.236287606  0.853443174  0.145841900
     0.557922447  0.182877044  0.137688983
     0.571920888  0.514410586  0.147647319
     0.566424036  0.859049967  0.148656458
     0.886772342  0.513101075  0.126073134
     0.740679784  0.685519532  0.345996711

  ion indices of the primitive-cell ions
   primitive index   ion index
                 1           1
                 2           2
                 3           3
                 4           4
                 5           5
                 6           6
                 7           7
                 8           8
                 9           9
                10          10
                11          11
                12          12
                13          13
                14          14
                15          15
                16          16
                17          17
                18          18
                19          19
                20          20
                21          21
                22          22
                23          23
                24          24
                25          25
                26          26
                27          27
                28          28
                29          29
                30          30
                31          31
                32          32
                33          33
                34          34
                35          35
                36          36
                37          37
                38          38
                39          39
                40          40
                41          41
                42          42
                43          43
                44          44
                45          45
                46          46
                47          47
                48          48
                49          49
                50          50
                51          51
                52          52
                53          53
                54          54
                55          55
                56          56
                57          57
                58          58
                59          59
                60          60
                61          61
                62          62
                63          63
                64          64
                65          65
                66          66
                67          67
                68          68
                69          69
                70          70
                71          71
                72          72

----------------------------------------------------------------------------------------

 
 
 KPOINTS: KPOINTS created by Atomic Simulation Env

Automatic generation of k-mesh.
 Grid dimensions read from file:
 generate k-points for:    2    2    2

 Generating k-lattice:

  Cartesian coordinates                     Fractional coordinates (reciprocal lattice)
     0.040310668  0.000000005  0.000000014     0.500000000  0.000000000  0.000000000
     0.000000005  0.039943090 -0.000000006     0.000000000  0.500000000  0.000000000
     0.000000012 -0.000000005  0.045126547     0.000000000  0.000000000  0.500000000

  Length of vectors
     0.040310668  0.039943090  0.045126547

  Shift w.r.t. Gamma in fractional coordinates (k-lattice)
     0.000000000  0.000000000  0.000000000

 
 Subroutine IBZKPT returns following result:
 ===========================================
 
 Found      8 irreducible k-points:
 
 Following reciprocal coordinates:
            Coordinates               Weight
  0.000000  0.000000  0.000000      1.000000
  0.500000  0.000000  0.000000      1.000000
  0.000000  0.500000  0.000000      1.000000
  0.500000  0.500000  0.000000      1.000000
  0.000000  0.000000  0.500000      1.000000
  0.500000  0.000000  0.500000      1.000000
  0.000000  0.500000  0.500000      1.000000
  0.500000  0.500000  0.500000      1.000000
 
 Following cartesian coordinates:
            Coordinates               Weight
  0.000000  0.000000  0.000000      1.000000
  0.040311  0.000000  0.000000      1.000000
  0.000000  0.039943 -0.000000      1.000000
  0.040311  0.039943  0.000000      1.000000
  0.000000 -0.000000  0.045127      1.000000
  0.040311  0.000000  0.045127      1.000000
  0.000000  0.039943  0.045127      1.000000
  0.040311  0.039943  0.045127      1.000000
 
 -----------------------------------------------------------------------------
|                                                                             |
|           W    W    AA    RRRRR   N    N  II  N    N   GGGG   !!!           |
|           W    W   A  A   R    R  NN   N  II  NN   N  G    G  !!!           |
|           W    W  A    A  R    R  N N  N  II  N N  N  G       !!!           |
|           W WW W  AAAAAA  RRRRR   N  N N  II  N  N N  G  GGG   !            |
|           WW  WW  A    A  R   R   N   NN  II  N   NN  G    G                |
|           W    W  A    A  R    R  N    N  II  N    N   GGGG   !!!           |
|                                                                             |
|     The number of bands has been changed from the values supplied in        |
|     the INCAR file. This is a result of running the parallel version.       |
|     The orbitals not found in the WAVECAR file will be initialized with     |
|     random numbers, which is usually adequate. For correlated               |
|     calculations, however, you should redo the groundstate calculation.     |
|     I found NBANDS = 220. Now, NBANDS = 224.                                |
|                                                                             |
 -----------------------------------------------------------------------------



--------------------------------------------------------------------------------------------------------




 Dimension of arrays:
   k-points           NKPTS =      8   k-points in BZ     NKDIM =      8   number of bands    NBANDS=    224
   number of dos      NEDOS =    301   number of ions     NIONS =     72
   non local maximal  LDIM  =      5   non local SUM 2l+1 LMDIM =     13
   total plane-waves  NPLWV = 774144
   max r-space proj   IRMAX =      1   max aug-charges    IRDMAX=  24654
   dimension x,y,z NGX =    96 NGY =   96 NGZ =   84
   dimension x,y,z NGXF=   192 NGYF=  192 NGZF=  168
   support grid    NGXF=   192 NGYF=  192 NGZF=  168
   ions per type =              36  36
   NGX,Y,Z   is equivalent  to a cutoff of  12.87, 12.75, 12.60 a.u.
   NGXF,Y,Z  is equivalent  to a cutoff of  25.73, 25.50, 25.21 a.u.

 SYSTEM =  01_AOPT                                 
 POSCAR =  Ge Se                                   

 Startparameter for this run:
   NWRITE =      2    write-flag & timer
   PREC   = accura    normal or accurate (medium, high low for compatibility)
   ISTART =      0    job   : 0-new  1-cont  2-samecut
   ICHARG =      2    charge: 1-file 2-atom 10-const
   ISPIN  =      2    spin polarized calculation?
   LNONCOLLINEAR =      F non collinear calculations
   LSORBIT =      F    spin-orbit coupling
   INIWAV =      1    electr: 0-lowe 1-rand  2-diag
   LASPH  =      T    aspherical Exc in radial PAW
 Electronic Relaxation 1
   ENCUT  =  520.0 eV  38.22 Ry    6.18 a.u.  23.06 23.27 20.60*2*pi/ulx,y,z
   ENINI  =  520.0     initial cutoff
   ENAUG  =  446.8 eV  augmentation charge cutoff
   NELM   =    100;   NELMIN=  5; NELMDL=  0     # of ELM steps 
   EDIFF  = 0.1E-05   stopping-criterion for ELM
   LREAL  =      F    real-space projection
   NLSPLINE    = F    spline interpolate recip. space projectors
   LCOMPAT=      F    compatible to vasp.4.4
   GGA_COMPAT  = T    GGA compatible to vasp.4.4-vasp.4.6
   LMAXPAW     = -100 max onsite density
   LMAXMIX     =    2 max onsite mixed and CHGCAR
   VOSKOWN=      0    Vosko Wilk Nusair interpolation
   ROPT   =    0.00000   0.00000
 Ionic relaxation
   EDIFFG = 0.1E-04   stopping-criterion for IOM
   NSW    =      0    number of steps for IOM
   NBLOCK =      1;   KBLOCK =      1    inner block; outer block 
   IBRION =     -1    ionic relax: 0-MD 1-quasi-New 2-CG
   NFREE  =      0    steps in history (QN), initial steepest desc. (CG)
   ISIF   =      2    stress and relaxation
   IWAVPR =     10    prediction:  0-non 1-charg 2-wave 3-comb
   ISYM   =     -1    0-nonsym 1-usesym 2-fastsym
   LCORR  =      T    Harris-Foulkes like correction to forces

   POTIM  = 0.5000    time-step for ionic-motion
   TEIN   =    0.0    initial temperature
   TEBEG  =    0.0;   TEEND  =   0.0 temperature during run
   SMASS  =  -3.00    Nose mass-parameter (am)
   estimated Nose-frequenzy (Omega)   =  0.10E-29 period in steps = 0.13E+47 mass=  -0.352E-26a.u.
   SCALEE = 1.0000    scale energy and forces
   NPACO  =    256;   APACO  = 10.0  distance and # of slots for P.C.
   PSTRESS=    0.0 pullay stress

  Mass of Ions in am
   POMASS =  72.61 78.96
  Ionic Valenz
   ZVAL   =   4.00  6.00
  Atomic Wigner-Seitz radii
   RWIGS  =  -1.00 -1.00
  virtual crystal weights 
   VCA    =   1.00  1.00
   NELECT =     360.0000    total number of electrons
   NUPDOWN=      -1.0000    fix difference up-down

 DOS related values:
   EMIN   =  10.00;   EMAX   =-10.00  energy-range for DOS
   EFERMI =   0.00;   METHOD = LEGACY      
   ISMEAR =     0;   SIGMA  =   0.05  broadening in eV -4-tet -1-fermi 0-gaus

 Electronic relaxation 2 (details)
   IALGO  =     38    algorithm
   LDIAG  =      T    sub-space diagonalisation (order eigenvalues)
   LSUBROT=      F    optimize rotation matrix (better conditioning)
   TURBO    =      0    0=normal 1=particle mesh
   IRESTART =      0    0=no restart 2=restart with 2 vectors
   NREBOOT  =      0    no. of reboots
   NMIN     =      0    reboot dimension
   EREF     =   0.00    reference energy to select bands
   IMIX   =      4    mixing-type and parameters
     AMIX     =   0.40;   BMIX     =  1.00
     AMIX_MAG =   1.60;   BMIX_MAG =  1.00
     AMIN     =   0.10
     WC   =   100.;   INIMIX=   1;  MIXPRE=   1;  MAXMIX= -45

 Intra band minimization:
   WEIMIN = 0.0000     energy-eigenvalue tresh-hold
   EBREAK =  0.11E-08  absolut break condition
   DEPER  =   0.30     relativ break condition  

   TIME   =   0.40     timestep for ELM

  volume/ion in A,a.u.               =      23.89       161.24
  Fermi-wavevector in a.u.,A,eV,Ry     =   0.971934  1.836690 12.852829  0.944656
  Thomas-Fermi vector in A             =   2.102192
 
 Write flags
   LWAVE        =      F    write WAVECAR
   LDOWNSAMPLE  =      F    k-point downsampling of WAVECAR
   LCHARG       =      F    write CHGCAR
   LVTOT        =      F    write LOCPOT, total local potential
   LVHAR        =      F    write LOCPOT, Hartree potential only
   LELF         =      F    write electronic localiz. function (ELF)
   LORBIT       =     11    0 simple, 1 ext, 2 COOP (PROOUT), +10 PAW based schemes


 Dipole corrections
   LMONO  =      F    monopole corrections only (constant potential shift)
   LDIPOL =      F    correct potential (dipole corrections)
   IDIPOL =      0    1-x, 2-y, 3-z, 4-all directions 
   EPSILON=  1.0000000 bulk dielectric constant

 Exchange correlation treatment:
   GGA     =    PE    GGA type
   LEXCH   =     8    internal setting for exchange type
   LIBXC   =     F    Libxc                    
   VOSKOWN =     0    Vosko Wilk Nusair interpolation
   LHFCALC =     F    Hartree Fock is set to
   LHFONE  =     F    Hartree Fock one center treatment
   AEXX    =    0.0000 exact exchange contribution

 Linear response parameters
   LEPSILON=     F    determine dielectric tensor
   LRPA    =     F    only Hartree local field effects (RPA)
   LNABLA  =     F    use nabla operator in PAW spheres
   LVEL    =     F    velocity operator in full k-point grid
   CSHIFT  =0.1000    complex shift for real part using Kramers Kronig
   OMEGAMAX=  -1.0    maximum frequency
   DEG_THRESHOLD= 0.2000000E-02 threshold for treating states as degnerate
   RTIME   =   -0.100 relaxation time in fs
  (WPLASMAI=    0.000 imaginary part of plasma frequency in eV, 0.658/RTIME)
   DFIELD  = 0.0000000 0.0000000 0.0000000 field for delta impulse in time
 
  Optional k-point grid parameters
   LKPOINTS_OPT  =     F    use optional k-point grid
   KPOINTS_OPT_MODE=     1    mode for optional k-point grid
 
 Orbital magnetization related:
   ORBITALMAG=     F  switch on orbital magnetization
   LCHIMAG   =     F  perturbation theory with respect to B field
   DQ        =  0.001000  dq finite difference perturbation B field
   LLRAUG    =     F  two centre corrections for induced B field
   LBONE     =     F  B-component reconstruction in AE one-centre
   LVGVCALC  =     T  calculate vGv susceptibility
   LVGVAPPL  =     F  apply vGv susceptibility instead of pGv for G=0

 Random number generation:
   RANDOM_GENERATOR = DEFAULT
   PCG_SEED         = not used


--------------------------------------------------------------------------------------------------------


 Static calculation
 charge density and potential will be updated during run
 spin polarized calculation
 Variant of blocked Davidson
 Davidson routine will perform the subspace rotation
 perform sub-space diagonalisation
    after iterative eigenvector-optimisation
 modified Broyden-mixing scheme, WC =      100.0
 initial mixing is a Kerker type mixing with AMIX =  0.4000 and BMIX =      1.0000
 Hartree-type preconditioning will be used
 using additional bands            44
 reciprocal scheme for non local part
 use partial core corrections
 calculate Harris-corrections to forces 
   (improved forces if not selfconsistent)
 use gradient corrections 
 use of overlap-Matrix (Vanderbilt PP)
 Gauss-broadening in eV      SIGMA  =   0.05


--------------------------------------------------------------------------------------------------------


  energy-cutoff  :      520.00
  volume of cell :     1720.35
      direct lattice vectors                 reciprocal lattice vectors
    12.403664512 -0.000001644 -0.000003398     0.080621336  0.000000011  0.000000028
    -0.000001659 12.517809865  0.000001404     0.000000011  0.079886179 -0.000000012
    -0.000003908  0.000001599 11.079952601     0.000000025 -0.000000010  0.090253094

  length of vectors
    12.403664512 12.517809865 11.079952601     0.080621336  0.079886179  0.090253094


 
 k-points in units of 2pi/SCALE and weight: KPOINTS created by Atomic Simulation Env
   0.00000000  0.00000000  0.00000000       0.125
   0.04031067  0.00000001  0.00000001       0.125
   0.00000001  0.03994309 -0.00000001       0.125
   0.04031067  0.03994309  0.00000001       0.125
   0.00000001 -0.00000001  0.04512655       0.125
   0.04031068  0.00000000  0.04512656       0.125
   0.00000002  0.03994308  0.04512654       0.125
   0.04031069  0.03994309  0.04512656       0.125
 
 k-points in reciprocal lattice and weights: KPOINTS created by Atomic Simulation Env
   0.00000000  0.00000000  0.00000000       0.125
   0.50000000  0.00000000  0.00000000       0.125
   0.00000000  0.50000000  0.00000000       0.125
   0.50000000  0.50000000  0.00000000       0.125
   0.00000000  0.00000000  0.50000000       0.125
   0.50000000  0.00000000  0.50000000       0.125
   0.00000000  0.50000000  0.50000000       0.125
   0.50000000  0.50000000  0.50000000       0.125
 
 position of ions in fractional coordinates (direct lattice) 
   0.06334211  0.06693060  0.10274344
   0.23132709  0.87370128  0.36825778
   0.55755995  0.19801677  0.37273518
   0.57410101  0.54116210  0.37875946
   0.58200585  0.88087800  0.37621589
   0.91590757  0.21218281  0.35498180
   0.89458302  0.53774955  0.36578467
   0.90887724  0.87772553  0.37070816
   0.08091836  0.13682185  0.62863223
   0.11704256  0.48654835  0.60858733
   0.06807348  0.79696828  0.61600019
   0.39978996  0.14509903  0.63148764
   0.40700636  0.48779906  0.63735556
   0.42209679  0.83652511  0.63556460
   0.76091275  0.16700673  0.63613710
   0.74056525  0.47692140  0.63051410
   0.24129617  0.55364153  0.37473383
   0.23659105  0.20688760  0.38466837
   0.74314971  0.80678337  0.62004330
   0.90328779  0.62503959  0.87278890
   0.89817276  0.98326284  0.86656738
   0.07357329  0.37907928  0.11965270
   0.06071595  0.71058337  0.13353481
   0.39908937  0.04795976  0.13067152
   0.40365132  0.39574710  0.11246594
   0.73867252  0.05806200  0.15573543
   0.71643341  0.37226999  0.15039617
   0.40519943  0.71249268  0.14317579
   0.25691660  0.33438596  0.85817844
   0.24537516  0.68631218  0.87367215
   0.22954686  0.97699340  0.88571166
   0.57697544  0.31148369  0.87453245
   0.59848776  0.64760203  0.85982120
   0.60437993  0.00770036  0.87275909
   0.92373091  0.32974092  0.87807481
   0.72305257  0.71321680  0.11927013
   0.91023295  0.01569378  0.64453606
   0.25751680  0.34350965  0.64397835
   0.22922364  0.67381476  0.64342384
   0.55657554  0.98487937  0.64624394
   0.55172743  0.33799027  0.64622403
   0.58423876  0.68082007  0.63258394
   0.87993470  0.34056778  0.64240893
   0.73887587  0.02454984  0.37564761
   0.06699659  0.01585393  0.33378708
   0.07884947  0.34985187  0.35434736
   0.05444885  0.68375671  0.35729630
   0.39746466  0.01493634  0.36307389
   0.39220156  0.34208701  0.35109704
   0.40260685  0.68662411  0.36863590
   0.23701006  0.00845816  0.66409166
   0.89803644  0.66895351  0.64026226
   0.89727881  0.84169249  0.14389244
   0.23508996  0.17810406  0.15068987
   0.89862913  0.20014261  0.13000666
   0.71607128  0.34387986  0.37493589
   0.07384192  0.19436657  0.84924189
   0.05577555  0.48870805  0.84029798
   0.06703065  0.83774395  0.86663800
   0.40110892  0.18714220  0.86051881
   0.43331321  0.52400264  0.85747923
   0.37924940  0.83827768  0.86014398
   0.74269253  0.16272530  0.86655600
   0.74128445  0.50359477  0.85152672
   0.74000285  0.85216075  0.84570042
   0.23208001  0.52271577  0.15236560
   0.23628761  0.85344317  0.14584190
   0.55792245  0.18287704  0.13768898
   0.57192089  0.51441059  0.14764732
   0.56642404  0.85904997  0.14865646
   0.88677234  0.51310107  0.12607313
   0.74067978  0.68551953  0.34599671
 
 position of ions in cartesian coordinates  (Angst):
   0.78567376  0.83782455  1.13839234
   2.86930078 10.93682674  4.08027921
   6.91578472  2.47873597  4.12988646
   7.12095392  6.77416396  4.19663566
   7.21900241 11.02666299  4.16845350
  11.36060849  2.65606315  3.93317873
  11.09610537  6.73144579  4.05287450
  11.27340548 10.98720034  4.10742703
   1.00368156  1.71271073  6.96521525
   1.45175346  6.09052055  6.74311908
   0.84435688  9.97629826  6.82525383
   4.95885787  1.81632243  6.99685193
   5.04836710  6.10617625  7.06186870
   5.23554311 10.47146257  7.04202542
   9.43810365  2.09055828  7.04836656
   9.18571963  5.97001125  6.98606454
   2.99295432  6.93037964  4.15203298
   2.93459411  2.58977992  4.26210678
   9.21777598 10.09916056  6.87004897
  11.20407421  7.82412659  9.67045743
  11.14062851 12.30829721  9.60152388
   0.91257726  4.74524237  1.32574648
   0.75309858  8.89494764  1.47956021
   4.95017007  0.60035071  1.44783293
   5.00675450  4.95388646  1.24611646
   9.16224539  0.72680808  1.72553877
   8.88639843  4.66000400  1.66638055
   5.02595607  8.91884749  1.58638058
   3.18670340  4.18578076  9.50857603
   3.04354666  8.59112634  9.68024616
   2.84721718 12.22981866  9.81364383
   7.15660588  3.89909406  9.68977653
   7.42343698  8.10655947  9.52677704
   7.49652245  0.09639209  9.67012731
  11.45764433  4.12763403  9.72902458
   8.96849988  8.92791126  1.32150598
  11.29022154  0.19645134  7.14142594
   3.19414886  4.29998905  7.13524924
   2.84320949  8.43468565  7.12910578
   6.90357215 12.32853275  7.16035175
   6.84343880  4.23089805  7.16013018
   7.24669797  8.52237629  7.00899909
  10.91441177  4.26316224  7.11785796
   9.16476686  0.30730958  4.16215526
   0.83100194  0.19845695  3.69834485
   0.97802045  4.37937963  3.92615222
   0.67536279  8.55913695  3.95882684
   4.93001682  0.18697015  4.02284015
   4.86473462  4.28218001  3.89013776
   4.99379766  8.59502996  4.08446787
   2.93979066  0.10587837  7.35810333
  11.13893913  8.37383241  7.09407333
  11.12954343 10.53614526  1.59431950
   2.91597612  2.22947257  1.66963604
  11.14629341  2.50534588  1.44046488
   8.88190589  4.30462214  4.15426991
   0.91590678  2.43304502  9.40955987
   0.69181712  6.11755569  9.31046228
   0.83142094 10.48672071  9.60230889
   4.97521683  2.34261124  9.53450655
   5.37466748  6.55936607  9.50082850
   4.70407756 10.49340133  9.53035444
   9.21210535  2.03696452  9.60139714
   9.19463952  6.30390377  9.43487385
   9.17874238 10.66718642  9.37031929
   2.87864110  6.54325654  1.68820358
   2.93083021 10.68323923  1.61592173
   6.92028201  2.28921937  1.52558576
   7.09391339  6.43929320  1.63592408
   7.02573171 10.75342345  1.64710579
  10.99922529  6.42290044  1.39688206
   9.18714106  8.58120249  3.83362560
 


--------------------------------------------------------------------------------------------------------


 k-point   1 :   0.0000 0.0000 0.0000  plane waves:   46305
 k-point   2 :   0.5000 0.0000 0.0000  plane waves:   46334
 k-point   3 :   0.0000 0.5000 0.0000  plane waves:   46306
 k-point   4 :   0.5000 0.5000 0.0000  plane waves:   46404
 k-point   5 :   0.0000 0.0000 0.5000  plane waves:   46334
 k-point   6 :   0.5000 0.0000 0.5000  plane waves:   46308
 k-point   7 :   0.0000 0.5000 0.5000  plane waves:   46308
 k-point   8 :   0.5000 0.5000 0.5000  plane waves:   46304

 maximum and minimum number of plane-waves per node :      5842     5737

 maximum number of plane-waves:     46404
 maximum index in each direction: 
   IXMAX=   23   IYMAX=   23   IZMAX=   20
   IXMIN=  -23   IYMIN=  -23   IZMIN=  -21


 parallel 3D FFT for wavefunctions:
    minimum data exchange during FFTs selected (reduces bandwidth)
 parallel 3D FFT for charge:
    minimum data exchange during FFTs selected (reduces bandwidth)


 total amount of memory used by VASP MPI-rank0   111004. kBytes
=======================================================================

   base      :      30000. kBytes
   nonl-proj :      16422. kBytes
   fftplans  :       6180. kBytes
   grid      :      15593. kBytes
   one-center:        146. kBytes
   wavefun   :      42663. kBytes
 
     INWAV:  cpu time      0.0000: real time      0.0001
 Broyden mixing: mesh for mixing (old mesh)
   NGX = 47   NGY = 47   NGZ = 41
  (NGX  =192   NGY  =192   NGZ  =168)
  gives a total of  90569 points

 initial charge density was supplied:
 charge density of overlapping atoms calculated
 number of electron     360.0000000 magnetization      72.0000000
 keeping initial charge density in first step


--------------------------------------------------------------------------------------------------------


 Maximum index for augmentation-charges           712 (set IRDMAX)


--------------------------------------------------------------------------------------------------------


 First call to EWALD:  gamma=   0.148
 Maximum number of real-space cells 3x 3x 3
 Maximum number of reciprocal cells 3x 3x 3

    FEWALD:  cpu time      0.0022: real time      0.0023


--------------------------------------- Ionic step        1  -------------------------------------------




--------------------------------------- Iteration      1(   1)  ---------------------------------------


    POTLOK:  cpu time      0.1373: real time      0.1384
    SETDIJ:  cpu time      0.5971: real time      0.5990
     EDDAV:  cpu time      8.6232: real time      8.6718
       DOS:  cpu time      0.0014: real time      0.0014
    --------------------------------------------
      LOOP:  cpu time      9.3590: real time      9.4107

 eigenvalue-minimisations  :  7168
 total energy-change (2. order) : 0.1816725E+04  (-0.1418433E+05)
 number of electron     360.0000000 magnetization      72.0000000
 augmentation part      360.0000000 magnetization      72.0000000

 Free energy of the ion-electron system (eV)
  ---------------------------------------------------
  alpha Z        PSCENC =       797.80382516
  Ewald energy   TEWEN  =    -12846.97812660
  -Hartree energ DENC   =     -1128.01982524
  -exchange      EXHF   =         0.00000000
  -V(xc)+E(xc)   XCENC  =      -293.23006757
  PAW double counting   =     10738.42099860    -9719.93139476
  entropy T*S    EENTRO =        -0.02206739
  eigenvalues    EBANDS =      1232.22985945
  atomic energy  EATOM  =     13036.45147835
  Solvation  Ediel_sol  =         0.00000000
  ---------------------------------------------------
  free energy    TOTEN  =      1816.72467999 eV

  energy without entropy =     1816.74674739  energy(sigma->0) =     1816.73571369


--------------------------------------------------------------------------------------------------------




--------------------------------------- Iteration      1(   2)  ---------------------------------------


     EDDAV:  cpu time      9.7619: real time      9.8208
       DOS:  cpu time      0.0012: real time      0.0012
    --------------------------------------------
      LOOP:  cpu time      9.7631: real time      9.8220

 eigenvalue-minimisations  :  8504
 total energy-change (2. order) :-0.1881439E+04  (-0.1805754E+04)
 number of electron     360.0000000 magnetization      72.0000000
 augmentation part      360.0000000 magnetization      72.0000000

 Free energy of the ion-electron system (eV)
  ---------------------------------------------------
  alpha Z        PSCENC =       797.80382516
  Ewald energy   TEWEN  =    -12846.97812660
  -Hartree energ DENC   =     -1128.01982524
  -exchange      EXHF   =         0.00000000
  -V(xc)+E(xc)   XCENC  =      -293.23006757
  PAW double counting   =     10738.42099860    -9719.93139476
  entropy T*S    EENTRO =        -0.01526097
  eigenvalues    EBANDS =      -649.21581551
  atomic energy  EATOM  =     13036.45147835
  Solvation  Ediel_sol  =         0.00000000
  ---------------------------------------------------
  free energy    TOTEN  =       -64.71418854 eV

  energy without entropy =      -64.69892757  energy(sigma->0) =      -64.70655805


--------------------------------------------------------------------------------------------------------




--------------------------------------- Iteration      1(   3)  ---------------------------------------


     EDDAV:  cpu time      9.8352: real time      9.8910
       DOS:  cpu time      0.0012: real time      0.0012
    --------------------------------------------
      LOOP:  cpu time      9.8364: real time      9.8922

 eigenvalue-minimisations  :  8608
 total energy-change (2. order) :-0.2171667E+03  (-0.2112421E+03)
 number of electron     360.0000000 magnetization      72.0000000
 augmentation part      360.0000000 magnetization      72.0000000

 Free energy of the ion-electron system (eV)
  ---------------------------------------------------
  alpha Z        PSCENC =       797.80382516
  Ewald energy   TEWEN  =    -12846.97812660
  -Hartree energ DENC   =     -1128.01982524
  -exchange      EXHF   =         0.00000000
  -V(xc)+E(xc)   XCENC  =      -293.23006757
  PAW double counting   =     10738.42099860    -9719.93139476
  entropy T*S    EENTRO =        -0.00015123
  eigenvalues    EBANDS =      -866.39759321
  atomic energy  EATOM  =     13036.45147835
  Solvation  Ediel_sol  =         0.00000000
  ---------------------------------------------------
  free energy    TOTEN  =      -281.88085650 eV

  energy without entropy =     -281.88070527  energy(sigma->0) =     -281.88078089


--------------------------------------------------------------------------------------------------------




--------------------------------------- Iteration      1(   4)  ---------------------------------------


     EDDAV:  cpu time      9.9176: real time      9.9733
       DOS:  cpu time      0.0009: real time      0.0009
    --------------------------------------------
      LOOP:  cpu time      9.9185: real time      9.9743

 eigenvalue-minimisations  :  8712
 total energy-change (2. order) :-0.7799746E+01  (-0.7714748E+01)
 number of electron     360.0000000 magnetization      72.0000000
 augmentation part      360.0000000 magnetization      72.0000000

 Free energy of the ion-electron system (eV)
  ---------------------------------------------------
  alpha Z        PSCENC =       797.80382516
  Ewald energy   TEWEN  =    -12846.97812660
  -Hartree energ DENC   =     -1128.01982524
  -exchange      EXHF   =         0.00000000
  -V(xc)+E(xc)   XCENC  =      -293.23006757
  PAW double counting   =     10738.42099860    -9719.93139476
  entropy T*S    EENTRO =        -0.00000595
  eigenvalues    EBANDS =      -874.19748459
  atomic energy  EATOM  =     13036.45147835
  Solvation  Ediel_sol  =         0.00000000
  ---------------------------------------------------
  free energy    TOTEN  =      -289.68060260 eV

  energy without entropy =     -289.68059665  energy(sigma->0) =     -289.68059963


--------------------------------------------------------------------------------------------------------




--------------------------------------- Iteration      1(   5)  ---------------------------------------


     EDDAV:  cpu time     10.2303: real time     10.2860
       DOS:  cpu time      0.0010: real time      0.0010
    CHARGE:  cpu time      0.4225: real time      0.4244
    MIXING:  cpu time      0.0071: real time      0.0073
    --------------------------------------------
      LOOP:  cpu time     10.6609: real time     10.7187

 eigenvalue-minimisations  :  9088
 total energy-change (2. order) :-0.2942198E+00  (-0.2934427E+00)
 number of electron     359.9999997 magnetization      48.8169536
 augmentation part      -66.8377944 magnetization      49.0301761

 Broyden mixing:
  rms(total) = 0.29258E+01    rms(broyden)= 0.29258E+01
  rms(prec ) = 0.30775E+01
  weight for this iteration     100.00

 Free energy of the ion-electron system (eV)
  ---------------------------------------------------
  alpha Z        PSCENC =       797.80382516
  Ewald energy   TEWEN  =    -12846.97812660
  -Hartree energ DENC   =     -1128.01982524
  -exchange      EXHF   =         0.00000000
  -V(xc)+E(xc)   XCENC  =      -293.23006757
  PAW double counting   =     10738.42099860    -9719.93139476
  entropy T*S    EENTRO =        -0.00000678
  eigenvalues    EBANDS =      -874.49170352
  atomic energy  EATOM  =     13036.45147835
  Solvation  Ediel_sol  =         0.00000000
  ---------------------------------------------------
  free energy    TOTEN  =      -289.97482236 eV

  energy without entropy =     -289.97481558  energy(sigma->0) =     -289.97481897


--------------------------------------------------------------------------------------------------------




--------------------------------------- Iteration      1(   6)  ---------------------------------------


    POTLOK:  cpu time      0.1341: real time      0.1354
    SETDIJ:  cpu time      0.5996: real time      0.6021
     EDDAV:  cpu time      9.2315: real time      9.2758
       DOS:  cpu time      0.0010: real time      0.0010
    CHARGE:  cpu time      0.4157: real time      0.4174
    MIXING:  cpu time      0.0073: real time      0.0073
    --------------------------------------------
      LOOP:  cpu time     10.3891: real time     10.4389

 eigenvalue-minimisations  :  7880
 total energy-change (2. order) : 0.3416106E+00  (-0.2636847E+01)
 number of electron     359.9999997 magnetization      27.8568628
 augmentation part      -66.2240457 magnetization      29.0371024

 Broyden mixing:
  rms(total) = 0.17332E+01    rms(broyden)= 0.17332E+01
  rms(prec ) = 0.17697E+01
  weight for this iteration     100.00

 eigenvalues of (default mixing * dielectric matrix)
  average eigenvalue GAMMA=   1.0104
  1.0104

 Free energy of the ion-electron system (eV)
  ---------------------------------------------------
  alpha Z        PSCENC =       797.80382516
  Ewald energy   TEWEN  =    -12846.97812660
  -Hartree energ DENC   =     -1181.46976426
  -exchange      EXHF   =         0.00000000
  -V(xc)+E(xc)   XCENC  =      -286.65791784
  PAW double counting   =     13050.97813345   -12036.05142422
  entropy T*S    EENTRO =        -0.00000394
  eigenvalues    EBANDS =      -823.70941187
  atomic energy  EATOM  =     13036.45147835
  Solvation  Ediel_sol  =         0.00000000
  ---------------------------------------------------
  free energy    TOTEN  =      -289.63321179 eV

  energy without entropy =     -289.63320785  energy(sigma->0) =     -289.63320982


--------------------------------------------------------------------------------------------------------




--------------------------------------- Iteration      1(   7)  ---------------------------------------


    POTLOK:  cpu time      0.1320: real time      0.1326
    SETDIJ:  cpu time      0.5983: real time      0.6005
     EDDAV:  cpu time      9.3524: real time      9.4078
       DOS:  cpu time      0.0009: real time      0.0009
    CHARGE:  cpu time      0.4231: real time      0.4246
    MIXING:  cpu time      0.0082: real time      0.0082
    --------------------------------------------
      LOOP:  cpu time     10.5147: real time     10.5745

 eigenvalue-minimisations  :  8016
 total energy-change (2. order) :-0.7407935E+01  (-0.8645109E+00)
 number of electron     359.9999997 magnetization       9.0527560
 augmentation part      -66.2063124 magnetization       9.7254576

 Broyden mixing:
  rms(total) = 0.91107E+00    rms(broyden)= 0.91107E+00
  rms(prec ) = 0.92693E+00
  weight for this iteration     100.00

 eigenvalues of (default mixing * dielectric matrix)
  average eigenvalue GAMMA=   1.4609
  0.8627  2.0592

 Free energy of the ion-electron system (eV)
  ---------------------------------------------------
  alpha Z        PSCENC =       797.80382516
  Ewald energy   TEWEN  =    -12846.97812660
  -Hartree energ DENC   =     -1198.79919868
  -exchange      EXHF   =         0.00000000
  -V(xc)+E(xc)   XCENC  =      -289.55134978
  PAW double counting   =     15183.01835134   -14169.76856280
  entropy T*S    EENTRO =        -0.00000000
  eigenvalues    EBANDS =      -809.21756393
  atomic energy  EATOM  =     13036.45147835
  Solvation  Ediel_sol  =         0.00000000
  ---------------------------------------------------
  free energy    TOTEN  =      -297.04114695 eV

  energy without entropy =     -297.04114695  energy(sigma->0) =     -297.04114695


--------------------------------------------------------------------------------------------------------




--------------------------------------- Iteration      1(   8)  ---------------------------------------


    POTLOK:  cpu time      0.1311: real time      0.1318
    SETDIJ:  cpu time      0.5983: real time      0.6008
     EDDAV:  cpu time      9.5059: real time      9.5527
       DOS:  cpu time      0.0007: real time      0.0009
    CHARGE:  cpu time      0.4196: real time      0.4211
    MIXING:  cpu time      0.0076: real time      0.0076
    --------------------------------------------
      LOOP:  cpu time     10.6632: real time     10.7149

 eigenvalue-minimisations  :  8208
 total energy-change (2. order) :-0.3203765E+01  (-0.1739996E+00)
 number of electron     359.9999997 magnetization       4.3217350
 augmentation part      -66.2129490 magnetization       4.6248976

 Broyden mixing:
  rms(total) = 0.32558E+00    rms(broyden)= 0.32558E+00
  rms(prec ) = 0.33100E+00
  weight for this iteration     100.00

 eigenvalues of (default mixing * dielectric matrix)
  average eigenvalue GAMMA=   1.3636
  2.5083  0.9262  0.6562

 Free energy of the ion-electron system (eV)
  ---------------------------------------------------
  alpha Z        PSCENC =       797.80382516
  Ewald energy   TEWEN  =    -12846.97812660
  -Hartree energ DENC   =     -1203.78060376
  -exchange      EXHF   =         0.00000000
  -V(xc)+E(xc)   XCENC  =      -289.21058528
  PAW double counting   =     16999.33063916   -15987.06047992
  entropy T*S    EENTRO =        -0.00000000
  eigenvalues    EBANDS =      -806.80105945
  atomic energy  EATOM  =     13036.45147835
  Solvation  Ediel_sol  =         0.00000000
  ---------------------------------------------------
  free energy    TOTEN  =      -300.24491236 eV

  energy without entropy =     -300.24491236  energy(sigma->0) =     -300.24491236


--------------------------------------------------------------------------------------------------------




--------------------------------------- Iteration      1(   9)  ---------------------------------------


    POTLOK:  cpu time      0.1307: real time      0.1314
    SETDIJ:  cpu time      0.6012: real time      0.6037
     EDDAV:  cpu time     10.2569: real time     10.3107
       DOS:  cpu time      0.0007: real time      0.0007
    CHARGE:  cpu time      0.4147: real time      0.4161
    MIXING:  cpu time      0.0073: real time      0.0073
    --------------------------------------------
      LOOP:  cpu time     11.4114: real time     11.4700

 eigenvalue-minimisations  :  9040
 total energy-change (2. order) :-0.3653171E+00  (-0.4181733E-01)
 number of electron     359.9999997 magnetization       2.2903117
 augmentation part      -66.2507152 magnetization       2.4414154

 Broyden mixing:
  rms(total) = 0.14694E+00    rms(broyden)= 0.14694E+00
  rms(prec ) = 0.14857E+00
  weight for this iteration     100.00

 eigenvalues of (default mixing * dielectric matrix)
  average eigenvalue GAMMA=   1.3290
  2.6341  1.2294  0.8319  0.6204

 Free energy of the ion-electron system (eV)
  ---------------------------------------------------
  alpha Z        PSCENC =       797.80382516
  Ewald energy   TEWEN  =    -12846.97812660
  -Hartree energ DENC   =     -1202.78070927
  -exchange      EXHF   =         0.00000000
  -V(xc)+E(xc)   XCENC  =      -289.24981077
  PAW double counting   =     17282.08926992   -16270.15779561
  entropy T*S    EENTRO =        -0.00000000
  eigenvalues    EBANDS =      -807.78836062
  atomic energy  EATOM  =     13036.45147835
  Solvation  Ediel_sol  =         0.00000000
  ---------------------------------------------------
  free energy    TOTEN  =      -300.61022944 eV

  energy without entropy =     -300.61022944  energy(sigma->0) =     -300.61022944


--------------------------------------------------------------------------------------------------------




--------------------------------------- Iteration      1(  10)  ---------------------------------------


    POTLOK:  cpu time      0.1297: real time      0.1306
    SETDIJ:  cpu time      0.5991: real time      0.6014
     EDDAV:  cpu time      9.5054: real time      9.5570
       DOS:  cpu time      0.0010: real time      0.0010
    CHARGE:  cpu time      0.4164: real time      0.4177
    MIXING:  cpu time      0.0074: real time      0.0074
    --------------------------------------------
      LOOP:  cpu time     10.6590: real time     10.7152

 eigenvalue-minimisations  :  8128
 total energy-change (2. order) :-0.1016705E+00  (-0.9216697E-02)
 number of electron     359.9999997 magnetization       0.7573425
 augmentation part      -66.2523346 magnetization       0.8251777

 Broyden mixing:
  rms(total) = 0.73196E-01    rms(broyden)= 0.73196E-01
  rms(prec ) = 0.74312E-01
  weight for this iteration     100.00

 eigenvalues of (default mixing * dielectric matrix)
  average eigenvalue GAMMA=   1.3725
  2.6974  1.7538  0.9645  0.8208  0.6262

 Free energy of the ion-electron system (eV)
  ---------------------------------------------------
  alpha Z        PSCENC =       797.80382516
  Ewald energy   TEWEN  =    -12846.97812660
  -Hartree energ DENC   =     -1202.98155011
  -exchange      EXHF   =         0.00000000
  -V(xc)+E(xc)   XCENC  =      -289.24839328
  PAW double counting   =     17286.97795386   -16275.05646185
  entropy T*S    EENTRO =        -0.00000000
  eigenvalues    EBANDS =      -807.68062545
  atomic energy  EATOM  =     13036.45147835
  Solvation  Ediel_sol  =         0.00000000
  ---------------------------------------------------
  free energy    TOTEN  =      -300.71189993 eV

  energy without entropy =     -300.71189993  energy(sigma->0) =     -300.71189993


--------------------------------------------------------------------------------------------------------




--------------------------------------- Iteration      1(  11)  ---------------------------------------


    POTLOK:  cpu time      0.1302: real time      0.1309
    SETDIJ:  cpu time      0.5967: real time      0.5992
     EDDAV:  cpu time     10.0775: real time     10.1252
       DOS:  cpu time      0.0009: real time      0.0009
    CHARGE:  cpu time      0.4204: real time      0.4219
    MIXING:  cpu time      0.0077: real time      0.0077
    --------------------------------------------
      LOOP:  cpu time     11.2334: real time     11.2857

 eigenvalue-minimisations  :  8800
 total energy-change (2. order) :-0.3161999E-01  (-0.3542773E-02)
 number of electron     359.9999997 magnetization       0.1732212
 augmentation part      -66.2377751 magnetization       0.1927371

 Broyden mixing:
  rms(total) = 0.28955E-01    rms(broyden)= 0.28955E-01
  rms(prec ) = 0.29332E-01
  weight for this iteration     100.00

 eigenvalues of (default mixing * dielectric matrix)
  average eigenvalue GAMMA=   1.4065
  2.9056  2.1831  1.1711  0.8573  0.6975  0.6245

 Free energy of the ion-electron system (eV)
  ---------------------------------------------------
  alpha Z        PSCENC =       797.80382516
  Ewald energy   TEWEN  =    -12846.97812660
  -Hartree energ DENC   =     -1204.11339209
  -exchange      EXHF   =         0.00000000
  -V(xc)+E(xc)   XCENC  =      -289.20484337
  PAW double counting   =     17210.90448496   -16198.95496254
  entropy T*S    EENTRO =        -0.00000000
  eigenvalues    EBANDS =      -806.65198378
  atomic energy  EATOM  =     13036.45147835
  Solvation  Ediel_sol  =         0.00000000
  ---------------------------------------------------
  free energy    TOTEN  =      -300.74351991 eV

  energy without entropy =     -300.74351991  energy(sigma->0) =     -300.74351991


--------------------------------------------------------------------------------------------------------




--------------------------------------- Iteration      1(  12)  ---------------------------------------


    POTLOK:  cpu time      0.1297: real time      0.1315
    SETDIJ:  cpu time      0.5999: real time      0.6030
     EDDAV:  cpu time      9.9830: real time     10.0364
       DOS:  cpu time      0.0009: real time      0.0009
    CHARGE:  cpu time      0.4180: real time      0.4201
    MIXING:  cpu time      0.0075: real time      0.0075
    --------------------------------------------
      LOOP:  cpu time     11.1389: real time     11.1994

 eigenvalue-minimisations  :  8608
 total energy-change (2. order) :-0.3576501E-02  (-0.4963404E-03)
 number of electron     359.9999997 magnetization       0.0592253
 augmentation part      -66.2371841 magnetization       0.0632909

 Broyden mixing:
  rms(total) = 0.10382E-01    rms(broyden)= 0.10382E-01
  rms(prec ) = 0.11034E-01
  weight for this iteration     100.00

 eigenvalues of (default mixing * dielectric matrix)
  average eigenvalue GAMMA=   1.3689
  3.0127  2.3348  1.2128  0.8793  0.8793  0.6087  0.6545

 Free energy of the ion-electron system (eV)
  ---------------------------------------------------
  alpha Z        PSCENC =       797.80382516
  Ewald energy   TEWEN  =    -12846.97812660
  -Hartree energ DENC   =     -1204.24211339
  -exchange      EXHF   =         0.00000000
  -V(xc)+E(xc)   XCENC  =      -289.20425710
  PAW double counting   =     17174.35606106   -16162.38343701
  entropy T*S    EENTRO =        -0.00000000
  eigenvalues    EBANDS =      -806.55052688
  atomic energy  EATOM  =     13036.45147835
  Solvation  Ediel_sol  =         0.00000000
  ---------------------------------------------------
  free energy    TOTEN  =      -300.74709642 eV

  energy without entropy =     -300.74709642  energy(sigma->0) =     -300.74709642


--------------------------------------------------------------------------------------------------------




--------------------------------------- Iteration      1(  13)  ---------------------------------------


    POTLOK:  cpu time      0.1303: real time      0.1311
    SETDIJ:  cpu time      0.5995: real time      0.6027
     EDDAV:  cpu time     11.0773: real time     11.1367
       DOS:  cpu time      0.0010: real time      0.0010
    CHARGE:  cpu time      0.4188: real time      0.4208
    MIXING:  cpu time      0.0079: real time      0.0080
    --------------------------------------------
      LOOP:  cpu time     12.2349: real time     12.3002

 eigenvalue-minimisations  :  9832
 total energy-change (2. order) :-0.1034763E-03  (-0.5390710E-04)
 number of electron     359.9999997 magnetization       0.0160580
 augmentation part      -66.2387793 magnetization       0.0169653

 Broyden mixing:
  rms(total) = 0.44692E-02    rms(broyden)= 0.44692E-02
  rms(prec ) = 0.46879E-02
  weight for this iteration     100.00

 eigenvalues of (default mixing * dielectric matrix)
  average eigenvalue GAMMA=   1.3459
  3.0553  2.4288  1.0812  1.0812  1.0107  0.8509  0.6497  0.6094

 Free energy of the ion-electron system (eV)
  ---------------------------------------------------
  alpha Z        PSCENC =       797.80382516
  Ewald energy   TEWEN  =    -12846.97812660
  -Hartree energ DENC   =     -1204.13774777
  -exchange      EXHF   =         0.00000000
  -V(xc)+E(xc)   XCENC  =      -289.21410186
  PAW double counting   =     17161.51822777   -16149.53474020
  entropy T*S    EENTRO =        -0.00000000
  eigenvalues    EBANDS =      -806.65601474
  atomic energy  EATOM  =     13036.45147835
  Solvation  Ediel_sol  =         0.00000000
  ---------------------------------------------------
  free energy    TOTEN  =      -300.74719989 eV

  energy without entropy =     -300.74719989  energy(sigma->0) =     -300.74719989


--------------------------------------------------------------------------------------------------------




--------------------------------------- Iteration      1(  14)  ---------------------------------------


    POTLOK:  cpu time      0.1295: real time      0.1303
    SETDIJ:  cpu time      0.5966: real time      0.6000
     EDDAV:  cpu time      9.6484: real time      9.6987
       DOS:  cpu time      0.0007: real time      0.0007
    CHARGE:  cpu time      0.4155: real time      0.4175
    MIXING:  cpu time      0.0080: real time      0.0080
    --------------------------------------------
      LOOP:  cpu time     10.7986: real time     10.8551

 eigenvalue-minimisations  :  8264
 total energy-change (2. order) :-0.1561469E-04  (-0.1036188E-04)
 number of electron     359.9999997 magnetization       0.0046135
 augmentation part      -66.2384415 magnetization       0.0049763

 Broyden mixing:
  rms(total) = 0.16880E-02    rms(broyden)= 0.16880E-02
  rms(prec ) = 0.17919E-02
  weight for this iteration     100.00

 eigenvalues of (default mixing * dielectric matrix)
  average eigenvalue GAMMA=   1.3412
  3.0835  2.4624  1.5261  1.2000  0.8838  0.8838  0.7767  0.6130  0.6411

 Free energy of the ion-electron system (eV)
  ---------------------------------------------------
  alpha Z        PSCENC =       797.80382516
  Ewald energy   TEWEN  =    -12846.97812660
  -Hartree energ DENC   =     -1204.13751102
  -exchange      EXHF   =         0.00000000
  -V(xc)+E(xc)   XCENC  =      -289.21493710
  PAW double counting   =     17156.82093425   -16144.83425290
  entropy T*S    EENTRO =        -0.00000000
  eigenvalues    EBANDS =      -806.65862564
  atomic energy  EATOM  =     13036.45147835
  Solvation  Ediel_sol  =         0.00000000
  ---------------------------------------------------
  free energy    TOTEN  =      -300.74721551 eV

  energy without entropy =     -300.74721551  energy(sigma->0) =     -300.74721551


--------------------------------------------------------------------------------------------------------




--------------------------------------- Iteration      1(  15)  ---------------------------------------


    POTLOK:  cpu time      0.1299: real time      0.1307
    SETDIJ:  cpu time      0.5963: real time      0.5994
     EDDAV:  cpu time      9.8473: real time      9.8993
       DOS:  cpu time      0.0008: real time      0.0009
    CHARGE:  cpu time      0.4148: real time      0.4167
    MIXING:  cpu time      0.0078: real time      0.0078
    --------------------------------------------
      LOOP:  cpu time     10.9970: real time     11.0549

 eigenvalue-minimisations  :  8528
 total energy-change (2. order) :-0.3706859E-05  (-0.1690537E-05)
 number of electron     359.9999997 magnetization       0.0016587
 augmentation part      -66.2386052 magnetization       0.0018727

 Broyden mixing:
  rms(total) = 0.74100E-03    rms(broyden)= 0.74100E-03
  rms(prec ) = 0.79284E-03
  weight for this iteration     100.00

 eigenvalues of (default mixing * dielectric matrix)
  average eigenvalue GAMMA=   1.3035
  3.0947  2.4334  1.6952  1.1081  0.9619  0.9619  0.8171  0.7215  0.6204  0.6204

 Free energy of the ion-electron system (eV)
  ---------------------------------------------------
  alpha Z        PSCENC =       797.80382516
  Ewald energy   TEWEN  =    -12846.97812660
  -Hartree energ DENC   =     -1204.12750013
  -exchange      EXHF   =         0.00000000
  -V(xc)+E(xc)   XCENC  =      -289.21504524
  PAW double counting   =     17156.40881510   -16144.42140270
  entropy T*S    EENTRO =        -0.00000000
  eigenvalues    EBANDS =      -806.66926315
  atomic energy  EATOM  =     13036.45147835
  Solvation  Ediel_sol  =         0.00000000
  ---------------------------------------------------
  free energy    TOTEN  =      -300.74721921 eV

  energy without entropy =     -300.74721921  energy(sigma->0) =     -300.74721921


--------------------------------------------------------------------------------------------------------




--------------------------------------- Iteration      1(  16)  ---------------------------------------


    POTLOK:  cpu time      0.1294: real time      0.1301
    SETDIJ:  cpu time      0.5972: real time      0.6006
     EDDAV:  cpu time      6.6292: real time      6.6735
       DOS:  cpu time      0.0009: real time      0.0009
    --------------------------------------------
      LOOP:  cpu time      7.3566: real time      7.4050

 eigenvalue-minimisations  :  4824
 total energy-change (2. order) :-0.6312689E-06  (-0.1527146E-06)
 number of electron     359.9999997 magnetization       0.0016587
 augmentation part      -66.2386052 magnetization       0.0018727

 Free energy of the ion-electron system (eV)
  ---------------------------------------------------
  alpha Z        PSCENC =       797.80382516
  Ewald energy   TEWEN  =    -12846.97812660
  -Hartree energ DENC   =     -1204.12361403
  -exchange      EXHF   =         0.00000000
  -V(xc)+E(xc)   XCENC  =      -289.21517225
  PAW double counting   =     17156.36754847   -16144.37993044
  entropy T*S    EENTRO =        -0.00000000
  eigenvalues    EBANDS =      -806.67322849
  atomic energy  EATOM  =     13036.45147835
  Solvation  Ediel_sol  =         0.00000000
  ---------------------------------------------------
  free energy    TOTEN  =      -300.74721984 eV

  energy without entropy =     -300.74721984  energy(sigma->0) =     -300.74721984


--------------------------------------------------------------------------------------------------------




 average (electrostatic) potential at core
  the test charge radii are     1.1631  1.0808
  (the norm of the test charge is              1.0000)
       1 -33.4394       2 -33.4716       3 -33.5079       4 -33.6335       5 -33.5392
       6 -33.5464       7 -33.6159       8 -33.4318       9 -33.3392      10 -33.6114
      11 -33.5613      12 -33.5243      13 -33.3720      14 -33.3778      15 -33.4263
      16 -33.2986      17 -33.5330      18 -33.4160      19 -33.2639      20 -33.3644
      21 -33.3722      22 -33.6768      23 -33.4081      24 -33.3493      25 -33.5896
      26 -33.4731      27 -33.3281      28 -33.4145      29 -33.4386      30 -33.5005
      31 -33.3120      32 -33.4960      33 -33.3230      34 -33.4192      35 -33.3525
      36 -33.4420      37 -54.8581      38 -55.2796      39 -54.9272      40 -54.8132
      41 -54.6766      42 -54.8578      43 -54.7857      44 -54.9569      45 -54.7333
      46 -54.8204      47 -54.8999      48 -54.7176      49 -54.6338      50 -54.8773
      51 -54.8939      52 -54.8283      53 -54.7012      54 -54.7678      55 -55.0686
      56 -54.7523      57 -54.7128      58 -54.7439      59 -54.6224      60 -54.8112
      61 -54.7102      62 -54.8550      63 -54.9711      64 -55.0609      65 -54.8683
      66 -54.9076      67 -54.7508      68 -54.8721      69 -55.0292      70 -54.8198
      71 -54.7053      72 -54.8491
 
 
 
 E-fermi :   3.5433     XC(G=0):  -9.3720     alpha+bet : -8.8310

 Fermi energy:         3.5432734651

 spin component 1

 k-point     1 :       0.0000    0.0000    0.0000
  band No.  band energies     occupation 
      1     -10.9801      1.00000
      2     -10.6501      1.00000
      3     -10.5536      1.00000
      4     -10.4635      1.00000
      5     -10.3746      1.00000
      6     -10.2283      1.00000
      7     -10.1532      1.00000
      8     -10.0908      1.00000
      9     -10.0396      1.00000
     10      -9.9977      1.00000
     11      -9.9087      1.00000
     12      -9.8683      1.00000
     13      -9.8167      1.00000
     14      -9.7703      1.00000
     15      -9.7174      1.00000
     16      -9.6395      1.00000
     17      -9.6067      1.00000
     18      -9.5899      1.00000
     19      -9.5254      1.00000
     20      -9.5041      1.00000
     21      -9.4461      1.00000
     22      -9.3857      1.00000
     23      -9.3625      1.00000
     24      -9.3357      1.00000
     25      -9.2917      1.00000
     26      -9.2474      1.00000
     27      -9.2059      1.00000
     28      -9.1879      1.00000
     29      -9.1470      1.00000
     30      -9.1312      1.00000
     31      -9.0922      1.00000
     32      -9.0640      1.00000
     33      -9.0081      1.00000
     34      -8.9811      1.00000
     35      -8.9452      1.00000
     36      -8.8920      1.00000
     37      -5.4349      1.00000
     38      -5.3737      1.00000
     39      -5.2972      1.00000
     40      -5.2641      1.00000
     41      -5.1435      1.00000
     42      -5.0554      1.00000
     43      -5.0093      1.00000
     44      -4.9941      1.00000
     45      -4.7947      1.00000
     46      -4.7151      1.00000
     47      -4.5828      1.00000
     48      -4.5326      1.00000
     49      -4.4995      1.00000
     50      -4.4655      1.00000
     51      -4.4329      1.00000
     52      -4.3874      1.00000
     53      -4.3795      1.00000
     54      -4.3451      1.00000
     55      -4.3254      1.00000
     56      -4.2944      1.00000
     57      -4.2765      1.00000
     58      -4.2466      1.00000
     59      -4.2036      1.00000
     60      -4.1531      1.00000
     61      -4.0968      1.00000
     62      -4.0300      1.00000
     63      -3.9754      1.00000
     64      -3.9159      1.00000
     65      -3.9075      1.00000
     66      -3.8406      1.00000
     67      -3.7327      1.00000
     68      -3.6055      1.00000
     69      -3.5002      1.00000
     70      -3.4109      1.00000
     71      -2.4587      1.00000
     72      -2.2903      1.00000
     73      -1.8590      1.00000
     74      -1.6522      1.00000
     75      -1.6248      1.00000
     76      -1.5580      1.00000
     77      -1.4295      1.00000
     78      -1.3726      1.00000
     79      -1.3415      1.00000
     80      -1.3182      1.00000
     81      -1.2326      1.00000
     82      -1.1664      1.00000
     83      -1.1087      1.00000
     84      -1.0610      1.00000
     85      -1.0195      1.00000
     86      -0.8598      1.00000
     87      -0.8176      1.00000
     88      -0.7377      1.00000
     89      -0.6596      1.00000
     90      -0.6187      1.00000
     91      -0.6047      1.00000
     92      -0.5153      1.00000
     93      -0.4591      1.00000
     94      -0.3089      1.00000
     95      -0.2207      1.00000
     96      -0.1812      1.00000
     97      -0.1192      1.00000
     98      -0.0518      1.00000
     99       0.0053      1.00000
    100       0.0349      1.00000
    101       0.0733      1.00000
    102       0.1287      1.00000
    103       0.1607      1.00000
    104       0.2119      1.00000
    105       0.2448      1.00000
    106       0.2484      1.00000
    107       0.3183      1.00000
    108       0.3588      1.00000
    109       0.3953      1.00000
    110       0.4338      1.00000
    111       0.4638      1.00000
    112       0.5266      1.00000
    113       0.5647      1.00000
    114       0.6177      1.00000
    115       0.6445      1.00000
    116       0.6683      1.00000
    117       0.6790      1.00000
    118       0.7132      1.00000
    119       0.7566      1.00000
    120       0.7863      1.00000
    121       0.8435      1.00000
    122       0.8564      1.00000
    123       0.8981      1.00000
    124       0.9134      1.00000
    125       0.9517      1.00000
    126       0.9688      1.00000
    127       1.0360      1.00000
    128       1.0598      1.00000
    129       1.0848      1.00000
    130       1.1368      1.00000
    131       1.1689      1.00000
    132       1.2322      1.00000
    133       1.2508      1.00000
    134       1.2924      1.00000
    135       1.3117      1.00000
    136       1.3638      1.00000
    137       1.4050      1.00000
    138       1.4318      1.00000
    139       1.4693      1.00000
    140       1.5351      1.00000
    141       1.5679      1.00000
    142       1.6130      1.00000
    143       1.6319      1.00000
    144       1.7015      1.00000
    145       1.7126      1.00000
    146       1.7632      1.00000
    147       1.7943      1.00000
    148       1.8492      1.00000
    149       1.8828      1.00000
[...]
   0.104E+02 0.276E+01 -.203E+02   -.124E+02 -.244E+01 0.226E+02   0.202E+01 -.195E+00 -.285E+01   -.544E-04 -.712E-04 -.182E-03
   0.371E+01 0.187E+01 0.295E+02   -.362E+01 -.360E+01 -.322E+02   0.220E+00 0.197E+01 0.278E+01   -.205E-03 0.718E-04 -.393E-03
   -.588E+01 0.147E+02 0.344E+02   0.573E+01 -.161E+02 -.365E+02   0.367E+00 0.148E+01 0.165E+01   0.269E-03 0.110E-03 -.469E-04
   0.149E+02 0.134E+02 0.319E+02   -.148E+02 -.148E+02 -.340E+02   -.172E+00 0.139E+01 0.999E+00   -.769E-04 -.198E-05 0.189E-03
   -.124E+02 -.187E+00 0.185E+02   0.139E+02 0.265E+00 -.201E+02   -.148E+01 -.593E+00 0.162E+01   0.307E-03 -.189E-03 0.139E-03
   -.140E+02 -.161E+02 0.182E+02   0.153E+02 0.168E+02 -.199E+02   -.125E+01 0.399E+00 0.183E+01   0.127E-03 -.654E-04 0.156E-03
   -.109E+02 0.139E+02 0.298E+02   0.113E+02 -.150E+02 -.315E+02   0.430E+00 0.114E+01 0.166E+01   -.829E-04 0.274E-03 0.214E-03
   0.178E+02 0.831E+01 0.238E+02   -.187E+02 -.945E+01 -.256E+02   0.311E+00 0.118E+01 0.196E+01   0.122E-03 -.711E-04 0.464E-03
   -.324E+02 0.645E+01 0.375E+02   0.345E+02 -.659E+01 -.388E+02   -.126E+01 -.700E+00 0.147E+01   0.761E-04 0.870E-04 0.251E-03
   -.706E+01 -.761E+01 -.292E+02   0.736E+01 0.834E+01 0.315E+02   -.307E+00 -.860E+00 -.212E+01   0.199E-03 -.122E-03 0.251E-03
   0.124E+01 -.591E+01 -.295E+02   -.103E+01 0.670E+01 0.306E+02   -.448E+00 -.843E+00 -.874E+00   -.132E-03 0.150E-03 0.225E-03
   0.103E+02 -.129E+02 -.291E+02   -.106E+02 0.140E+02 0.304E+02   -.221E+00 -.121E+01 -.161E+01   0.178E-03 -.311E-03 0.574E-03
   -.587E+01 0.538E+00 -.235E+02   0.600E+01 -.192E+00 0.253E+02   0.159E+00 -.666E+00 -.121E+01   0.284E-03 0.970E-04 0.541E-04
   0.157E+01 0.186E+01 -.259E+02   -.146E+01 -.142E+01 0.275E+02   0.748E-02 -.692E+00 -.162E+01   -.130E-03 0.852E-04 0.156E-03
   -.381E+01 -.165E+02 -.151E+02   0.412E+01 0.177E+02 0.163E+02   0.393E-01 -.992E+00 -.130E+01   -.232E-03 0.701E-04 0.398E-03
   -.302E+01 -.863E+01 -.260E+02   0.336E+01 0.955E+01 0.280E+02   -.315E+00 -.102E+01 -.195E+01   -.156E-03 -.210E-03 0.154E-03
   0.633E+01 0.147E+02 0.335E+02   -.629E+01 -.162E+02 -.352E+02   -.123E+00 0.145E+01 0.979E+00   -.454E-03 0.191E-03 0.231E-03
   -.135E+02 0.599E+01 0.213E+02   0.136E+02 -.733E+01 -.227E+02   0.352E-01 0.124E+01 0.139E+01   -.449E-03 0.567E-04 0.368E-03
   0.389E+01 -.173E+02 0.333E+02   -.393E+01 0.187E+02 -.352E+02   -.201E+00 -.117E+01 0.174E+01   0.127E-04 0.225E-03 -.310E-03
   -.166E+01 -.148E+02 0.287E+02   0.190E+01 0.164E+02 -.299E+02   -.396E+00 -.118E+01 0.119E+01   -.204E-03 -.206E-03 -.290E-03
   0.390E+01 -.396E+01 0.197E+02   -.434E+01 0.493E+01 -.215E+02   0.407E+00 -.106E+01 0.192E+01   0.606E-04 -.165E-03 -.316E-03
   -.133E+02 -.150E+00 -.255E+02   0.138E+02 0.424E+00 0.275E+02   -.122E+00 -.312E+00 -.212E+01   -.236E-04 0.150E-04 0.850E-04
   -.815E+01 0.129E+02 -.197E+02   0.884E+01 -.140E+02 0.214E+02   -.214E+00 0.957E+00 -.142E+01   0.217E-03 -.195E-03 -.397E-03
   -.308E+02 -.160E+02 -.203E+02   0.322E+02 0.163E+02 0.217E+02   -.122E+01 -.564E-01 -.139E+01   0.203E-03 -.118E-03 0.126E-03
   0.149E+02 0.105E+02 -.169E+02   -.157E+02 -.113E+02 0.181E+02   0.843E+00 0.818E+00 -.182E+01   0.207E-03 0.281E-03 0.449E-04
   -.553E+00 0.234E+02 -.320E+02   0.462E+00 -.250E+02 0.339E+02   0.295E+00 0.119E+01 -.176E+01   -.342E-03 0.946E-04 -.168E-03
   0.217E+02 -.853E+01 -.358E+02   -.225E+02 0.827E+01 0.379E+02   -.316E-01 0.231E+00 -.160E+01   -.593E-04 0.354E-04 -.232E-03
   -.344E+02 0.102E+01 -.320E+02   0.365E+02 -.836E+00 0.340E+02   -.143E+01 -.266E+00 -.171E+01   0.150E-03 0.165E-03 0.241E-03
   -.345E+01 -.458E+01 -.245E+02   0.426E+01 0.550E+01 0.263E+02   -.124E+01 -.602E+00 -.189E+01   0.111E-03 0.135E-03 -.170E-03
   0.728E+01 0.128E+02 -.336E+02   -.759E+01 -.144E+02 0.355E+02   -.531E-01 0.118E+01 -.136E+01   -.292E-03 0.470E-04 -.256E-03
   0.241E+01 0.154E+02 -.346E+02   -.238E+01 -.170E+02 0.365E+02   0.173E+00 0.139E+01 -.147E+01   -.257E-03 -.310E-03 -.389E-04
   0.354E+01 -.103E+02 0.392E+02   -.365E+01 0.115E+02 -.412E+02   0.237E+00 -.121E+01 0.145E+01   0.177E-03 0.207E-03 -.371E-03
   0.248E+01 -.435E+00 0.263E+02   -.267E+01 0.126E+01 -.280E+02   0.153E+00 -.140E+01 0.149E+01   0.595E-04 0.133E-04 -.465E-03
   -.205E+01 -.413E+01 0.257E+02   0.221E+01 0.503E+01 -.274E+02   0.239E+00 -.824E+00 0.199E+01   0.132E-03 0.324E-04 -.217E-03
   0.792E+01 -.190E+02 0.247E+02   -.790E+01 0.204E+02 -.263E+02   -.485E+00 -.867E+00 0.164E+01   0.342E-04 0.976E-04 -.456E-03
   0.113E+01 -.857E+01 0.387E+02   -.136E+01 0.956E+01 -.406E+02   0.281E+00 -.131E+01 0.177E+01   -.690E-04 -.225E-03 -.666E-03
   -.101E+02 -.595E+01 0.117E+02   0.101E+02 0.649E+01 -.130E+02   0.433E+00 -.854E+00 0.193E+01   -.131E-03 -.103E-03 -.488E-03
   0.961E+00 -.742E+01 -.220E+02   -.104E+01 0.833E+01 0.236E+02   -.368E+00 -.141E+01 -.124E+01   -.231E-03 0.187E-03 0.217E-03
 -----------------------------------------------------------------------------------------------
   -.765E+01 -.375E+01 -.105E+01   0.391E-13 -.115E-12 -.497E-13   0.765E+01 0.375E+01 0.105E+01   0.769E-04 -.485E-03 -.618E-03
 
 
 POSITION                                       TOTAL-FORCE (eV/Angst)
 -----------------------------------------------------------------------------------
      0.78567      0.83782      1.13839         0.225207     -0.468901      0.064242
      2.86930     10.93683      4.08028         0.059333      0.363285      0.085333
      6.91578      2.47874      4.12989        -0.196603      0.432438     -0.238990
      7.12095      6.77416      4.19664         0.167541      0.226178     -0.022731
      7.21900     11.02666      4.16845        -0.222227      0.161272     -0.070489
     11.36061      2.65606      3.93318         0.071712      0.135787      0.395581
     11.09611      6.73145      4.05287         0.009760      0.274012     -0.535627
     11.27341     10.98720      4.10743         0.044241      0.137787     -0.075101
      1.00368      1.71271      6.96522        -0.190216      0.324149     -0.192558
      1.45175      6.09052      6.74312        -0.582205      0.528270      0.158226
      0.84436      9.97630      6.82525        -0.301346      0.260222      0.566862
      4.95886      1.81632      6.99685         0.354522     -0.371568      0.111714
      5.04837      6.10618      7.06187         0.563973      0.052257     -0.337589
      5.23554     10.47146      7.04203        -0.059609     -0.472063     -0.211334
      9.43810      2.09056      7.04837        -0.080222      0.040160     -0.069499
      9.18572      5.97001      6.98606        -0.816663      0.173632     -0.666971
      2.99295      6.93038      4.15203        -0.135080     -0.098479      0.165390
      2.93459      2.58978      4.26211         0.011244      0.043606     -0.452480
      9.21778     10.09916      6.87005         0.246075      0.439576     -0.305004
     11.20407      7.82413      9.67046         0.495244      0.562510     -0.083532
     11.14063     12.30830      9.60152         0.435758     -0.085834      0.355813
      0.91258      4.74524      1.32575        -0.064300      0.292108      0.492146
      0.75310      8.89495      1.47956         0.100100      0.138140     -0.411612
      4.95017      0.60035      1.44783        -0.164098     -0.370177      0.089348
      5.00675      4.95389      1.24612        -0.299530     -0.392882      0.448102
      9.16225      0.72681      1.72554        -0.219705     -0.310086     -0.702606
      8.88640      4.66000      1.66638         0.525844     -0.254929     -0.291938
      5.02596      8.91885      1.58638        -0.088548      0.357249     -0.179525
      3.18670      4.18578      9.50858        -0.320454     -0.262856      1.422315
      3.04355      8.59113      9.68025        -0.027165     -0.386380     -0.073219
      2.84722     12.22982      9.81364        -0.365253      0.005377      0.407300
      7.15661      3.89909      9.68978        -0.271907     -0.017557     -0.173668
      7.42344      8.10656      9.52678        -0.367929      0.405464      0.129530
      7.49652      0.09639      9.67013        -0.289000     -0.282128     -0.061128
     11.45764      4.12763      9.72902         0.014226      0.125376     -0.531165
      8.96850      8.92791      1.32151         0.309380      0.233247      0.001419
     11.29022      0.19645      7.14143         0.212259      0.059353     -0.396534
      3.19415      4.29999      7.13525        -0.102295      0.037814     -1.119811
      2.84321      8.43469      7.12911        -0.001791     -0.515209      0.006543
      6.90357     12.32853      7.16035         0.020963      1.155610      0.145974
      6.84344      4.23090      7.16013         0.772962      0.114916     -0.064161
      7.24670      8.52238      7.00900        -0.519433      0.041607      0.158741
     10.91441      4.26316      7.11786         0.843685     -0.845568      0.183880
      9.16477      0.30731      4.16216        -0.001198     -0.129848      0.182913
      0.83100      0.19846      3.69834        -0.241778     -0.052768      0.288727
      0.97802      4.37938      3.92615        -0.463677     -0.117229     -0.243781
      0.67536      8.55914      3.95883         0.289759     -0.319366      0.550988
      4.93002      0.18697      4.02284         0.117275     -0.255775     -0.016354
      4.86473      4.28218      3.89014         0.358037      0.176194     -0.167771
      4.99380      8.59503      4.08447         0.024902     -0.102799      0.073615
      2.93979      0.10588      7.35810        -0.079180     -0.061933     -0.659752
     11.13894      8.37383      7.09407         0.150887     -0.098629      0.006100
     11.12954     10.53615      1.59432        -0.243303      0.275206     -0.172099
      2.91598      2.22947      1.66964        -0.164929      0.456166      0.040582
     11.14629      2.50535      1.44046        -0.027606     -0.085322      0.170078
      8.88191      4.30462      4.15427         0.377475     -0.038328     -0.080171
      0.91591      2.43305      9.40956         0.480181     -0.133940      0.255548
      0.69182      6.11756      9.31046         0.164485      0.261634      0.049877
      0.83142     10.48672      9.60231        -0.023156      0.078074     -0.584538
      4.97522      2.34261      9.53451         0.202922     -0.327367      0.067394
      5.37467      6.55937      9.50083        -0.792086     -0.026400      0.481383
      4.70408     10.49340      9.53035         0.617199     -0.077836      0.339771
      9.21211      2.03696      9.60140        -0.422799      0.321870     -0.135486
      9.19464      6.30390      9.43487        -0.372290     -0.478763      0.531313
      9.17874     10.66719      9.37032         0.201796     -0.144046      0.382560
      2.87864      6.54326      1.68820         0.131383     -0.042761     -0.522895
      2.93083     10.68324      1.61592        -0.029710     -0.570399     -0.228688
      6.92028      2.28922      1.52559         0.393571      0.077051      0.365775
      7.09391      6.43929      1.63592        -0.470552      0.557798      0.023380
      7.02573     10.75342      1.64711         0.051872     -0.319432     -0.136255
     10.99923      6.42290      1.39688         0.415465     -0.311365      0.699524
      9.18714      8.58120      3.83363        -0.443394     -0.496471      0.317078
 -----------------------------------------------------------------------------------
    total drift:                                0.000537      0.001482      0.000544


--------------------------------------------------------------------------------------------------------



  FREE ENERGIE OF THE ION-ELECTRON SYSTEM (eV)
  ---------------------------------------------------
  free  energy   TOTEN  =      -300.74721984 eV

  energy  without entropy=     -300.74721984  energy(sigma->0) =     -300.74721984
 


--------------------------------------------------------------------------------------------------------


    POTLOK:  cpu time      0.7293: real time      0.7331


--------------------------------------------------------------------------------------------------------


     LOOP+:  cpu time    181.3794: real time    182.3600
    4ORBIT:  cpu time      0.0000: real time      0.0000



 total charge

# of ion       s       p       d       tot
------------------------------------------
    1        1.328   0.749   0.054   2.131
    2        1.319   0.761   0.055   2.135
    3        1.332   0.724   0.053   2.110
    4        1.342   0.702   0.049   2.093
    5        1.324   0.745   0.053   2.122
    6        1.330   0.743   0.051   2.124
    7        1.333   0.714   0.048   2.095
    8        1.324   0.750   0.054   2.129
    9        1.306   0.812   0.058   2.176
   10        1.332   0.748   0.052   2.132
   11        1.327   0.737   0.050   2.114
   12        1.331   0.736   0.053   2.120
   13        1.312   0.809   0.064   2.184
   14        1.326   0.779   0.060   2.165
   15        1.330   0.761   0.054   2.146
   16        1.314   0.820   0.068   2.202
   17        1.307   0.785   0.057   2.148
   18        1.316   0.763   0.057   2.136
   19        1.309   0.815   0.063   2.187
   20        1.321   0.787   0.061   2.169
   21        1.318   0.784   0.061   2.162
   22        1.330   0.713   0.047   2.090
   23        1.328   0.752   0.056   2.136
   24        1.324   0.765   0.058   2.146
   25        1.330   0.728   0.049   2.107
   26        1.323   0.777   0.054   2.154
   27        1.318   0.797   0.062   2.177
   28        1.325   0.757   0.052   2.135
   29        1.315   0.813   0.066   2.194
   30        1.331   0.745   0.054   2.131
   31        1.311   0.803   0.064   2.178
   32        1.329   0.740   0.051   2.120
   33        1.310   0.821   0.063   2.194
   34        1.321   0.781   0.055   2.158
   35        1.322   0.780   0.062   2.164
   36        1.321   0.755   0.055   2.130
   37        1.477   2.312   0.033   3.822
   38        1.478   2.352   0.047   3.877
   39        1.478   2.306   0.033   3.817
   40        1.476   2.305   0.033   3.813
   41        1.475   2.294   0.029   3.798
   42        1.477   2.303   0.034   3.814
   43        1.475   2.324   0.034   3.833
   44        1.481   2.291   0.034   3.806
   45        1.474   2.293   0.028   3.794
   46        1.477   2.289   0.029   3.795
   47        1.474   2.300   0.032   3.806
   48        1.476   2.284   0.027   3.787
   49        1.472   2.289   0.025   3.786
   50        1.479   2.294   0.032   3.805
   51        1.473   2.329   0.035   3.837
   52        1.473   2.302   0.030   3.806
   53        1.476   2.298   0.029   3.803
   54        1.475   2.303   0.030   3.808
   55        1.482   2.294   0.037   3.814
   56        1.480   2.286   0.030   3.795
   57        1.472   2.313   0.029   3.814
   58        1.474   2.310   0.031   3.814
   59        1.476   2.274   0.025   3.774
   60        1.475   2.305   0.031   3.811
   61        1.474   2.306   0.030   3.810
   62        1.473   2.333   0.035   3.842
   63        1.480   2.297   0.036   3.813
   64        1.476   2.348   0.043   3.867
   65        1.474   2.321   0.035   3.830
   66        1.476   2.299   0.031   3.807
   67        1.477   2.293   0.030   3.800
   68        1.479   2.289   0.032   3.800
   69        1.476   2.322   0.036   3.834
   70        1.478   2.288   0.030   3.796
   71        1.478   2.262   0.024   3.764
   72        1.475   2.294   0.031   3.800
--------------------------------------------------
tot        100.760 110.451   3.174 214.385



 magnetization (x)

# of ion       s       p       d       tot
------------------------------------------
    1       -0.000   0.000   0.000   0.000
    2       -0.000   0.000  -0.000   0.000
    3       -0.000   0.000   0.000   0.000
    4       -0.000   0.000   0.000   0.000
    5       -0.000   0.000  -0.000   0.000
    6       -0.000   0.000   0.000   0.000
    7       -0.000   0.000   0.000   0.000
    8       -0.000   0.000  -0.000   0.000
    9       -0.000   0.000   0.000   0.000
   10       -0.000   0.000   0.000   0.000
   11       -0.000   0.000   0.000  -0.000
   12       -0.000   0.000   0.000   0.000
   13       -0.000   0.000   0.000   0.000
   14       -0.000   0.000  -0.000  -0.000
   15       -0.000   0.000   0.000   0.000
   16       -0.000   0.000   0.000   0.000
   17       -0.000   0.000   0.000   0.000
   18       -0.000   0.000   0.000   0.000
   19       -0.000   0.000  -0.000   0.000
   20       -0.000   0.000   0.000   0.000
   21       -0.000   0.000  -0.000   0.000
   22       -0.000   0.000   0.000   0.000
   23       -0.000   0.000   0.000   0.000
   24       -0.000   0.000  -0.000   0.000
   25       -0.000   0.000   0.000   0.000
   26       -0.000   0.000  -0.000  -0.000
   27       -0.000   0.000   0.000   0.000
   28       -0.000   0.000  -0.000   0.000
   29       -0.000   0.000  -0.000   0.000
   30       -0.000   0.000  -0.000   0.000
   31       -0.000   0.000  -0.000   0.000
   32       -0.000   0.000   0.000   0.000
   33       -0.000   0.000  -0.000  -0.000
   34       -0.000  -0.000  -0.000  -0.000
   35       -0.000   0.000   0.000   0.000
   36       -0.000   0.000  -0.000   0.000
   37       -0.000  -0.000  -0.000  -0.000
   38       -0.000  -0.000   0.000  -0.000
   39       -0.000  -0.000   0.000  -0.000
   40       -0.000  -0.000  -0.000  -0.000
   41       -0.000  -0.000   0.000  -0.000
   42       -0.000  -0.000   0.000  -0.000
   43       -0.000  -0.000   0.000  -0.000
   44       -0.000  -0.000  -0.000  -0.000
   45       -0.000  -0.000   0.000  -0.000
   46       -0.000  -0.000   0.000  -0.000
   47       -0.000  -0.000   0.000  -0.000
   48       -0.000  -0.000   0.000  -0.000
   49       -0.000  -0.000   0.000  -0.000
   50       -0.000  -0.000   0.000  -0.000
   51       -0.000  -0.000  -0.000  -0.000
   52       -0.000  -0.000   0.000  -0.000
   53       -0.000  -0.000  -0.000  -0.000
   54       -0.000  -0.000   0.000  -0.000
   55       -0.000  -0.000   0.000  -0.000
   56       -0.000  -0.000   0.000  -0.000
   57       -0.000  -0.000   0.000  -0.000
   58       -0.000  -0.000   0.000  -0.000
   59       -0.000  -0.000  -0.000  -0.000
   60       -0.000  -0.000   0.000  -0.000
   61       -0.000  -0.000   0.000  -0.000
   62        0.000  -0.000  -0.000  -0.000
   63       -0.000  -0.000   0.000  -0.000
   64       -0.000  -0.000   0.000  -0.000
   65       -0.000  -0.000  -0.000  -0.000
   66       -0.000  -0.000   0.000  -0.000
   67       -0.000  -0.000   0.000  -0.000
   68       -0.000  -0.000   0.000  -0.000
   69       -0.000  -0.000   0.000  -0.000
   70       -0.000  -0.000  -0.000  -0.000
   71       -0.000  -0.000   0.000  -0.000
   72       -0.000  -0.000   0.000  -0.000
--------------------------------------------------
tot         -0.000  -0.000   0.000  -0.000
 

 total amount of memory used by VASP MPI-rank0   111004. kBytes
=======================================================================

   base      :      30000. kBytes
   nonl-proj :      16422. kBytes
   fftplans  :       6180. kBytes
   grid      :      15593. kBytes
   one-center:        146. kBytes
   wavefun   :      42663. kBytes
 
  
  
 General timing and accounting informations for this job:
 ========================================================
  
                  Total CPU time used (sec):      192.883
                            User time (sec):      186.561
                          System time (sec):        6.322
                         Elapsed time (sec):      195.968
  
                   Maximum memory used (kb):      318200.
                   Average memory used (kb):          N/A
  
                          Minor page faults:       103592
                          Major page faults:           29
                 Voluntary context switches:        12275
