 running  160 mpi-ranks, with    1 threads/rank, on   10 nodes
 distrk:  each k-point on   80 cores,    2 groups
 distr:  one band on    5 cores,   16 groups
 vasp.6.4.2 20Jul23 (build Oct 12 2023 10:31:02) complex                         
 POSCAR found type information on POSCAR GeSe
 POSCAR found :  2 types and       8 ions
 Reading from existing POTCAR
 scaLAPACK will be used
 Reading from existing POTCAR
 LDA part: xc-table for Pade appr. of Perdew
 POSCAR, INCAR and KPOINTS ok, starting setup
 FFT: planning ... GRIDC
 FFT: planning ... GRID_SOFT
 FFT: planning ... GRID
 WAVECAR not read
 entering main loop
       N       E                     dE             d eps       ncg     rms          rms(c)
DAV:   1     0.162570060549E+03    0.16257E+03   -0.15891E+04  2560   0.104E+03
DAV:   2    -0.224726979445E+02   -0.18504E+03   -0.17982E+03  3696   0.155E+02
DAV:   3    -0.336924895152E+02   -0.11220E+02   -0.11185E+02  3328   0.440E+01
DAV:   4    -0.337794849132E+02   -0.86995E-01   -0.86978E-01  3248   0.439E+00
DAV:   5    -0.337800712585E+02   -0.58635E-03   -0.58633E-03  3280   0.366E-01    0.656E+00
DAV:   6    -0.334149343979E+02    0.36514E+00   -0.79203E-01  3296   0.292E+00    0.413E+00
DAV:   7    -0.334060215179E+02    0.89129E-02   -0.20539E-01  3024   0.163E+00    0.129E+00
DAV:   8    -0.334046749528E+02    0.13466E-02   -0.20112E-02  3008   0.541E-01    0.167E-01
DAV:   9    -0.334050196641E+02   -0.34471E-03   -0.25887E-03  3488   0.231E-01    0.647E-02
DAV:  10    -0.334051356357E+02   -0.11597E-03   -0.23471E-04  3200   0.679E-02    0.220E-02
DAV:  11    -0.334051608183E+02   -0.25183E-04   -0.34442E-05  3248   0.260E-02    0.102E-02
DAV:  12    -0.334051621703E+02   -0.13520E-05   -0.49659E-06  3456   0.977E-03    0.332E-03
DAV:  13    -0.334051625157E+02   -0.34536E-06   -0.10954E-06  1984   0.485E-03
   1 F= -.33405163E+02 E0= -.33405047E+02  d E =-.230572E-03
