 vasp.6.4.2 20Jul23 (build Oct 12 2023 10:31:02) complex                         
 executed on              LinuxNV date 2024.11.01  23:42:02
 running  128 mpi-ranks, with    1 threads/rank, on    2 nodes
 distrk:  each k-point on   64 cores,    2 groups
 distr:  one band on NCORE=   8 cores,    8 groups


--------------------------------------------------------------------------------------------------------


 INCAR:
   ENCUT = 520.000000
   SIGMA = 0.050000
   EDIFF = 1.00e-06
   ALGO = N
   GGA = PE
   PREC = Accurate
   SYSTEM = 01_AOPT
   ICHARG = 0
   ISMEAR = 0
   ISPIN = 2
   ISTART = 1
   ISYM = -1
   KPAR = 2
   LORBIT = 11
   NBANDS = 220
   NELM = 100
   NELMIN = 5
   NPAR = 8
   LASPH = .TRUE.
   LCHARG = .FALSE.
   LWAVE = .FALSE.
   LREAL = .FALSE.

 POTCAR:    PAW_PBE Ge 05Jan2001                  
 POTCAR:    PAW_PBE Se 06Sep2000                  
 -----------------------------------------------------------------------------
|                                                                             |
|           W    W    AA    RRRRR   N    N  II  N    N   GGGG   !!!           |
|           W    W   A  A   R    R  NN   N  II  NN   N  G    G  !!!           |
|           W    W  A    A  R    R  N N  N  II  N N  N  G       !!!           |
|           W WW W  AAAAAA  RRRRR   N  N N  II  N  N N  G  GGG   !            |
|           WW  WW  A    A  R   R   N   NN  II  N   NN  G    G                |
|           W    W  A    A  R    R  N    N  II  N    N   GGGG   !!!           |
|                                                                             |
|     You use a magnetic or noncollinear calculation, but did not specify     |
|     the initial magnetic moment with the MAGMOM tag. Note that a            |
|     default of 1 will be used for all atoms. This ferromagnetic setup       |
|     may break the symmetry of the crystal, in particular it may rule        |
|     out finding an antiferromagnetic solution. Thence, we recommend         |
|     setting the initial magnetic moment manually or verifying carefully     |
|     that this magnetic setup is desired.                                    |
|                                                                             |
 -----------------------------------------------------------------------------

 POTCAR:    PAW_PBE Ge 05Jan2001                  
   VRHFIN =Ge: s2p2                                                                                 
   LEXCH  = PE                                                                                      
   EATOM  =   104.9960 eV,    7.7170 Ry                                                             
                                                                                                    
   TITEL  = PAW_PBE Ge 05Jan2001                                                                    
   LULTRA =        F    use ultrasoft PP ?                                                          
   IUNSCR =        1    unscreen: 0-lin 1-nonlin 2-no                                               
   RPACOR =    2.170    partial core radius                                                         
   POMASS =   72.610; ZVAL   =    4.000    mass and valenz                                          
   RCORE  =    2.300    outmost cutoff radius                                                       
   RWIGS  =    2.300; RWIGS  =    1.217    wigner-seitz radius (au A)                               
   ENMAX  =  173.807; ENMIN  =  130.355 eV                                                          
   ICORE  =        3    local potential                                                             
   LCOR   =        T    correct aug charges                                                         
   LPAW   =        T    paw PP                                                                      
   EAUG   =  385.843                                                                                
   DEXC   =    0.000                                                                                
   RMAX   =    2.342    core radius for proj-oper                                                   
   RAUG   =    1.300    factor for augmentation sphere                                              
   RDEP   =    2.318    radius for radial grids                                                     
   RDEPT  =    2.103    core radius for aug-charge                                                  
                                                                                                    
   Atomic configuration                                                                             
   10 entries                                                                                       
     n  l   j            E        occ.                                                              
     1  0  0.50    -10959.8463   2.0000                                                             
     2  0  0.50     -1371.6056   2.0000                                                             
     2  1  1.50     -1198.4791   6.0000                                                             
     3  0  0.50      -168.4733   2.0000                                                             
     3  1  1.50      -115.6019   6.0000                                                             
     3  2  2.50       -29.3106  10.0000                                                             
     4  0  0.50       -11.7309   2.0000                                                             
     4  1  0.50        -3.8952   2.0000                                                             
     4  2  1.50        -4.0817   0.0000                                                             
     4  3  2.50        -4.0817   0.0000                                                             
   Description                                                                                      
     l       E           TYP  RCUT    TYP  RCUT                                                     
     0    -11.7309493     23  2.300                                                                 
     0     -7.4578696     23  2.300                                                                 
     1     -3.8952261     23  2.300                                                                 
     1      6.1178114     23  2.300                                                                 
     2     -4.0817478     23  2.300                                                                 
     3     -1.3605826      7  2.300                                                                 
  local pseudopotential read in
  partial core-charges read in
  partial kinetic energy density read in
  atomic valenz-charges read in
  non local Contribution for L=            0  read in
    real space projection operators read in
  non local Contribution for L=            0  read in
    real space projection operators read in
  non local Contribution for L=            1  read in
    real space projection operators read in
  non local Contribution for L=            1  read in
    real space projection operators read in
  non local Contribution for L=            2  read in
    real space projection operators read in
    PAW grid and wavefunctions read in
 
   number of l-projection  operators is LMAX  =            5
   number of lm-projection operators is LMMAX =           13
 
 POTCAR:    PAW_PBE Se 06Sep2000                  
   VRHFIN =Se: s2p4                                                                                 
   LEXCH  = PE                                                                                      
   EATOM  =   257.1286 eV,   18.8984 Ry                                                             
                                                                                                    
   TITEL  = PAW_PBE Se 06Sep2000                                                                    
   LULTRA =        F    use ultrasoft PP ?                                                          
   IUNSCR =        1    unscreen: 0-lin 1-nonlin 2-no                                               
   RPACOR =    1.900    partial core radius                                                         
   POMASS =   78.960; ZVAL   =    6.000    mass and valenz                                          
   RCORE  =    2.100    outmost cutoff radius                                                       
   RWIGS  =    2.200; RWIGS  =    1.164    wigner-seitz radius (au A)                               
   ENMAX  =  211.555; ENMIN  =  158.666 eV                                                          
   ICORE  =        3    local potential                                                             
   LCOR   =        T    correct aug charges                                                         
   LPAW   =        T    paw PP                                                                      
   EAUG   =  446.842                                                                                
   DEXC   =    0.000                                                                                
   RMAX   =    2.147    core radius for proj-oper                                                   
   RAUG   =    1.300    factor for augmentation sphere                                              
   RDEP   =    2.177    radius for radial grids                                                     
   RDEPT  =    1.928    core radius for aug-charge                                                  
                                                                                                    
   Atomic configuration                                                                             
   10 entries                                                                                       
     n  l   j            E        occ.                                                              
     1  0  0.50    -12503.4787   2.0000                                                             
     2  0  0.50     -1606.9547   2.0000                                                             
     2  1  1.50     -1413.3140   6.0000                                                             
     3  0  0.50      -213.4885   2.0000                                                             
     3  1  1.50      -152.9538   6.0000                                                             
     3  2  2.50       -53.1221  10.0000                                                             
     4  0  0.50       -17.2865   2.0000                                                             
     4  1  0.50        -6.5110   4.0000                                                             
     4  2  2.50        -6.8029   0.0000                                                             
     4  3  2.50        -6.8029   0.0000                                                             
   Description                                                                                      
     l       E           TYP  RCUT    TYP  RCUT                                                     
     0    -17.2865377     23  2.100                                                                 
     0    -15.3094411     23  2.100                                                                 
     1     -6.5110275     23  2.100                                                                 
     1     -0.0695192     23  2.100                                                                 
     2     -6.8029130     23  2.100                                                                 
     3     -1.3605826      7  2.100                                                                 
  local pseudopotential read in
  partial core-charges read in
  partial kinetic energy density read in
  atomic valenz-charges read in
  non local Contribution for L=            0  read in
    real space projection operators read in
  non local Contribution for L=            0  read in
    real space projection operators read in
  non local Contribution for L=            1  read in
    real space projection operators read in
  non local Contribution for L=            1  read in
    real space projection operators read in
  non local Contribution for L=            2  read in
    real space projection operators read in
    PAW grid and wavefunctions read in
 
   number of l-projection  operators is LMAX  =            5
   number of lm-projection operators is LMMAX =           13
 
 -----------------------------------------------------------------------------
|                                                                             |
|               ----> ADVICE to this user running VASP <----                  |
|                                                                             |
|     You have a (more or less) 'large supercell' and for larger cells it     |
|     might be more efficient to use real-space projection operators.         |
|     Therefore, try LREAL= Auto in the INCAR file.                           |
|     Mind: For very accurate calculation, you might also keep the            |
|     reciprocal projection scheme (i.e. LREAL=.FALSE.).                      |
|                                                                             |
 -----------------------------------------------------------------------------

  PAW_PBE Ge 05Jan2001                  :
 energy of atom  1       EATOM= -104.9960
 kinetic energy error for atom=    0.0002 (will be added to EATOM!!)
  PAW_PBE Se 06Sep2000                  :
 energy of atom  2       EATOM= -257.1286
 kinetic energy error for atom=    0.0007 (will be added to EATOM!!)
 
 
 POSCAR: Ge Se
  positions in cartesian coordinates
  No initial velocities read in
 exchange correlation table for  LEXCH =        8
   RHO(1)=    0.500       N(1)  =     2000
   RHO(2)=  100.500       N(2)  =     4000
 


--------------------------------------------------------------------------------------------------------


 ion  position               nearest neighbor table
   1  0.063  0.049  0.120-  55 2.57  45 2.62
   2  0.221  0.887  0.387-  45 2.53  67 2.69
   3  0.545  0.211  0.383-  49 2.61  48 2.79  68 2.80
   4  0.534  0.517  0.369-  69 2.49  50 2.64  49 2.66
   5  0.541  0.880  0.394-  48 2.61  70 2.73  44 2.81
   6  0.906  0.218  0.367-  55 2.57  56 2.59  46 2.60
   7  0.906  0.540  0.370-  71 2.51  72 2.78
   8  0.859  0.860  0.381-  44 2.52  53 2.65
   9  0.044  0.170  0.628-  37 2.48  57 2.55  43 2.75
  10  0.081  0.467  0.634-  38 2.60  58 2.67  43 2.68
  11  0.067  0.813  0.627-  39 2.60  59 2.60  52 2.65
  12  0.415  0.146  0.635-  51 2.52  60 2.54  40 2.60
  13  0.409  0.484  0.627-  41 2.52  61 2.61  38 2.63
  14  0.399  0.865  0.633-  62 2.54  51 2.71  39 2.82
  15  0.745  0.170  0.628-  63 2.52  37 2.58  40 2.79
  16  0.716  0.502  0.628-  41 2.61  42 2.70  64 2.73
  17  0.235  0.550  0.384-  50 2.52  66 2.57  47 2.58
  18  0.220  0.193  0.377-  54 2.61  46 2.75
  19  0.752  0.797  0.629-  65 2.51  42 2.51  52 2.58
  20  0.914  0.634  0.865-  64 2.47  52 2.52  58 2.62
  21  0.901  0.972  0.876-  59 2.46  65 2.48  37 2.60
  22  0.088  0.378  0.132-  66 2.56  46 2.56  71 2.83
  23  0.083  0.712  0.130-  47 2.57  67 2.60  53 2.78
  24  0.428  0.030  0.115-  48 2.59  68 2.64
  25  0.402  0.371  0.126-  49 2.56  66 2.68  69 2.81
  26  0.743  0.044  0.134-  44 2.56  68 2.63  55 2.83
  27  0.724  0.381  0.156-  56 2.47  69 2.72  71 2.79
  28  0.398  0.718  0.133-  50 2.50  67 2.61  70 2.66
  29  0.251  0.327  0.881-  38 2.49  57 2.66  60 2.75
  30  0.215  0.657  0.872-  58 2.60  39 2.64  61 2.79
  31  0.234  0.021  0.877-  51 2.61  57 2.66
  32  0.561  0.329  0.875-  63 2.64  60 2.65  41 2.68
  33  0.547  0.665  0.871-  61 2.44  42 2.52  62 2.66
  34  0.582  0.963  0.865-  40 2.63  62 2.66  65 2.75
  35  0.881  0.336  0.882-  43 2.45  64 2.67  63 2.72
  36  0.753  0.704  0.124-  72 2.52  53 2.62
  37  0.900  0.035  0.652-   9 2.48  15 2.58  21 2.60
  38  0.250  0.347  0.658-  29 2.49  10 2.60  13 2.63
  39  0.243  0.700  0.641-  11 2.60  30 2.64  14 2.82
  40  0.581  0.019  0.635-  12 2.60  34 2.63  15 2.79
  41  0.566  0.356  0.636-  13 2.52  16 2.61  32 2.68
  42  0.591  0.678  0.650-  19 2.51  33 2.52  16 2.70
  43  0.908  0.341  0.663-  35 2.45  10 2.68   9 2.75
  44  0.724  0.009  0.360-   8 2.52  26 2.56   5 2.81
  45  0.068  0.018  0.354-   2 2.53   1 2.62
  46  0.067  0.351  0.360-  22 2.56   6 2.60  18 2.75
  47  0.087  0.693  0.361-  23 2.57  17 2.58
  48  0.408  0.036  0.347-  24 2.59   5 2.61   3 2.79
  49  0.395  0.356  0.356-  25 2.56   3 2.61   4 2.66
  50  0.392  0.674  0.353-  28 2.50  17 2.52   4 2.64
  51  0.253  0.025  0.642-  12 2.52  31 2.61  14 2.71
  52  0.913  0.667  0.641-  20 2.52  19 2.58  11 2.65
  53  0.906  0.846  0.149-  36 2.62   8 2.65  23 2.78
  54  0.244  0.191  0.143-  18 2.61
  55  0.915  0.193  0.138-   6 2.57   1 2.57  26 2.83
  56  0.758  0.363  0.375-  27 2.47   6 2.59
  57  0.096  0.182  0.850-   9 2.55  31 2.66  29 2.66
  58  0.076  0.502  0.872-  30 2.60  20 2.62  10 2.67
  59  0.062  0.859  0.856-  21 2.46  11 2.60
  60  0.412  0.178  0.861-  12 2.54  32 2.65  29 2.75
  61  0.402  0.533  0.855-  33 2.44  13 2.61  30 2.79
  62  0.414  0.832  0.858-  14 2.54  33 2.66  34 2.66
  63  0.720  0.191  0.852-  15 2.52  32 2.64  35 2.72
  64  0.758  0.511  0.869-  20 2.47  35 2.67  16 2.73
  65  0.761  0.833  0.851-  21 2.48  19 2.51  34 2.75
  66  0.242  0.513  0.156-  22 2.56  17 2.57  25 2.68
  67  0.237  0.851  0.148-  23 2.60  28 2.61   2 2.69
  68  0.578  0.177  0.137-  26 2.63  24 2.64   3 2.80
  69  0.563  0.528  0.147-   4 2.49  27 2.72  25 2.81
  70  0.566  0.847  0.152-  28 2.66   5 2.73
  71  0.905  0.512  0.146-   7 2.51  27 2.79  22 2.83
  72  0.726  0.670  0.346-  36 2.52   7 2.78
 

IMPORTANT INFORMATION: All symmetrisations will be switched off!
NOSYMM: (Re-)initialisation of all symmetry stuff for point group C_1.


----------------------------------------------------------------------------------------

                                     Primitive cell                                     

  volume of cell :    1722.6527

  direct lattice vectors                    reciprocal lattice vectors
    12.407745593 -0.000008129  0.000003056     0.080594818  0.000000053 -0.000000026
    -0.000008204 12.522550299  0.000000082     0.000000052  0.079855938 -0.000000001
     0.000003515  0.000000093 11.086949316    -0.000000022 -0.000000001  0.090196137

  length of vectors
    12.407745593 12.522550299 11.086949316     0.080594818  0.079855938  0.090196137

  position of ions in fractional coordinates (direct lattice)
     0.062502176  0.049394728  0.120067308
     0.220592447  0.887314025  0.386952064
     0.544698972  0.210789937  0.383494760
     0.533501411  0.517474211  0.368726331
     0.540842241  0.879838969  0.394369596
     0.905951022  0.218067933  0.367241838
     0.906450474  0.539561417  0.370328965
     0.858571482  0.859531955  0.381457997
     0.044228413  0.170472212  0.627702073
     0.080542794  0.466587044  0.634445124
     0.067425250  0.812693492  0.626929879
     0.415096155  0.145698530  0.634884262
     0.409380069  0.483551921  0.627025639
     0.398706740  0.864604898  0.632891063
     0.745360692  0.170284446  0.628170554
     0.716186207  0.502483102  0.627707278
     0.234555631  0.550050842  0.384320991
     0.219960187  0.193339180  0.376787756
     0.751647983  0.796911032  0.629366815
     0.913846372  0.634478690  0.865058148
     0.901357048  0.972171595  0.876022975
     0.088466312  0.377914306  0.131852089
     0.082950083  0.711619935  0.130275819
     0.428042631  0.029993811  0.114532448
     0.401941656  0.371435505  0.126375089
     0.742787044  0.044240500  0.133778968
     0.723637667  0.380655733  0.156287822
     0.397630516  0.717990175  0.132659569
     0.250670221  0.326691367  0.881341748
     0.215460100  0.656841943  0.871952684
     0.233977453  0.021105813  0.876532542
     0.560729128  0.328881591  0.875252268
     0.546502355  0.664706269  0.870783744
     0.582457122  0.963429444  0.864705096
     0.880547493  0.335954579  0.881790092
     0.753173406  0.703645308  0.124154017
     0.899898005  0.034660025  0.652399273
     0.250456532  0.347357622  0.658241592
     0.243220157  0.700278200  0.641398963
     0.580840817  0.018678100  0.635416703
     0.566429658  0.356296694  0.635528996
     0.590679317  0.677508096  0.649851977
     0.907618351  0.340582502  0.663183139
     0.723907517  0.008536151  0.359807661
     0.067512193  0.017971231  0.353692502
     0.066740073  0.351182234  0.359852990
     0.086509259  0.693440631  0.361279778
     0.408056032  0.036460297  0.347311077
     0.395444701  0.355699519  0.356425843
     0.392035339  0.674009745  0.352951747
     0.252818670  0.025138700  0.641996599
     0.912987501  0.666970338  0.640843475
     0.905584435  0.846478097  0.148757749
     0.243628049  0.191266112  0.143023592
     0.915008533  0.192614702  0.137895195
     0.757623845  0.363288837  0.374718211
     0.095710771  0.182016655  0.850268214
     0.076472158  0.501587262  0.872260424
     0.062223147  0.858811878  0.855768658
     0.412256994  0.177500533  0.860683890
     0.401865797  0.533409089  0.855442187
     0.414049179  0.831622240  0.857904162
     0.719946838  0.190735415  0.852293091
     0.758001806  0.511327120  0.869326806
     0.760734732  0.833177444  0.851343444
     0.241702823  0.512769101  0.156457746
     0.237054522  0.851314002  0.148375283
     0.578387492  0.177294280  0.137101049
     0.562981344  0.528489782  0.146707699
     0.566407969  0.847410399  0.152469662
     0.905052548  0.511869116  0.145809435
     0.726268764  0.670281805  0.346361082

  ion indices of the primitive-cell ions
   primitive index   ion index
                 1           1
                 2           2
                 3           3
                 4           4
                 5           5
                 6           6
                 7           7
                 8           8
                 9           9
                10          10
                11          11
                12          12
                13          13
                14          14
                15          15
                16          16
                17          17
                18          18
                19          19
                20          20
                21          21
                22          22
                23          23
                24          24
                25          25
                26          26
                27          27
                28          28
                29          29
                30          30
                31          31
                32          32
                33          33
                34          34
                35          35
                36          36
                37          37
                38          38
                39          39
                40          40
                41          41
                42          42
                43          43
                44          44
                45          45
                46          46
                47          47
                48          48
                49          49
                50          50
                51          51
                52          52
                53          53
                54          54
                55          55
                56          56
                57          57
                58          58
                59          59
                60          60
                61          61
                62          62
                63          63
                64          64
                65          65
                66          66
                67          67
                68          68
                69          69
                70          70
                71          71
                72          72

----------------------------------------------------------------------------------------

 
 
 KPOINTS: KPOINTS created by Atomic Simulation Env

Automatic generation of k-mesh.
 Grid dimensions read from file:
 generate k-points for:    2    2    2

 Generating k-lattice:

  Cartesian coordinates                     Fractional coordinates (reciprocal lattice)
     0.040297409  0.000000026 -0.000000013     0.500000000 -0.000000000  0.000000000
     0.000000026  0.039927969 -0.000000000    -0.000000000  0.500000000 -0.000000000
    -0.000000011 -0.000000000  0.045098069    -0.000000000  0.000000000  0.500000000

  Length of vectors
     0.040297409  0.039927969  0.045098069

  Shift w.r.t. Gamma in fractional coordinates (k-lattice)
     0.000000000  0.000000000  0.000000000

 
 Subroutine IBZKPT returns following result:
 ===========================================
 
 Found      8 irreducible k-points:
 
 Following reciprocal coordinates:
            Coordinates               Weight
  0.000000  0.000000  0.000000      1.000000
  0.500000  0.000000  0.000000      1.000000
  0.000000  0.500000  0.000000      1.000000
  0.500000  0.500000  0.000000      1.000000
  0.000000  0.000000  0.500000      1.000000
  0.500000  0.000000  0.500000      1.000000
  0.000000  0.500000  0.500000      1.000000
  0.500000  0.500000  0.500000      1.000000
 
 Following cartesian coordinates:
            Coordinates               Weight
  0.000000  0.000000  0.000000      1.000000
  0.040297  0.000000 -0.000000      1.000000
  0.000000  0.039928 -0.000000      1.000000
  0.040297  0.039928 -0.000000      1.000000
 -0.000000 -0.000000  0.045098      1.000000
  0.040297  0.000000  0.045098      1.000000
  0.000000  0.039928  0.045098      1.000000
  0.040297  0.039928  0.045098      1.000000
 
 -----------------------------------------------------------------------------
|                                                                             |
|           W    W    AA    RRRRR   N    N  II  N    N   GGGG   !!!           |
|           W    W   A  A   R    R  NN   N  II  NN   N  G    G  !!!           |
|           W    W  A    A  R    R  N N  N  II  N N  N  G       !!!           |
|           W WW W  AAAAAA  RRRRR   N  N N  II  N  N N  G  GGG   !            |
|           WW  WW  A    A  R   R   N   NN  II  N   NN  G    G                |
|           W    W  A    A  R    R  N    N  II  N    N   GGGG   !!!           |
|                                                                             |
|     The number of bands has been changed from the values supplied in        |
|     the INCAR file. This is a result of running the parallel version.       |
|     The orbitals not found in the WAVECAR file will be initialized with     |
|     random numbers, which is usually adequate. For correlated               |
|     calculations, however, you should redo the groundstate calculation.     |
|     I found NBANDS = 220. Now, NBANDS = 224.                                |
|                                                                             |
 -----------------------------------------------------------------------------



--------------------------------------------------------------------------------------------------------




 Dimension of arrays:
   k-points           NKPTS =      8   k-points in BZ     NKDIM =      8   number of bands    NBANDS=    224
   number of dos      NEDOS =    301   number of ions     NIONS =     72
   non local maximal  LDIM  =      5   non local SUM 2l+1 LMDIM =     13
   total plane-waves  NPLWV = 774144
   max r-space proj   IRMAX =      1   max aug-charges    IRDMAX=  24621
   dimension x,y,z NGX =    96 NGY =   96 NGZ =   84
   dimension x,y,z NGXF=   192 NGYF=  192 NGZF=  168
   support grid    NGXF=   192 NGYF=  192 NGZF=  168
   ions per type =              36  36
   NGX,Y,Z   is equivalent  to a cutoff of  12.86, 12.74, 12.60 a.u.
   NGXF,Y,Z  is equivalent  to a cutoff of  25.73, 25.49, 25.19 a.u.

 SYSTEM =  01_AOPT                                 
 POSCAR =  Ge Se                                   

 Startparameter for this run:
   NWRITE =      2    write-flag & timer
   PREC   = accura    normal or accurate (medium, high low for compatibility)
   ISTART =      0    job   : 0-new  1-cont  2-samecut
   ICHARG =      2    charge: 1-file 2-atom 10-const
   ISPIN  =      2    spin polarized calculation?
   LNONCOLLINEAR =      F non collinear calculations
   LSORBIT =      F    spin-orbit coupling
   INIWAV =      1    electr: 0-lowe 1-rand  2-diag
   LASPH  =      T    aspherical Exc in radial PAW
 Electronic Relaxation 1
   ENCUT  =  520.0 eV  38.22 Ry    6.18 a.u.  23.07 23.28 20.61*2*pi/ulx,y,z
   ENINI  =  520.0     initial cutoff
   ENAUG  =  446.8 eV  augmentation charge cutoff
   NELM   =    100;   NELMIN=  5; NELMDL=  0     # of ELM steps 
   EDIFF  = 0.1E-05   stopping-criterion for ELM
   LREAL  =      F    real-space projection
   NLSPLINE    = F    spline interpolate recip. space projectors
   LCOMPAT=      F    compatible to vasp.4.4
   GGA_COMPAT  = T    GGA compatible to vasp.4.4-vasp.4.6
   LMAXPAW     = -100 max onsite density
   LMAXMIX     =    2 max onsite mixed and CHGCAR
   VOSKOWN=      0    Vosko Wilk Nusair interpolation
   ROPT   =    0.00000   0.00000
 Ionic relaxation
   EDIFFG = 0.1E-04   stopping-criterion for IOM
   NSW    =      0    number of steps for IOM
   NBLOCK =      1;   KBLOCK =      1    inner block; outer block 
   IBRION =     -1    ionic relax: 0-MD 1-quasi-New 2-CG
   NFREE  =      0    steps in history (QN), initial steepest desc. (CG)
   ISIF   =      2    stress and relaxation
   IWAVPR =     10    prediction:  0-non 1-charg 2-wave 3-comb
   ISYM   =     -1    0-nonsym 1-usesym 2-fastsym
   LCORR  =      T    Harris-Foulkes like correction to forces

   POTIM  = 0.5000    time-step for ionic-motion
   TEIN   =    0.0    initial temperature
   TEBEG  =    0.0;   TEEND  =   0.0 temperature during run
   SMASS  =  -3.00    Nose mass-parameter (am)
   estimated Nose-frequenzy (Omega)   =  0.10E-29 period in steps = 0.13E+47 mass=  -0.352E-26a.u.
   SCALEE = 1.0000    scale energy and forces
   NPACO  =    256;   APACO  = 10.0  distance and # of slots for P.C.
   PSTRESS=    0.0 pullay stress

  Mass of Ions in am
   POMASS =  72.61 78.96
  Ionic Valenz
   ZVAL   =   4.00  6.00
  Atomic Wigner-Seitz radii
   RWIGS  =  -1.00 -1.00
  virtual crystal weights 
   VCA    =   1.00  1.00
   NELECT =     360.0000    total number of electrons
   NUPDOWN=      -1.0000    fix difference up-down

 DOS related values:
   EMIN   =  10.00;   EMAX   =-10.00  energy-range for DOS
   EFERMI =   0.00;   METHOD = LEGACY      
   ISMEAR =     0;   SIGMA  =   0.05  broadening in eV -4-tet -1-fermi 0-gaus

 Electronic relaxation 2 (details)
   IALGO  =     38    algorithm
   LDIAG  =      T    sub-space diagonalisation (order eigenvalues)
   LSUBROT=      F    optimize rotation matrix (better conditioning)
   TURBO    =      0    0=normal 1=particle mesh
   IRESTART =      0    0=no restart 2=restart with 2 vectors
   NREBOOT  =      0    no. of reboots
   NMIN     =      0    reboot dimension
   EREF     =   0.00    reference energy to select bands
   IMIX   =      4    mixing-type and parameters
     AMIX     =   0.40;   BMIX     =  1.00
     AMIX_MAG =   1.60;   BMIX_MAG =  1.00
     AMIN     =   0.10
     WC   =   100.;   INIMIX=   1;  MIXPRE=   1;  MAXMIX= -45

 Intra band minimization:
   WEIMIN = 0.0000     energy-eigenvalue tresh-hold
   EBREAK =  0.11E-08  absolut break condition
   DEPER  =   0.30     relativ break condition  

   TIME   =   0.40     timestep for ELM

  volume/ion in A,a.u.               =      23.93       161.46
  Fermi-wavevector in a.u.,A,eV,Ry     =   0.971501  1.835870 12.841362  0.943813
  Thomas-Fermi vector in A             =   2.101723
 
 Write flags
   LWAVE        =      F    write WAVECAR
   LDOWNSAMPLE  =      F    k-point downsampling of WAVECAR
   LCHARG       =      F    write CHGCAR
   LVTOT        =      F    write LOCPOT, total local potential
   LVHAR        =      F    write LOCPOT, Hartree potential only
   LELF         =      F    write electronic localiz. function (ELF)
   LORBIT       =     11    0 simple, 1 ext, 2 COOP (PROOUT), +10 PAW based schemes


 Dipole corrections
   LMONO  =      F    monopole corrections only (constant potential shift)
   LDIPOL =      F    correct potential (dipole corrections)
   IDIPOL =      0    1-x, 2-y, 3-z, 4-all directions 
   EPSILON=  1.0000000 bulk dielectric constant

 Exchange correlation treatment:
   GGA     =    PE    GGA type
   LEXCH   =     8    internal setting for exchange type
   LIBXC   =     F    Libxc                    
   VOSKOWN =     0    Vosko Wilk Nusair interpolation
   LHFCALC =     F    Hartree Fock is set to
   LHFONE  =     F    Hartree Fock one center treatment
   AEXX    =    0.0000 exact exchange contribution

 Linear response parameters
   LEPSILON=     F    determine dielectric tensor
   LRPA    =     F    only Hartree local field effects (RPA)
   LNABLA  =     F    use nabla operator in PAW spheres
   LVEL    =     F    velocity operator in full k-point grid
   CSHIFT  =0.1000    complex shift for real part using Kramers Kronig
   OMEGAMAX=  -1.0    maximum frequency
   DEG_THRESHOLD= 0.2000000E-02 threshold for treating states as degnerate
   RTIME   =   -0.100 relaxation time in fs
  (WPLASMAI=    0.000 imaginary part of plasma frequency in eV, 0.658/RTIME)
   DFIELD  = 0.0000000 0.0000000 0.0000000 field for delta impulse in time
 
  Optional k-point grid parameters
   LKPOINTS_OPT  =     F    use optional k-point grid
   KPOINTS_OPT_MODE=     1    mode for optional k-point grid
 
 Orbital magnetization related:
   ORBITALMAG=     F  switch on orbital magnetization
   LCHIMAG   =     F  perturbation theory with respect to B field
   DQ        =  0.001000  dq finite difference perturbation B field
   LLRAUG    =     F  two centre corrections for induced B field
   LBONE     =     F  B-component reconstruction in AE one-centre
   LVGVCALC  =     T  calculate vGv susceptibility
   LVGVAPPL  =     F  apply vGv susceptibility instead of pGv for G=0

 Random number generation:
   RANDOM_GENERATOR = DEFAULT
   PCG_SEED         = not used


--------------------------------------------------------------------------------------------------------


 Static calculation
 charge density and potential will be updated during run
 spin polarized calculation
 Variant of blocked Davidson
 Davidson routine will perform the subspace rotation
 perform sub-space diagonalisation
    after iterative eigenvector-optimisation
 modified Broyden-mixing scheme, WC =      100.0
 initial mixing is a Kerker type mixing with AMIX =  0.4000 and BMIX =      1.0000
 Hartree-type preconditioning will be used
 using additional bands            44
 reciprocal scheme for non local part
 use partial core corrections
 calculate Harris-corrections to forces 
   (improved forces if not selfconsistent)
 use gradient corrections 
 use of overlap-Matrix (Vanderbilt PP)
 Gauss-broadening in eV      SIGMA  =   0.05


--------------------------------------------------------------------------------------------------------


  energy-cutoff  :      520.00
  volume of cell :     1722.65
      direct lattice vectors                 reciprocal lattice vectors
    12.407745593 -0.000008129  0.000003056     0.080594818  0.000000053 -0.000000026
    -0.000008204 12.522550299  0.000000082     0.000000052  0.079855938 -0.000000001
     0.000003515  0.000000093 11.086949316    -0.000000022 -0.000000001  0.090196137

  length of vectors
    12.407745593 12.522550299 11.086949316     0.080594818  0.079855938  0.090196137


 
 k-points in units of 2pi/SCALE and weight: KPOINTS created by Atomic Simulation Env
   0.00000000  0.00000000  0.00000000       0.125
   0.04029741  0.00000003 -0.00000001       0.125
   0.00000003  0.03992797 -0.00000000       0.125
   0.04029744  0.03992800 -0.00000001       0.125
  -0.00000001 -0.00000000  0.04509807       0.125
   0.04029740  0.00000003  0.04509806       0.125
   0.00000002  0.03992797  0.04509807       0.125
   0.04029742  0.03992800  0.04509806       0.125
 
 k-points in reciprocal lattice and weights: KPOINTS created by Atomic Simulation Env
   0.00000000  0.00000000  0.00000000       0.125
   0.50000000  0.00000000  0.00000000       0.125
   0.00000000  0.50000000  0.00000000       0.125
   0.50000000  0.50000000  0.00000000       0.125
   0.00000000  0.00000000  0.50000000       0.125
   0.50000000  0.00000000  0.50000000       0.125
   0.00000000  0.50000000  0.50000000       0.125
   0.50000000  0.50000000  0.50000000       0.125
 
 position of ions in fractional coordinates (direct lattice) 
   0.06250218  0.04939473  0.12006731
   0.22059245  0.88731402  0.38695206
   0.54469897  0.21078994  0.38349476
   0.53350141  0.51747421  0.36872633
   0.54084224  0.87983897  0.39436960
   0.90595102  0.21806793  0.36724184
   0.90645047  0.53956142  0.37032897
   0.85857148  0.85953195  0.38145800
   0.04422841  0.17047221  0.62770207
   0.08054279  0.46658704  0.63444512
   0.06742525  0.81269349  0.62692988
   0.41509616  0.14569853  0.63488426
   0.40938007  0.48355192  0.62702564
   0.39870674  0.86460490  0.63289106
   0.74536069  0.17028445  0.62817055
   0.71618621  0.50248310  0.62770728
   0.23455563  0.55005084  0.38432099
   0.21996019  0.19333918  0.37678776
   0.75164798  0.79691103  0.62936682
   0.91384637  0.63447869  0.86505815
   0.90135705  0.97217160  0.87602297
   0.08846631  0.37791431  0.13185209
   0.08295008  0.71161994  0.13027582
   0.42804263  0.02999381  0.11453245
   0.40194166  0.37143551  0.12637509
   0.74278704  0.04424050  0.13377897
   0.72363767  0.38065573  0.15628782
   0.39763052  0.71799017  0.13265957
   0.25067022  0.32669137  0.88134175
   0.21546010  0.65684194  0.87195268
   0.23397745  0.02110581  0.87653254
   0.56072913  0.32888159  0.87525227
   0.54650236  0.66470627  0.87078374
   0.58245712  0.96342944  0.86470510
   0.88054749  0.33595458  0.88179009
   0.75317341  0.70364531  0.12415402
   0.89989801  0.03466002  0.65239927
   0.25045653  0.34735762  0.65824159
   0.24322016  0.70027820  0.64139896
   0.58084082  0.01867810  0.63541670
   0.56642966  0.35629669  0.63552900
   0.59067932  0.67750810  0.64985198
   0.90761835  0.34058250  0.66318314
   0.72390752  0.00853615  0.35980766
   0.06751219  0.01797123  0.35369250
   0.06674007  0.35118223  0.35985299
   0.08650926  0.69344063  0.36127978
   0.40805603  0.03646030  0.34731108
   0.39544470  0.35569952  0.35642584
   0.39203534  0.67400974  0.35295175
   0.25281867  0.02513870  0.64199660
   0.91298750  0.66697034  0.64084347
   0.90558443  0.84647810  0.14875775
   0.24362805  0.19126611  0.14302359
   0.91500853  0.19261470  0.13789520
   0.75762384  0.36328884  0.37471821
   0.09571077  0.18201665  0.85026821
   0.07647216  0.50158726  0.87226042
   0.06222315  0.85881188  0.85576866
   0.41225699  0.17750053  0.86068389
   0.40186580  0.53340909  0.85544219
   0.41404918  0.83162224  0.85790416
   0.71994684  0.19073541  0.85229309
   0.75800181  0.51132712  0.86932681
   0.76073473  0.83317744  0.85134344
   0.24170282  0.51276910  0.15645775
   0.23705452  0.85131400  0.14837528
   0.57838749  0.17729428  0.13710105
   0.56298134  0.52848978  0.14670770
   0.56640797  0.84741040  0.15246966
   0.90505255  0.51186912  0.14580943
   0.72626876  0.67028180  0.34636108
 
 position of ions in cartesian coordinates  (Angst):
   0.77551111  0.61854747  1.33118036
   2.73704905 11.11143275  4.29011866
   6.75848589  2.63962319  4.25178865
   6.61954683  6.48009254  4.08805181
   6.71062710 11.01782338  4.37235745
  11.24080930  2.73075933  4.07159443
  11.24700375  6.75667765  4.10582128
  10.65293081 10.76352519  4.22920817
   0.54877571  2.13474655  6.95930121
   0.99935290  5.84285913  7.03406121
   0.83659088 10.17699464  6.95074007
   5.15040853  1.82451386  7.03893091
   5.07948199  6.05529998  6.95180277
   4.94704692 10.82705514  7.01683243
   9.24824665  2.13238954  6.96449738
   8.88625434  6.29236416  6.95936100
   2.91030343  6.88803747  4.26094811
   2.72920978  2.42109785  4.17742745
   9.32625262  9.97935243  6.97776034
  11.33877113  7.94528396  9.59085869
  11.18380404 12.17406045  9.71242516
   1.09766486  4.73245020  1.46183773
   1.02921814  8.91129577  1.44436172
   5.31104422  0.37559554  1.26981676
   4.98718721  4.65131654  1.40111546
   9.21631278  0.55399787  1.48320291
   8.97870949  4.76677470  1.73275741
   4.93369286  8.99106486  1.47079119
   3.11025275  4.09100712  9.77139209
   2.67337179  8.22533460  9.66729592
   2.90313562  0.26429678  9.71807258
   6.95738475  4.11843179  9.70387927
   6.78085980  8.32381332  9.65433695
   7.22697492 12.06458901  9.58694343
  10.92560962  4.20700104  9.77636478
   9.34517867  8.81142766  1.37649165
  11.16570752  0.43402465  7.23312043
   3.10760040  4.34980132  7.29789196
   3.01781034  8.76926706  7.11115860
   7.20692716  0.23389278  7.04483456
   7.02811440  4.46173872  7.04607953
   7.32899542  8.48412447  7.20487779
  11.26149714  4.26495419  7.35268065
   8.98206149  0.10688853  3.98917152
   0.83767521  0.22504513  3.92137105
   0.82809223  4.39769668  3.98967210
   1.07338045  8.68364451  4.00549091
   5.06305635  0.45657262  3.85062156
   4.90657559  4.45426194  3.95167650
   4.86427046  8.44031778  3.91315939
   3.13691179  0.31479864  7.11778453
  11.32811342  8.35216225  7.10500197
  11.23625486 10.60005720  1.64927246
   3.02287379  2.39513754  1.58569608
  11.35319200  2.41201987  1.52883985
   9.40040225  4.54929661  4.15448416
   1.18755640  2.27931201  9.42688091
   0.94884603  6.28115117  9.67070739
   0.77204494 10.75451451  9.48786400
   5.11518147  2.22275608  9.54235994
   4.98624720  6.67963896  9.48424544
   5.13741307 10.41402804  9.51154130
   8.93291863  2.38848805  9.44933252
   9.40509243  6.40311350  9.63818460
   9.43899918 10.43350035  9.43880401
   2.99898348  6.42117491  1.73463988
   2.94130574 10.66062049  1.64503004
   7.17648388  2.22017186  1.52003417
   6.98532547  6.61803531  1.62654259
   7.02783956 10.61173476  1.69042522
  11.22965808  6.40989941  1.61658462
   9.01135378  8.39363174  3.84009003
 


--------------------------------------------------------------------------------------------------------


 k-point   1 :   0.0000 0.0000 0.0000  plane waves:   46369
 k-point   2 :   0.5000 0.0000 0.0000  plane waves:   46442
 k-point   3 :   0.0000 0.5000 0.0000  plane waves:   46350
 k-point   4 :   0.5000 0.5000 0.0000  plane waves:   46428
 k-point   5 :   0.0000 0.0000 0.5000  plane waves:   46398
 k-point   6 :   0.5000 0.0000 0.5000  plane waves:   46364
 k-point   7 :   0.0000 0.5000 0.5000  plane waves:   46364
 k-point   8 :   0.5000 0.5000 0.5000  plane waves:   46360

 maximum and minimum number of plane-waves per node :      5826     5769

 maximum number of plane-waves:     46442
 maximum index in each direction: 
   IXMAX=   23   IYMAX=   23   IZMAX=   20
   IXMIN=  -23   IYMIN=  -23   IZMIN=  -21


 parallel 3D FFT for wavefunctions:
    minimum data exchange during FFTs selected (reduces bandwidth)
 parallel 3D FFT for charge:
    minimum data exchange during FFTs selected (reduces bandwidth)


 total amount of memory used by VASP MPI-rank0   110845. kBytes
=======================================================================

   base      :      30000. kBytes
   nonl-proj :      16377. kBytes
   fftplans  :       6180. kBytes
   grid      :      15593. kBytes
   one-center:        146. kBytes
   wavefun   :      42549. kBytes
 
     INWAV:  cpu time      0.0000: real time      0.0001
 Broyden mixing: mesh for mixing (old mesh)
   NGX = 47   NGY = 47   NGZ = 41
  (NGX  =192   NGY  =192   NGZ  =168)
  gives a total of  90569 points

 initial charge density was supplied:
 charge density of overlapping atoms calculated
 number of electron     360.0000000 magnetization      72.0000000
 keeping initial charge density in first step


--------------------------------------------------------------------------------------------------------


 Maximum index for augmentation-charges           764 (set IRDMAX)


--------------------------------------------------------------------------------------------------------


 First call to EWALD:  gamma=   0.148
 Maximum number of real-space cells 3x 3x 3
 Maximum number of reciprocal cells 3x 3x 3

    FEWALD:  cpu time      0.0038: real time      0.0038


--------------------------------------- Ionic step        1  -------------------------------------------




--------------------------------------- Iteration      1(   1)  ---------------------------------------


    POTLOK:  cpu time      0.1402: real time      0.1411
    SETDIJ:  cpu time      0.6031: real time      0.6050
     EDDAV:  cpu time      8.6267: real time      8.6774
       DOS:  cpu time      0.0018: real time      0.0018
    --------------------------------------------
      LOOP:  cpu time      9.3718: real time      9.4254

 eigenvalue-minimisations  :  7168
 total energy-change (2. order) : 0.1814964E+04  (-0.1418930E+05)
 number of electron     360.0000000 magnetization      72.0000000
 augmentation part      360.0000000 magnetization      72.0000000

 Free energy of the ion-electron system (eV)
  ---------------------------------------------------
  alpha Z        PSCENC =       796.73638637
  Ewald energy   TEWEN  =    -12848.95747588
  -Hartree energ DENC   =     -1124.71338339
  -exchange      EXHF   =         0.00000000
  -V(xc)+E(xc)   XCENC  =      -293.70845866
  PAW double counting   =     10738.42099860    -9719.93139476
  entropy T*S    EENTRO =        -0.01848090
  eigenvalues    EBANDS =      1230.68452245
  atomic energy  EATOM  =     13036.45147835
  Solvation  Ediel_sol  =         0.00000000
  ---------------------------------------------------
  free energy    TOTEN  =      1814.96419218 eV

  energy without entropy =     1814.98267308  energy(sigma->0) =     1814.97343263


--------------------------------------------------------------------------------------------------------




--------------------------------------- Iteration      1(   2)  ---------------------------------------


     EDDAV:  cpu time      9.7839: real time      9.8407
       DOS:  cpu time      0.0014: real time      0.0014
    --------------------------------------------
      LOOP:  cpu time      9.7853: real time      9.8421

 eigenvalue-minimisations  :  8496
 total energy-change (2. order) :-0.1879971E+04  (-0.1803534E+04)
 number of electron     360.0000000 magnetization      72.0000000
 augmentation part      360.0000000 magnetization      72.0000000

 Free energy of the ion-electron system (eV)
  ---------------------------------------------------
  alpha Z        PSCENC =       796.73638637
  Ewald energy   TEWEN  =    -12848.95747588
  -Hartree energ DENC   =     -1124.71338339
  -exchange      EXHF   =         0.00000000
  -V(xc)+E(xc)   XCENC  =      -293.70845866
  PAW double counting   =     10738.42099860    -9719.93139476
  entropy T*S    EENTRO =        -0.01435232
  eigenvalues    EBANDS =      -649.29033542
  atomic energy  EATOM  =     13036.45147835
  Solvation  Ediel_sol  =         0.00000000
  ---------------------------------------------------
  free energy    TOTEN  =       -65.00653711 eV

  energy without entropy =      -64.99218480  energy(sigma->0) =      -64.99936096


--------------------------------------------------------------------------------------------------------




--------------------------------------- Iteration      1(   3)  ---------------------------------------


     EDDAV:  cpu time      9.7422: real time      9.8020
       DOS:  cpu time      0.0012: real time      0.0013
    --------------------------------------------
      LOOP:  cpu time      9.7434: real time      9.8033

 eigenvalue-minimisations  :  8488
 total energy-change (2. order) :-0.2166111E+03  (-0.2110136E+03)
 number of electron     360.0000000 magnetization      72.0000000
 augmentation part      360.0000000 magnetization      72.0000000

 Free energy of the ion-electron system (eV)
  ---------------------------------------------------
  alpha Z        PSCENC =       796.73638637
  Ewald energy   TEWEN  =    -12848.95747588
  -Hartree energ DENC   =     -1124.71338339
  -exchange      EXHF   =         0.00000000
  -V(xc)+E(xc)   XCENC  =      -293.70845866
  PAW double counting   =     10738.42099860    -9719.93139476
  entropy T*S    EENTRO =        -0.00046099
  eigenvalues    EBANDS =      -865.91530115
  atomic energy  EATOM  =     13036.45147835
  Solvation  Ediel_sol  =         0.00000000
  ---------------------------------------------------
  free energy    TOTEN  =      -281.61761151 eV

  energy without entropy =     -281.61715053  energy(sigma->0) =     -281.61738102


--------------------------------------------------------------------------------------------------------




--------------------------------------- Iteration      1(   4)  ---------------------------------------


     EDDAV:  cpu time     10.1115: real time     10.1647
       DOS:  cpu time      0.0012: real time      0.0012
    --------------------------------------------
      LOOP:  cpu time     10.1127: real time     10.1659

 eigenvalue-minimisations  :  8808
 total energy-change (2. order) :-0.7989140E+01  (-0.7896760E+01)
 number of electron     360.0000000 magnetization      72.0000000
 augmentation part      360.0000000 magnetization      72.0000000

 Free energy of the ion-electron system (eV)
  ---------------------------------------------------
  alpha Z        PSCENC =       796.73638637
  Ewald energy   TEWEN  =    -12848.95747588
  -Hartree energ DENC   =     -1124.71338339
  -exchange      EXHF   =         0.00000000
  -V(xc)+E(xc)   XCENC  =      -293.70845866
  PAW double counting   =     10738.42099860    -9719.93139476
  entropy T*S    EENTRO =        -0.00006094
  eigenvalues    EBANDS =      -873.90484152
  atomic energy  EATOM  =     13036.45147835
  Solvation  Ediel_sol  =         0.00000000
  ---------------------------------------------------
  free energy    TOTEN  =      -289.60675183 eV

  energy without entropy =     -289.60669090  energy(sigma->0) =     -289.60672137


--------------------------------------------------------------------------------------------------------




--------------------------------------- Iteration      1(   5)  ---------------------------------------


     EDDAV:  cpu time     10.3067: real time     10.3610
       DOS:  cpu time      0.0013: real time      0.0014
    CHARGE:  cpu time      0.4359: real time      0.4383
    MIXING:  cpu time      0.0073: real time      0.0074
    --------------------------------------------
      LOOP:  cpu time     10.7512: real time     10.8081

 eigenvalue-minimisations  :  9016
 total energy-change (2. order) :-0.2843557E+00  (-0.2834986E+00)
 number of electron     359.9999993 magnetization      48.8311070
 augmentation part      -66.8022378 magnetization      49.0434845

 Broyden mixing:
  rms(total) = 0.29153E+01    rms(broyden)= 0.29153E+01
  rms(prec ) = 0.30742E+01
  weight for this iteration     100.00

 Free energy of the ion-electron system (eV)
  ---------------------------------------------------
  alpha Z        PSCENC =       796.73638637
  Ewald energy   TEWEN  =    -12848.95747588
  -Hartree energ DENC   =     -1124.71338339
  -exchange      EXHF   =         0.00000000
  -V(xc)+E(xc)   XCENC  =      -293.70845866
  PAW double counting   =     10738.42099860    -9719.93139476
  entropy T*S    EENTRO =        -0.00005334
  eigenvalues    EBANDS =      -874.18920477
  atomic energy  EATOM  =     13036.45147835
  Solvation  Ediel_sol  =         0.00000000
  ---------------------------------------------------
  free energy    TOTEN  =      -289.89110748 eV

  energy without entropy =     -289.89105415  energy(sigma->0) =     -289.89108082


--------------------------------------------------------------------------------------------------------




--------------------------------------- Iteration      1(   6)  ---------------------------------------


    POTLOK:  cpu time      0.1360: real time      0.1372
    SETDIJ:  cpu time      0.6010: real time      0.6027
     EDDAV:  cpu time      9.2156: real time      9.2598
       DOS:  cpu time      0.0012: real time      0.0012
    CHARGE:  cpu time      0.4314: real time      0.4329
    MIXING:  cpu time      0.0088: real time      0.0088
    --------------------------------------------
      LOOP:  cpu time     10.3940: real time     10.4426

 eigenvalue-minimisations  :  7888
 total energy-change (2. order) : 0.6512822E+00  (-0.2684194E+01)
 number of electron     359.9999993 magnetization      27.9709158
 augmentation part      -66.1887366 magnetization      29.1549974

 Broyden mixing:
  rms(total) = 0.17254E+01    rms(broyden)= 0.17254E+01
  rms(prec ) = 0.17628E+01
  weight for this iteration     100.00

 eigenvalues of (default mixing * dielectric matrix)
  average eigenvalue GAMMA=   1.0082
  1.0082

 Free energy of the ion-electron system (eV)
  ---------------------------------------------------
  alpha Z        PSCENC =       796.73638637
  Ewald energy   TEWEN  =    -12848.95747588
  -Hartree energ DENC   =     -1178.49224463
  -exchange      EXHF   =         0.00000000
  -V(xc)+E(xc)   XCENC  =      -287.14648763
  PAW double counting   =     13022.86406281   -12007.90838156
  entropy T*S    EENTRO =        -0.00006117
  eigenvalues    EBANDS =      -822.78710191
  atomic energy  EATOM  =     13036.45147835
  Solvation  Ediel_sol  =         0.00000000
  ---------------------------------------------------
  free energy    TOTEN  =      -289.23982525 eV

  energy without entropy =     -289.23976408  energy(sigma->0) =     -289.23979467


--------------------------------------------------------------------------------------------------------




--------------------------------------- Iteration      1(   7)  ---------------------------------------


    POTLOK:  cpu time      0.1329: real time      0.1339
    SETDIJ:  cpu time      0.6025: real time      0.6048
     EDDAV:  cpu time      9.4457: real time      9.4929
       DOS:  cpu time      0.0011: real time      0.0011
    CHARGE:  cpu time      0.4180: real time      0.4195
    MIXING:  cpu time      0.0079: real time      0.0079
    --------------------------------------------
      LOOP:  cpu time     10.6081: real time     10.6601

 eigenvalue-minimisations  :  8088
 total energy-change (2. order) :-0.7498719E+01  (-0.8792558E+00)
 number of electron     359.9999993 magnetization       9.2870895
 augmentation part      -66.1731068 magnetization       9.9601596

 Broyden mixing:
  rms(total) = 0.91024E+00    rms(broyden)= 0.91024E+00
  rms(prec ) = 0.92654E+00
  weight for this iteration     100.00

 eigenvalues of (default mixing * dielectric matrix)
  average eigenvalue GAMMA=   1.4561
  0.8633  2.0489

 Free energy of the ion-electron system (eV)
  ---------------------------------------------------
  alpha Z        PSCENC =       796.73638637
  Ewald energy   TEWEN  =    -12848.95747588
  -Hartree energ DENC   =     -1195.48119228
  -exchange      EXHF   =         0.00000000
  -V(xc)+E(xc)   XCENC  =      -290.04276975
  PAW double counting   =     15116.48232687   -14103.16632327
  entropy T*S    EENTRO =        -0.00000004
  eigenvalues    EBANDS =      -808.76097464
  atomic energy  EATOM  =     13036.45147835
  Solvation  Ediel_sol  =         0.00000000
  ---------------------------------------------------
  free energy    TOTEN  =      -296.73854427 eV

  energy without entropy =     -296.73854423  energy(sigma->0) =     -296.73854425


--------------------------------------------------------------------------------------------------------




--------------------------------------- Iteration      1(   8)  ---------------------------------------


    POTLOK:  cpu time      0.1316: real time      0.1322
    SETDIJ:  cpu time      0.5992: real time      0.6018
     EDDAV:  cpu time      9.4274: real time      9.4737
       DOS:  cpu time      0.0008: real time      0.0008
    CHARGE:  cpu time      0.4297: real time      0.4316
    MIXING:  cpu time      0.0081: real time      0.0081
    --------------------------------------------
      LOOP:  cpu time     10.5968: real time     10.6482

 eigenvalue-minimisations  :  8144
 total energy-change (2. order) :-0.3221361E+01  (-0.1738326E+00)
 number of electron     359.9999993 magnetization       4.3636498
 augmentation part      -66.1867639 magnetization       4.6712894

 Broyden mixing:
  rms(total) = 0.32920E+00    rms(broyden)= 0.32920E+00
  rms(prec ) = 0.33448E+00
  weight for this iteration     100.00

 eigenvalues of (default mixing * dielectric matrix)
  average eigenvalue GAMMA=   1.3620
  2.5020  0.9259  0.6581

 Free energy of the ion-electron system (eV)
  ---------------------------------------------------
  alpha Z        PSCENC =       796.73638637
  Ewald energy   TEWEN  =    -12848.95747588
  -Hartree energ DENC   =     -1199.68938029
  -exchange      EXHF   =         0.00000000
  -V(xc)+E(xc)   XCENC  =      -289.77407356
  PAW double counting   =     16891.60133801   -15879.21941995
  entropy T*S    EENTRO =        -0.00000000
  eigenvalues    EBANDS =      -807.10875799
  atomic energy  EATOM  =     13036.45147835
  Solvation  Ediel_sol  =         0.00000000
  ---------------------------------------------------
  free energy    TOTEN  =      -299.95990494 eV

  energy without entropy =     -299.95990494  energy(sigma->0) =     -299.95990494


--------------------------------------------------------------------------------------------------------




--------------------------------------- Iteration      1(   9)  ---------------------------------------


    POTLOK:  cpu time      0.1335: real time      0.1342
    SETDIJ:  cpu time      0.5977: real time      0.5994
     EDDAV:  cpu time     10.3172: real time     10.3746
       DOS:  cpu time      0.0009: real time      0.0009
    CHARGE:  cpu time      0.4115: real time      0.4135
    MIXING:  cpu time      0.0074: real time      0.0074
    --------------------------------------------
      LOOP:  cpu time     11.4681: real time     11.5300

 eigenvalue-minimisations  :  9112
 total energy-change (2. order) :-0.3862202E+00  (-0.4290075E-01)
 number of electron     359.9999993 magnetization       2.2967020
 augmentation part      -66.2251051 magnetization       2.4481963

 Broyden mixing:
  rms(total) = 0.14857E+00    rms(broyden)= 0.14856E+00
  rms(prec ) = 0.15021E+00
  weight for this iteration     100.00

 eigenvalues of (default mixing * dielectric matrix)
  average eigenvalue GAMMA=   1.3303
  2.6357  1.2299  0.8345  0.6210

 Free energy of the ion-electron system (eV)
  ---------------------------------------------------
  alpha Z        PSCENC =       796.73638637
  Ewald energy   TEWEN  =    -12848.95747588
  -Hartree energ DENC   =     -1198.71755048
  -exchange      EXHF   =         0.00000000
  -V(xc)+E(xc)   XCENC  =      -289.80627321
  PAW double counting   =     17186.57952530   -16174.54067970
  entropy T*S    EENTRO =        -0.00000000
  eigenvalues    EBANDS =      -808.09153592
  atomic energy  EATOM  =     13036.45147835
  Solvation  Ediel_sol  =         0.00000000
  ---------------------------------------------------
  free energy    TOTEN  =      -300.34612517 eV

  energy without entropy =     -300.34612517  energy(sigma->0) =     -300.34612517


--------------------------------------------------------------------------------------------------------




--------------------------------------- Iteration      1(  10)  ---------------------------------------


    POTLOK:  cpu time      0.1316: real time      0.1323
    SETDIJ:  cpu time      0.5996: real time      0.6019
     EDDAV:  cpu time      9.4360: real time      9.4874
       DOS:  cpu time      0.0008: real time      0.0008
    CHARGE:  cpu time      0.4327: real time      0.4345
    MIXING:  cpu time      0.0078: real time      0.0078
    --------------------------------------------
      LOOP:  cpu time     10.6085: real time     10.6647

 eigenvalue-minimisations  :  8160
 total energy-change (2. order) :-0.1012431E+00  (-0.9164820E-02)
 number of electron     359.9999993 magnetization       0.7404533
 augmentation part      -66.2251133 magnetization       0.8084542

 Broyden mixing:
  rms(total) = 0.73450E-01    rms(broyden)= 0.73450E-01
  rms(prec ) = 0.74559E-01
  weight for this iteration     100.00

 eigenvalues of (default mixing * dielectric matrix)
  average eigenvalue GAMMA=   1.3777
  2.7067  1.7560  0.9717  0.8273  0.6266

 Free energy of the ion-electron system (eV)
  ---------------------------------------------------
  alpha Z        PSCENC =       796.73638637
  Ewald energy   TEWEN  =    -12848.95747588
  -Hartree energ DENC   =     -1199.01889064
  -exchange      EXHF   =         0.00000000
  -V(xc)+E(xc)   XCENC  =      -289.79676875
  PAW double counting   =     17195.02319588   -16183.00119620
  entropy T*S    EENTRO =        -0.00000000
  eigenvalues    EBANDS =      -807.88409744
  atomic energy  EATOM  =     13036.45147835
  Solvation  Ediel_sol  =         0.00000000
  ---------------------------------------------------
  free energy    TOTEN  =      -300.44736831 eV

  energy without entropy =     -300.44736831  energy(sigma->0) =     -300.44736831


--------------------------------------------------------------------------------------------------------




--------------------------------------- Iteration      1(  11)  ---------------------------------------


    POTLOK:  cpu time      0.1315: real time      0.1322
    SETDIJ:  cpu time      0.6027: real time      0.6044
     EDDAV:  cpu time     10.1618: real time     10.2122
       DOS:  cpu time      0.0009: real time      0.0009
    CHARGE:  cpu time      0.4136: real time      0.4155
    MIXING:  cpu time      0.0080: real time      0.0081
    --------------------------------------------
      LOOP:  cpu time     11.3186: real time     11.3732

 eigenvalue-minimisations  :  8936
 total energy-change (2. order) :-0.3181628E-01  (-0.3691020E-02)
 number of electron     359.9999993 magnetization       0.1880816
 augmentation part      -66.2108025 magnetization       0.2071450

 Broyden mixing:
  rms(total) = 0.28434E-01    rms(broyden)= 0.28434E-01
  rms(prec ) = 0.28918E-01
  weight for this iteration     100.00

 eigenvalues of (default mixing * dielectric matrix)
  average eigenvalue GAMMA=   1.4034
  2.9060  2.1633  1.1655  0.8582  0.7025  0.6247

 Free energy of the ion-electron system (eV)
  ---------------------------------------------------
  alpha Z        PSCENC =       796.73638637
  Ewald energy   TEWEN  =    -12848.95747588
  -Hartree energ DENC   =     -1200.13466755
  -exchange      EXHF   =         0.00000000
  -V(xc)+E(xc)   XCENC  =      -289.75714786
  PAW double counting   =     17116.67426889   -16104.62344560
  entropy T*S    EENTRO =        -0.00000000
  eigenvalues    EBANDS =      -806.86858131
  atomic energy  EATOM  =     13036.45147835
  Solvation  Ediel_sol  =         0.00000000
  ---------------------------------------------------
  free energy    TOTEN  =      -300.47918459 eV

  energy without entropy =     -300.47918459  energy(sigma->0) =     -300.47918459


--------------------------------------------------------------------------------------------------------




--------------------------------------- Iteration      1(  12)  ---------------------------------------


    POTLOK:  cpu time      0.1312: real time      0.1331
    SETDIJ:  cpu time      0.6001: real time      0.6019
     EDDAV:  cpu time      9.8572: real time      9.9087
       DOS:  cpu time      0.0006: real time      0.0006
    CHARGE:  cpu time      0.4149: real time      0.4165
    MIXING:  cpu time      0.0083: real time      0.0083
    --------------------------------------------
      LOOP:  cpu time     11.0124: real time     11.0691

 eigenvalue-minimisations  :  8512
 total energy-change (2. order) :-0.3325220E-02  (-0.4666091E-03)
 number of electron     359.9999993 magnetization       0.0625020
 augmentation part      -66.2108040 magnetization       0.0671884

 Broyden mixing:
  rms(total) = 0.10902E-01    rms(broyden)= 0.10902E-01
  rms(prec ) = 0.11516E-01
  weight for this iteration     100.00

 eigenvalues of (default mixing * dielectric matrix)
  average eigenvalue GAMMA=   1.3670
  3.0084  2.3239  1.2036  0.8851  0.8851  0.6094  0.6538

 Free energy of the ion-electron system (eV)
  ---------------------------------------------------
  alpha Z        PSCENC =       796.73638637
  Ewald energy   TEWEN  =    -12848.95747588
  -Hartree energ DENC   =     -1200.19986759
  -exchange      EXHF   =         0.00000000
  -V(xc)+E(xc)   XCENC  =      -289.76174199
  PAW double counting   =     17080.99400422   -16068.91995095
  entropy T*S    EENTRO =        -0.00000000
  eigenvalues    EBANDS =      -806.82534234
  atomic energy  EATOM  =     13036.45147835
  Solvation  Ediel_sol  =         0.00000000
  ---------------------------------------------------
  free energy    TOTEN  =      -300.48250981 eV

  energy without entropy =     -300.48250981  energy(sigma->0) =     -300.48250981


--------------------------------------------------------------------------------------------------------




--------------------------------------- Iteration      1(  13)  ---------------------------------------


    POTLOK:  cpu time      0.1309: real time      0.1316
    SETDIJ:  cpu time      0.6011: real time      0.6036
     EDDAV:  cpu time     11.0047: real time     11.0611
       DOS:  cpu time      0.0007: real time      0.0007
    CHARGE:  cpu time      0.4216: real time      0.4235
    MIXING:  cpu time      0.0081: real time      0.0082
    --------------------------------------------
      LOOP:  cpu time     12.1672: real time     12.2286

 eigenvalue-minimisations  :  9872
 total energy-change (2. order) :-0.1309078E-03  (-0.6028497E-04)
 number of electron     359.9999993 magnetization       0.0162656
 augmentation part      -66.2121243 magnetization       0.0171604

 Broyden mixing:
  rms(total) = 0.45100E-02    rms(broyden)= 0.45100E-02
  rms(prec ) = 0.47144E-02
  weight for this iteration     100.00

 eigenvalues of (default mixing * dielectric matrix)
  average eigenvalue GAMMA=   1.3508
  3.0574  2.4303  1.1176  1.1176  0.9592  0.8654  0.6497  0.6093

 Free energy of the ion-electron system (eV)
  ---------------------------------------------------
  alpha Z        PSCENC =       796.73638637
  Ewald energy   TEWEN  =    -12848.95747588
  -Hartree energ DENC   =     -1200.09860960
  -exchange      EXHF   =         0.00000000
  -V(xc)+E(xc)   XCENC  =      -289.77220722
  PAW double counting   =     17067.18346788   -16055.09828013
  entropy T*S    EENTRO =        -0.00000000
  eigenvalues    EBANDS =      -806.92740048
  atomic energy  EATOM  =     13036.45147835
  Solvation  Ediel_sol  =         0.00000000
  ---------------------------------------------------
  free energy    TOTEN  =      -300.48264072 eV

  energy without entropy =     -300.48264072  energy(sigma->0) =     -300.48264072


--------------------------------------------------------------------------------------------------------




--------------------------------------- Iteration      1(  14)  ---------------------------------------


    POTLOK:  cpu time      0.1310: real time      0.1317
    SETDIJ:  cpu time      0.6000: real time      0.6016
     EDDAV:  cpu time      9.6270: real time      9.6772
       DOS:  cpu time      0.0010: real time      0.0010
    CHARGE:  cpu time      0.4286: real time      0.4302
    MIXING:  cpu time      0.0092: real time      0.0092
    --------------------------------------------
      LOOP:  cpu time     10.7969: real time     10.8509

 eigenvalue-minimisations  :  8256
 total energy-change (2. order) :-0.1904328E-04  (-0.9726762E-05)
 number of electron     359.9999993 magnetization       0.0050719
 augmentation part      -66.2117898 magnetization       0.0054346

 Broyden mixing:
  rms(total) = 0.16987E-02    rms(broyden)= 0.16987E-02
  rms(prec ) = 0.18059E-02
  weight for this iteration     100.00

 eigenvalues of (default mixing * dielectric matrix)
  average eigenvalue GAMMA=   1.3361
  3.0850  2.4612  1.4897  1.1820  0.8840  0.8840  0.7838  0.6115  0.6438

 Free energy of the ion-electron system (eV)
  ---------------------------------------------------
  alpha Z        PSCENC =       796.73638637
  Ewald energy   TEWEN  =    -12848.95747588
  -Hartree energ DENC   =     -1200.10223412
  -exchange      EXHF   =         0.00000000
  -V(xc)+E(xc)   XCENC  =      -289.77299394
  PAW double counting   =     17062.46551521   -16050.37733683
  entropy T*S    EENTRO =        -0.00000000
  eigenvalues    EBANDS =      -806.92599893
  atomic energy  EATOM  =     13036.45147835
  Solvation  Ediel_sol  =         0.00000000
  ---------------------------------------------------
  free energy    TOTEN  =      -300.48265976 eV

  energy without entropy =     -300.48265976  energy(sigma->0) =     -300.48265976


--------------------------------------------------------------------------------------------------------




--------------------------------------- Iteration      1(  15)  ---------------------------------------


    POTLOK:  cpu time      0.1310: real time      0.1320
    SETDIJ:  cpu time      0.5989: real time      0.6013
     EDDAV:  cpu time      9.9783: real time     10.0313
       DOS:  cpu time      0.0011: real time      0.0011
    CHARGE:  cpu time      0.4283: real time      0.4303
    MIXING:  cpu time      0.0091: real time      0.0091
    --------------------------------------------
      LOOP:  cpu time     11.1467: real time     11.2051

 eigenvalue-minimisations  :  8640
 total energy-change (2. order) :-0.3256318E-05  (-0.1681398E-05)
 number of electron     359.9999993 magnetization       0.0018373
 augmentation part      -66.2118977 magnetization       0.0020469

 Broyden mixing:
  rms(total) = 0.77728E-03    rms(broyden)= 0.77728E-03
  rms(prec ) = 0.82433E-03
  weight for this iteration     100.00

 eigenvalues of (default mixing * dielectric matrix)
  average eigenvalue GAMMA=   1.3017
  3.0956  2.4302  1.6736  1.0958  0.9702  0.9702  0.8304  0.7118  0.6197  0.6197

 Free energy of the ion-electron system (eV)
  ---------------------------------------------------
  alpha Z        PSCENC =       796.73638637
  Ewald energy   TEWEN  =    -12848.95747588
  -Hartree energ DENC   =     -1200.09151267
  -exchange      EXHF   =         0.00000000
  -V(xc)+E(xc)   XCENC  =      -289.77327890
  PAW double counting   =     17062.01421107   -16049.92534811
  entropy T*S    EENTRO =        -0.00000000
  eigenvalues    EBANDS =      -806.93712325
  atomic energy  EATOM  =     13036.45147835
  Solvation  Ediel_sol  =         0.00000000
  ---------------------------------------------------
  free energy    TOTEN  =      -300.48266302 eV

  energy without entropy =     -300.48266302  energy(sigma->0) =     -300.48266302


--------------------------------------------------------------------------------------------------------




--------------------------------------- Iteration      1(  16)  ---------------------------------------


    POTLOK:  cpu time      0.1310: real time      0.1317
    SETDIJ:  cpu time      0.6010: real time      0.6027
     EDDAV:  cpu time      6.5989: real time      6.6348
       DOS:  cpu time      0.0009: real time      0.0009
    --------------------------------------------
      LOOP:  cpu time      7.3318: real time      7.3701

 eigenvalue-minimisations  :  4824
 total energy-change (2. order) :-0.6890903E-06  (-0.1557763E-06)
 number of electron     359.9999993 magnetization       0.0018373
 augmentation part      -66.2118977 magnetization       0.0020469

 Free energy of the ion-electron system (eV)
  ---------------------------------------------------
  alpha Z        PSCENC =       796.73638637
  Ewald energy   TEWEN  =    -12848.95747588
  -Hartree energ DENC   =     -1200.08646996
  -exchange      EXHF   =         0.00000000
  -V(xc)+E(xc)   XCENC  =      -289.77346299
  PAW double counting   =     17062.02181682   -16049.93277104
  entropy T*S    EENTRO =        -0.00000000
  eigenvalues    EBANDS =      -806.94216538
  atomic energy  EATOM  =     13036.45147835
  Solvation  Ediel_sol  =         0.00000000
  ---------------------------------------------------
  free energy    TOTEN  =      -300.48266371 eV

  energy without entropy =     -300.48266371  energy(sigma->0) =     -300.48266371


--------------------------------------------------------------------------------------------------------




 average (electrostatic) potential at core
  the test charge radii are     1.1631  1.0808
  (the norm of the test charge is              1.0000)
       1 -33.4996       2 -33.5772       3 -33.7822       4 -33.3899       5 -33.6783
       6 -33.3385       7 -33.3872       8 -33.4345       9 -33.4283      10 -33.6429
      11 -33.3948      12 -33.4070      13 -33.4404      14 -33.6677      15 -33.4640
      16 -33.6135      17 -33.3036      18 -33.6340      19 -33.3862      20 -33.2433
      21 -33.1864      22 -33.3530      23 -33.4495      24 -33.5978      25 -33.6085
      26 -33.4822      27 -33.4007      28 -33.2410      29 -33.5256      30 -33.6114
      31 -33.7356      32 -33.6403      33 -33.3003      34 -33.6232      35 -33.3704
      36 -33.4149      37 -54.8474      38 -54.9336      39 -54.6959      40 -54.9717
      41 -55.0329      42 -54.9358      43 -54.9737      44 -54.7638      45 -54.7273
      46 -54.8261      47 -54.7504      48 -54.9995      49 -55.0819      50 -54.8803
      51 -55.0421      52 -54.9499      53 -54.6963      54 -54.5696      55 -54.8256
      56 -54.7730      57 -54.7831      58 -55.0166      59 -54.7656      60 -54.9868
      61 -54.9067      62 -54.9637      63 -54.7500      64 -54.8183      65 -55.0064
      66 -54.8474      67 -54.7356      68 -54.8250      69 -54.7499      70 -54.6683
      71 -54.5783      72 -54.5507
 
 
 
 E-fermi :   3.4435     XC(G=0):  -9.3718     alpha+bet : -8.8192

 Fermi energy:         3.4435250717

 spin component 1

 k-point     1 :       0.0000    0.0000    0.0000
  band No.  band energies     occupation 
      1     -10.9395      1.00000
      2     -10.6072      1.00000
      3     -10.4684      1.00000
      4     -10.4023      1.00000
      5     -10.3540      1.00000
      6     -10.2290      1.00000
      7     -10.1266      1.00000
      8     -10.0538      1.00000
      9     -10.0448      1.00000
     10      -9.9579      1.00000
     11      -9.9356      1.00000
     12      -9.8836      1.00000
     13      -9.8001      1.00000
     14      -9.7721      1.00000
     15      -9.6595      1.00000
     16      -9.6229      1.00000
     17      -9.5968      1.00000
     18      -9.5908      1.00000
     19      -9.5439      1.00000
     20      -9.5101      1.00000
     21      -9.4475      1.00000
     22      -9.4154      1.00000
     23      -9.3725      1.00000
     24      -9.3406      1.00000
     25      -9.3096      1.00000
     26      -9.2906      1.00000
     27      -9.2390      1.00000
     28      -9.1953      1.00000
     29      -9.1701      1.00000
     30      -9.1201      1.00000
     31      -9.0941      1.00000
     32      -9.0277      1.00000
     33      -8.9986      1.00000
     34      -8.9685      1.00000
     35      -8.9063      1.00000
     36      -8.8134      1.00000
     37      -5.4720      1.00000
     38      -5.4133      1.00000
     39      -5.3153      1.00000
     40      -5.2763      1.00000
     41      -5.1260      1.00000
     42      -5.0802      1.00000
     43      -5.0621      1.00000
     44      -4.9546      1.00000
     45      -4.7606      1.00000
     46      -4.7302      1.00000
     47      -4.6124      1.00000
     48      -4.5739      1.00000
     49      -4.5116      1.00000
     50      -4.4524      1.00000
     51      -4.4099      1.00000
     52      -4.3924      1.00000
     53      -4.3681      1.00000
     54      -4.3190      1.00000
     55      -4.2778      1.00000
     56      -4.2677      1.00000
     57      -4.2482      1.00000
     58      -4.2292      1.00000
     59      -4.2057      1.00000
     60      -4.1834      1.00000
     61      -4.1015      1.00000
     62      -4.0366      1.00000
     63      -3.9976      1.00000
     64      -3.9642      1.00000
     65      -3.8997      1.00000
     66      -3.8691      1.00000
     67      -3.7129      1.00000
     68      -3.6496      1.00000
     69      -3.5037      1.00000
     70      -3.4512      1.00000
     71      -2.5003      1.00000
     72      -2.4106      1.00000
     73      -1.8573      1.00000
     74      -1.5911      1.00000
     75      -1.5616      1.00000
     76      -1.5467      1.00000
     77      -1.4422      1.00000
     78      -1.3930      1.00000
     79      -1.3469      1.00000
     80      -1.3030      1.00000
     81      -1.2221      1.00000
     82      -1.1784      1.00000
     83      -1.1319      1.00000
     84      -1.0582      1.00000
     85      -0.9975      1.00000
     86      -0.8182      1.00000
     87      -0.7730      1.00000
     88      -0.7270      1.00000
     89      -0.6964      1.00000
     90      -0.6549      1.00000
     91      -0.6030      1.00000
     92      -0.5291      1.00000
     93      -0.4813      1.00000
     94      -0.3024      1.00000
     95      -0.2485      1.00000
     96      -0.1297      1.00000
     97      -0.0647      1.00000
     98       0.0058      1.00000
     99       0.0329      1.00000
    100       0.0693      1.00000
    101       0.0760      1.00000
    102       0.1239      1.00000
    103       0.1832      1.00000
    104       0.2211      1.00000
    105       0.2685      1.00000
    106       0.2697      1.00000
    107       0.3063      1.00000
    108       0.3397      1.00000
    109       0.3911      1.00000
    110       0.4327      1.00000
    111       0.4874      1.00000
    112       0.5148      1.00000
    113       0.5764      1.00000
    114       0.6005      1.00000
    115       0.6266      1.00000
    116       0.6429      1.00000
    117       0.6584      1.00000
    118       0.7059      1.00000
    119       0.7489      1.00000
    120       0.8036      1.00000
    121       0.8458      1.00000
    122       0.8660      1.00000
    123       0.8901      1.00000
    124       0.9210      1.00000
    125       0.9382      1.00000
    126       0.9590      1.00000
    127       1.0192      1.00000
    128       1.0426      1.00000
    129       1.0969      1.00000
    130       1.1065      1.00000
    131       1.1745      1.00000
    132       1.2019      1.00000
    133       1.2283      1.00000
    134       1.2622      1.00000
    135       1.3197      1.00000
    136       1.3781      1.00000
    137       1.4299      1.00000
    138       1.4499      1.00000
    139       1.4967      1.00000
    140       1.5217      1.00000
    141       1.5414      1.00000
    142       1.5797      1.00000
    143       1.6249      1.00000
    144       1.6533      1.00000
    145       1.7144      1.00000
    146       1.7591      1.00000
    147       1.8030      1.00000
    148       1.8371      1.00000
    149       1.8676      1.00000
    150       1.8901      1.00000
    151       1.9367      1.00000
[...]
   -.617E+01 0.133E+02 -.339E+02   0.807E+01 -.135E+02 0.370E+02   -.222E+01 0.602E-01 -.249E+01   0.110E-03 -.243E-03 0.106E-03
   0.509E+01 -.514E+00 0.273E+02   -.601E+01 -.749E+00 -.301E+02   0.825E+00 0.115E+01 0.280E+01   -.777E-04 0.201E-03 -.213E-03
   -.667E+00 0.283E+02 0.281E+02   0.549E+00 -.303E+02 -.300E+02   -.776E-01 0.143E+01 0.177E+01   0.178E-03 -.510E-03 0.150E-03
   0.239E+01 0.830E+01 0.357E+02   -.226E+01 -.100E+02 -.375E+02   0.663E-01 0.162E+01 0.119E+01   0.346E-03 -.373E-05 0.351E-04
   -.695E+01 0.773E+01 0.183E+02   0.760E+01 -.882E+01 -.197E+02   -.992E+00 0.982E+00 0.174E+01   -.293E-04 0.138E-03 -.171E-03
   -.198E+02 0.133E+02 0.171E+02   0.206E+02 -.140E+02 -.186E+02   -.769E+00 0.305E+00 0.180E+01   -.104E-05 -.315E-03 0.380E-04
   -.945E+01 0.159E+02 0.189E+02   0.984E+01 -.173E+02 -.202E+02   -.183E+00 0.125E+01 0.186E+01   -.447E-03 0.181E-03 -.431E-04
   0.205E+02 -.811E+01 0.339E+02   -.222E+02 0.826E+01 -.360E+02   0.138E+01 -.583E+00 0.158E+01   -.217E-03 0.460E-03 0.303E-04
   0.619E+01 -.496E+01 0.308E+02   -.702E+01 0.565E+01 -.327E+02   0.126E+01 -.710E+00 0.892E+00   0.863E-04 -.369E-03 0.269E-04
   -.945E+01 -.162E+02 -.213E+02   0.922E+01 0.177E+02 0.231E+02   0.110E+00 -.136E+01 -.169E+01   0.524E-03 -.179E-03 0.792E-04
   0.244E+02 0.560E+01 -.263E+02   -.259E+02 -.538E+01 0.277E+02   0.163E+01 0.455E-01 -.151E+01   -.391E-03 0.122E-03 0.251E-03
   -.397E+01 -.801E+01 -.314E+02   0.437E+01 0.887E+01 0.331E+02   -.125E+00 -.104E+01 -.130E+01   -.166E-03 -.499E-03 -.107E-04
   0.242E+02 -.126E+02 -.264E+02   -.252E+02 0.133E+02 0.278E+02   0.662E+00 -.773E+00 -.153E+01   0.574E-05 0.110E-03 0.343E-03
   0.122E+02 0.265E+01 -.161E+02   -.131E+02 -.240E+01 0.168E+02   0.786E+00 -.553E+00 -.652E+00   0.932E-05 -.255E-03 0.234E-03
   0.917E+01 0.107E+02 -.261E+02   -.104E+02 -.108E+02 0.274E+02   0.135E+01 -.461E+00 -.130E+01   0.184E-03 0.416E-03 0.156E-03
   -.134E+02 -.291E+02 -.379E+02   0.139E+02 0.307E+02 0.398E+02   0.519E-01 -.114E+01 -.138E+01   0.318E-03 -.127E-03 0.183E-03
   0.305E+02 0.120E+02 0.248E+02   -.320E+02 -.121E+02 -.261E+02   0.150E+01 -.593E+00 0.154E+01   -.588E-04 -.131E-03 -.227E-03
   -.107E+02 0.594E+01 0.355E+02   0.112E+02 -.737E+01 -.375E+02   -.194E+00 0.124E+01 0.167E+01   -.169E-05 0.654E-03 0.756E-04
   -.570E+01 -.159E+02 0.170E+02   0.602E+01 0.169E+02 -.182E+02   -.124E+00 -.100E+01 0.142E+01   -.185E-03 0.345E-03 -.210E-03
   -.142E+01 0.138E+02 0.216E+02   0.180E+01 -.139E+02 -.229E+02   -.641E+00 -.171E+00 0.150E+01   -.374E-03 0.115E-03 -.932E-04
   0.162E+02 0.230E+01 0.309E+02   -.166E+02 -.111E+01 -.329E+02   -.122E+00 -.156E+01 0.214E+01   -.766E-04 -.295E-03 -.843E-04
   0.157E+02 0.858E+01 -.258E+02   -.166E+02 -.833E+01 0.279E+02   0.368E+00 -.414E+00 -.180E+01   0.669E-04 -.368E-03 -.387E-03
   0.256E+02 0.855E+01 -.281E+02   -.271E+02 -.842E+01 0.301E+02   0.160E+01 -.228E+00 -.144E+01   -.443E-03 -.281E-04 0.729E-04
   -.338E+01 0.341E+01 -.200E+02   0.358E+01 -.436E+01 0.214E+02   0.333E-01 0.965E+00 -.204E+01   -.485E-04 0.183E-03 0.760E-04
   -.178E+02 0.458E+01 -.226E+02   0.189E+02 -.548E+01 0.243E+02   -.141E+00 0.651E+00 -.184E+01   -.601E-03 0.205E-03 -.264E-03
   -.975E+01 0.146E+02 -.301E+02   0.100E+02 -.155E+02 0.320E+02   -.237E+00 0.108E+01 -.169E+01   0.246E-04 0.106E-03 -.171E-03
   0.520E+01 0.858E+01 -.243E+02   -.572E+01 -.997E+01 0.259E+02   -.204E+00 0.689E+00 -.176E+01   0.302E-03 0.389E-04 -.126E-03
   0.192E+02 -.742E+01 -.277E+02   -.202E+02 0.763E+01 0.292E+02   0.140E+01 0.384E+00 -.166E+01   0.393E-03 -.206E-03 -.277E-04
   -.659E+01 0.232E+02 -.379E+02   0.669E+01 -.246E+02 0.398E+02   0.880E-01 0.176E+01 -.151E+01   0.419E-03 -.289E-03 0.309E-03
   0.293E+02 0.646E-01 -.273E+02   -.309E+02 -.263E-01 0.290E+02   0.894E+00 -.661E+00 -.206E+01   -.129E-04 0.319E-03 0.164E-03
   0.106E+02 0.146E-01 -.323E+02   -.111E+02 -.157E+01 0.343E+02   -.308E+00 0.147E+01 -.169E+01   0.265E-03 0.241E-03 -.158E-03
   0.217E+01 -.156E+02 0.321E+02   -.199E+01 0.170E+02 -.336E+02   -.922E-01 -.122E+01 0.119E+01   0.142E-03 0.796E-04 -.111E-03
   0.286E+01 -.239E+02 0.304E+02   -.284E+01 0.255E+02 -.316E+02   0.194E+00 -.121E+01 0.157E+01   0.154E-03 -.275E-03 -.114E-03
   -.133E+02 -.132E+02 0.172E+02   0.135E+02 0.144E+02 -.185E+02   -.187E+00 -.816E+00 0.178E+01   0.449E-03 0.470E-04 -.184E-03
   -.118E+02 -.739E+01 0.394E+02   0.120E+02 0.821E+01 -.412E+02   0.221E-01 -.163E+01 0.156E+01   -.107E-03 -.180E-03 -.968E-05
   -.188E+02 -.369E+01 0.226E+02   0.195E+02 0.381E+01 -.233E+02   -.961E+00 -.423E-02 0.949E+00   -.784E-04 -.156E-03 -.221E-03
   -.240E+01 -.899E+01 0.255E+02   0.252E+01 0.929E+01 -.274E+02   -.742E-01 -.121E+00 0.163E+01   -.159E-03 -.158E-03 -.212E-03
   0.884E+01 -.888E+01 -.287E+02   -.991E+01 0.871E+01 0.301E+02   0.172E+01 0.568E+00 -.861E+00   -.936E-05 0.350E-03 0.264E-03
 -----------------------------------------------------------------------------------------------
   0.910E+01 0.191E+01 -.793E+00   0.711E-13 0.160E-13 -.149E-12   -.911E+01 -.191E+01 0.793E+00   -.216E-03 -.545E-04 -.283E-03
 
 
 POSITION                                       TOTAL-FORCE (eV/Angst)
 -----------------------------------------------------------------------------------
      0.77551      0.61855      1.33118         0.249076      0.123650      0.340943
      2.73705     11.11143      4.29012        -0.095779     -0.169892     -0.629210
      6.75849      2.63962      4.25179         0.101970     -0.127476     -0.432735
      6.61955      6.48009      4.08805         0.310724      0.590733      0.166716
      6.71063     11.01782      4.37236         0.569659      0.196008     -0.578599
     11.24081      2.73076      4.07159         0.059194     -0.083528     -0.030959
     11.24700      6.75668      4.10582        -0.360937      0.229774     -0.000804
     10.65293     10.76353      4.22921         0.168946     -0.396479     -0.159922
      0.54878      2.13475      6.95930         0.189083      0.400049     -0.091680
      0.99935      5.84286      7.03406        -0.095837      0.281679      0.246575
      0.83659     10.17699      6.95074         0.108108      0.143337      0.018644
      5.15041      1.82451      7.03893         0.201721      0.571472     -0.255946
      5.07948      6.05530      6.95180        -0.530364      0.476862      0.030898
      4.94705     10.82706      7.01683        -0.569232     -0.437782      0.052198
      9.24825      2.13239      6.96450        -0.189285     -0.109388     -0.065750
      8.88625      6.29236      6.95936         0.099275      0.102266      0.402538
      2.91030      6.88804      4.26095        -0.360980     -0.071733      0.166103
      2.72921      2.42110      4.17743        -0.369857      0.041276     -0.486710
      9.32625      9.97935      6.97776         0.200925      0.409419     -0.337033
     11.33877      7.94528      9.59086         0.225345      0.650009      0.528340
     11.18380     12.17406      9.71243        -0.071357      0.985306      0.371126
      1.09766      4.73245      1.46184        -0.322537     -0.224506     -0.024880
      1.02922      8.91130      1.44436        -0.344877      0.088799      0.191468
      5.31104      0.37560      1.26982        -0.066825      0.131530      0.227697
      4.98719      4.65132      1.40112        -0.139134      0.288165      0.082523
      9.21631      0.55400      1.48320         0.115254      0.045803     -0.097912
      8.97871      4.76677      1.73276         0.222329      0.341231     -0.547939
      4.93369      8.99106      1.47079         0.145943     -0.086765     -0.455606
      3.11025      4.09101      9.77139        -0.178131     -0.527245      0.082693
      2.67337      8.22533      9.66730         0.444027      0.087433     -0.263059
      2.90314      0.26430      9.71807        -0.607950     -0.141430     -0.315813
      6.95738      4.11843      9.70388         0.278167     -0.327163     -0.354881
      6.78086      8.32381      9.65434         0.582586      0.516380      0.497338
      7.22697     12.06459      9.58694         0.113161      0.130985      0.029029
     10.92561      4.20700      9.77636        -0.319529     -0.117329      0.659514
      9.34518      8.81143      1.37649        -0.089756     -0.108337     -0.018914
     11.16571      0.43402      7.23312        -0.195910     -0.575599     -0.104335
      3.10760      4.34980      7.29789         0.201407     -0.079781     -0.546468
      3.01781      8.76927      7.11116        -0.339428     -0.103018      0.287012
      7.20693      0.23389      7.04483         0.044121     -0.391026      0.307127
      7.02811      4.46174      7.04608         0.208937     -0.163677      0.565159
      7.32900      8.48412      7.20488        -0.312337     -0.433218     -0.507541
     11.26150      4.26495      7.35268         0.437406     -0.015916     -1.017737
      8.98206      0.10689      3.98917        -0.121342      0.099193      0.079474
      0.83768      0.22505      3.92137         0.164075      0.269900     -0.077980
      0.82809      4.39770      3.98967         0.272403     -0.185444      0.341347
      1.07338      8.68364      4.00549        -0.302115     -0.156180     -0.153821
      5.06306      0.45657      3.85062        -0.127534     -0.300865      0.118308
      4.90658      4.45426      3.95168         0.125749     -0.563934     -0.000206
      4.86427      8.44032      3.91316         0.534703      0.376511      0.530630
      3.13691      0.31480      7.11778         0.034116     -0.702466      0.211165
     11.32811      8.35216      7.10500         0.327983     -0.192465     -0.391020
     11.23625     10.60006      1.64927         0.197398     -0.020196      0.155469
      3.02287      2.39514      1.58570        -0.258650     -0.319838      0.165186
     11.35319      2.41202      1.52884        -0.565263     -0.372100      0.160547
      9.40040      4.54930      4.15448        -0.502220     -0.163919      0.327940
      1.18756      2.27931      9.42688         0.075633     -0.095966      0.509001
      0.94885      6.28115      9.67071         0.238702      0.016825     -0.603630
      0.77204     10.75451      9.48786         0.939909     -0.253442     -0.130785
      5.11518      2.22276      9.54236         0.045063      0.242468      0.168767
      4.98625      6.67964      9.48425        -0.717364     -0.699803     -0.180843
      5.13741     10.41403      9.51154         0.358430      0.600179     -0.113327
      8.93292      2.38849      9.44933         0.183648      0.294783      0.396809
      9.40509      6.40311      9.63818        -0.724372     -0.622798     -0.442834
      9.43900     10.43350      9.43880        -0.843026     -0.081707      0.238275
      2.99898      6.42117      1.73464         0.082772      0.117421     -0.354223
      2.94131     10.66062      1.64503         0.218729      0.343112      0.326702
      7.17648      2.22017      1.52003         0.035947      0.343340      0.497191
      6.98533      6.61804      1.62654         0.165173     -0.814077     -0.170316
      7.02784     10.61173      1.69043        -0.249727      0.118052      0.251873
     11.22966      6.40990      1.61658         0.041821      0.183563     -0.313367
      9.01135      8.39363      3.84009         0.652039      0.398973      0.524464
 -----------------------------------------------------------------------------------
    total drift:                               -0.000932     -0.000359     -0.000628


--------------------------------------------------------------------------------------------------------



  FREE ENERGIE OF THE ION-ELECTRON SYSTEM (eV)
  ---------------------------------------------------
  free  energy   TOTEN  =      -300.48266371 eV

  energy  without entropy=     -300.48266371  energy(sigma->0) =     -300.48266371
 


--------------------------------------------------------------------------------------------------------


    POTLOK:  cpu time      0.7310: real time      0.7340


--------------------------------------------------------------------------------------------------------


     LOOP+:  cpu time    181.4506: real time    182.3990
    4ORBIT:  cpu time      0.0000: real time      0.0000



 total charge

# of ion       s       p       d       tot
------------------------------------------
    1        1.323   0.738   0.050   2.111
    2        1.325   0.736   0.050   2.110
    3        1.340   0.695   0.045   2.081
    4        1.312   0.797   0.062   2.171
    5        1.337   0.702   0.048   2.087
    6        1.307   0.802   0.058   2.167
    7        1.336   0.726   0.053   2.115
    8        1.323   0.746   0.051   2.119
    9        1.311   0.802   0.060   2.173
   10        1.333   0.732   0.051   2.117
   11        1.314   0.777   0.053   2.144
   12        1.298   0.836   0.066   2.199
   13        1.309   0.802   0.059   2.170
   14        1.320   0.750   0.055   2.125
   15        1.322   0.772   0.060   2.154
   16        1.339   0.721   0.050   2.111
   17        1.307   0.815   0.065   2.187
   18        1.338   0.699   0.048   2.086
   19        1.294   0.849   0.066   2.209
   20        1.313   0.831   0.067   2.211
   21        1.297   0.859   0.067   2.223
   22        1.330   0.753   0.059   2.141
   23        1.322   0.749   0.053   2.124
   24        1.335   0.715   0.051   2.101
   25        1.326   0.734   0.055   2.115
   26        1.328   0.738   0.050   2.115
   27        1.322   0.766   0.052   2.141
   28        1.307   0.808   0.060   2.176
   29        1.316   0.774   0.060   2.151
   30        1.325   0.739   0.049   2.113
   31        1.338   0.701   0.050   2.089
   32        1.329   0.732   0.051   2.113
   33        1.313   0.828   0.066   2.208
   34        1.330   0.734   0.046   2.110
   35        1.326   0.777   0.059   2.162
   36        1.332   0.732   0.054   2.117
   37        1.474   2.327   0.034   3.835
   38        1.475   2.323   0.035   3.832
   39        1.477   2.280   0.026   3.784
   40        1.478   2.288   0.031   3.796
   41        1.479   2.304   0.035   3.818
   42        1.475   2.321   0.035   3.831
   43        1.474   2.319   0.036   3.829
   44        1.475   2.306   0.030   3.811
   45        1.476   2.288   0.028   3.792
   46        1.473   2.307   0.032   3.812
   47        1.476   2.294   0.029   3.800
   48        1.475   2.299   0.032   3.805
   49        1.478   2.307   0.036   3.821
   50        1.474   2.329   0.036   3.839
   51        1.479   2.299   0.034   3.811
   52        1.476   2.315   0.035   3.826
   53        1.475   2.287   0.027   3.789
   54        1.476   2.274   0.024   3.773
   55        1.480   2.284   0.030   3.794
   56        1.477   2.306   0.032   3.816
   57        1.474   2.302   0.030   3.806
   58        1.480   2.293   0.034   3.807
   59        1.475   2.304   0.030   3.809
   60        1.475   2.302   0.033   3.810
   61        1.475   2.319   0.033   3.826
   62        1.480   2.292   0.033   3.805
   63        1.477   2.301   0.030   3.808
   64        1.477   2.302   0.032   3.811
   65        1.477   2.317   0.037   3.831
   66        1.474   2.315   0.033   3.822
   67        1.475   2.299   0.029   3.803
   68        1.477   2.282   0.027   3.786
   69        1.482   2.283   0.031   3.796
   70        1.476   2.274   0.024   3.774
   71        1.475   2.293   0.028   3.796
   72        1.477   2.282   0.026   3.786
--------------------------------------------------
tot        100.725 110.281   3.129 214.135



 magnetization (x)

# of ion       s       p       d       tot
------------------------------------------
    1       -0.000   0.000  -0.000   0.000
    2       -0.000   0.000   0.000   0.000
    3       -0.000   0.000   0.000   0.000
    4       -0.000   0.000   0.000   0.000
    5       -0.000   0.000   0.000   0.000
    6       -0.000   0.000  -0.000   0.000
    7       -0.000  -0.000  -0.000  -0.000
    8       -0.000   0.000  -0.000  -0.000
    9       -0.000   0.000   0.000   0.000
   10       -0.000   0.000  -0.000  -0.000
   11       -0.000   0.000  -0.000   0.000
   12       -0.000   0.000   0.000   0.000
   13       -0.000   0.000   0.000   0.000
   14       -0.000   0.000   0.000   0.000
   15       -0.000   0.000   0.000   0.000
   16       -0.000   0.000   0.000   0.000
   17       -0.000   0.000  -0.000   0.000
   18       -0.000   0.000   0.000   0.000
   19       -0.000   0.000  -0.000   0.000
   20       -0.000  -0.000  -0.000  -0.000
   21       -0.000   0.000  -0.000   0.000
   22       -0.000   0.000  -0.000   0.000
   23       -0.000  -0.000  -0.000  -0.000
   24       -0.000   0.000   0.000   0.000
   25       -0.000   0.000   0.000   0.000
   26       -0.000   0.000  -0.000  -0.000
   27       -0.000   0.000  -0.000  -0.000
   28       -0.000   0.000   0.000   0.000
   29       -0.000   0.000   0.000   0.000
   30       -0.000  -0.000  -0.000  -0.000
   31       -0.000   0.000   0.000   0.000
   32       -0.000   0.000   0.000   0.000
   33       -0.000   0.000  -0.000   0.000
   34       -0.000   0.000   0.000   0.000
   35       -0.000   0.000  -0.000  -0.000
   36       -0.000   0.000  -0.000  -0.000
   37       -0.000  -0.000   0.000  -0.000
   38       -0.000  -0.000   0.000  -0.000
   39       -0.000  -0.000   0.000  -0.000
   40       -0.000  -0.000   0.000  -0.000
   41       -0.000  -0.000   0.000  -0.000
   42       -0.000  -0.000   0.000  -0.000
   43       -0.000  -0.000  -0.000  -0.000
   44       -0.000  -0.000  -0.000  -0.000
   45       -0.000  -0.000   0.000  -0.000
   46       -0.000  -0.000   0.000  -0.000
   47       -0.000  -0.000  -0.000  -0.000
   48       -0.000  -0.000   0.000  -0.000
   49       -0.000  -0.000   0.000  -0.000
   50       -0.000  -0.000   0.000  -0.000
   51       -0.000  -0.000   0.000  -0.000
   52       -0.000  -0.000  -0.000  -0.000
   53       -0.000  -0.000  -0.000  -0.000
   54       -0.000  -0.000   0.000  -0.000
   55       -0.000  -0.000  -0.000  -0.000
   56       -0.000  -0.000  -0.000  -0.000
   57       -0.000  -0.000   0.000  -0.000
   58       -0.000  -0.000  -0.000  -0.000
   59       -0.000  -0.000  -0.000  -0.000
   60       -0.000  -0.000   0.000  -0.000
   61       -0.000  -0.000   0.000  -0.000
   62       -0.000  -0.000   0.000  -0.000
   63       -0.000  -0.000   0.000  -0.000
   64       -0.000  -0.000  -0.000  -0.000
   65       -0.000  -0.000   0.000  -0.000
   66       -0.000  -0.000   0.000  -0.000
   67       -0.000  -0.000   0.000  -0.000
   68       -0.000  -0.000   0.000  -0.000
   69       -0.000  -0.000   0.000  -0.000
   70       -0.000  -0.000   0.000  -0.000
   71       -0.000  -0.000  -0.000  -0.000
   72       -0.000  -0.000  -0.000  -0.000
--------------------------------------------------
tot         -0.000  -0.000   0.000  -0.000
 

 total amount of memory used by VASP MPI-rank0   110845. kBytes
=======================================================================

   base      :      30000. kBytes
   nonl-proj :      16377. kBytes
   fftplans  :       6180. kBytes
   grid      :      15593. kBytes
   one-center:        146. kBytes
   wavefun   :      42549. kBytes
 
  
  
 General timing and accounting informations for this job:
 ========================================================
  
                  Total CPU time used (sec):      192.918
                            User time (sec):      187.042
                          System time (sec):        5.876
                         Elapsed time (sec):      195.619
  
                   Maximum memory used (kb):      308512.
                   Average memory used (kb):          N/A
  
                          Minor page faults:       101538
                          Major page faults:           66
                 Voluntary context switches:         9226
