 running  128 mpi-ranks, with    1 threads/rank, on    2 nodes
 distrk:  each k-point on   64 cores,    2 groups
 distr:  one band on    4 cores,   16 groups
 vasp.6.4.2 20Jul23 (build Oct 12 2023 10:31:02) complex                         
 POSCAR found type information on POSCAR GeSe
 POSCAR found :  2 types and       8 ions
 Reading from existing POTCAR
 scaLAPACK will be used
 Reading from existing POTCAR
 LDA part: xc-table for Pade appr. of Perdew
 POSCAR, INCAR and KPOINTS ok, starting setup
 FFT: planning ... GRIDC
 FFT: planning ... GRID_SOFT
 FFT: planning ... GRID
 WAVECAR not read
 entering main loop
       N       E                     dE             d eps       ncg     rms          rms(c)
DAV:   1     0.127862863534E+03    0.12786E+03   -0.12897E+04  2560   0.777E+02
DAV:   2    -0.259210934636E+02   -0.15378E+03   -0.14915E+03  3728   0.139E+02
DAV:   3    -0.341061322311E+02   -0.81850E+01   -0.81689E+01  3184   0.370E+01
DAV:   4    -0.341574844881E+02   -0.51352E-01   -0.51345E-01  3344   0.337E+00
DAV:   5    -0.341577810846E+02   -0.29660E-03   -0.29659E-03  3104   0.248E-01    0.645E+00
DAV:   6    -0.337771243015E+02    0.38066E+00   -0.75980E-01  3216   0.296E+00    0.404E+00
DAV:   7    -0.337698201395E+02    0.73042E-02   -0.23984E-01  3200   0.173E+00    0.127E+00
DAV:   8    -0.337676888518E+02    0.21313E-02   -0.26808E-02  3024   0.608E-01    0.170E-01
DAV:   9    -0.337678649735E+02   -0.17612E-03   -0.33764E-03  3152   0.255E-01    0.630E-02
DAV:  10    -0.337679083976E+02   -0.43424E-04   -0.23811E-04  3056   0.689E-02    0.236E-02
DAV:  11    -0.337679270190E+02   -0.18621E-04   -0.30009E-05  3040   0.258E-02    0.116E-02
DAV:  12    -0.337679265853E+02    0.43376E-06   -0.43945E-06  3168   0.840E-03
   1 F= -.33767927E+02 E0= -.33767927E+02  d E =-.210271E-13
