 vasp.6.4.2 20Jul23 (build Oct 12 2023 10:31:02) complex                         
 executed on              LinuxNV date 2025.05.28  01:02:30
 running  128 mpi-ranks, with    1 threads/rank, on    2 nodes
 distrk:  each k-point on   64 cores,    2 groups
 distr:  one band on NCORE=   4 cores,   16 groups


--------------------------------------------------------------------------------------------------------


 INCAR:
   ENCUT = 360.000000
   SIGMA = 0.050000
   EDIFF = 1.00e-06
   ALGO = Normal
   GGA = PE
   PREC = Normal
   SYSTEM = ./
   ICHARG = 2
   ISMEAR = 0
   ISPIN = 1
   ISTART = 0
   ISYM = 0
   KPAR = 2
   LMAXMIX = 4
   NELM = 100
   NPAR = 16
   LASPH = .TRUE.
   LCHARG = .FALSE.
   LWAVE = .FALSE.

 POTCAR:    PAW_PBE Ge 05Jan2001                  
 POTCAR:    PAW_PBE Se 06Sep2000                  
 POTCAR:    PAW_PBE Ge 05Jan2001                  
   VRHFIN =Ge: s2p2                                                                                 
   LEXCH  = PE                                                                                      
   EATOM  =   104.9960 eV,    7.7170 Ry                                                             
                                                                                                    
   TITEL  = PAW_PBE Ge 05Jan2001                                                                    
   LULTRA =        F    use ultrasoft PP ?                                                          
   IUNSCR =        1    unscreen: 0-lin 1-nonlin 2-no                                               
   RPACOR =    2.170    partial core radius                                                         
   POMASS =   72.610; ZVAL   =    4.000    mass and valenz                                          
   RCORE  =    2.300    outmost cutoff radius                                                       
   RWIGS  =    2.300; RWIGS  =    1.217    wigner-seitz radius (au A)                               
   ENMAX  =  173.807; ENMIN  =  130.355 eV                                                          
   ICORE  =        3    local potential                                                             
   LCOR   =        T    correct aug charges                                                         
   LPAW   =        T    paw PP                                                                      
   EAUG   =  385.843                                                                                
   DEXC   =    0.000                                                                                
   RMAX   =    2.342    core radius for proj-oper                                                   
   RAUG   =    1.300    factor for augmentation sphere                                              
   RDEP   =    2.318    radius for radial grids                                                     
   RDEPT  =    2.103    core radius for aug-charge                                                  
                                                                                                    
   Atomic configuration                                                                             
   10 entries                                                                                       
     n  l   j            E        occ.                                                              
     1  0  0.50    -10959.8463   2.0000                                                             
     2  0  0.50     -1371.6056   2.0000                                                             
     2  1  1.50     -1198.4791   6.0000                                                             
     3  0  0.50      -168.4733   2.0000                                                             
     3  1  1.50      -115.6019   6.0000                                                             
     3  2  2.50       -29.3106  10.0000                                                             
     4  0  0.50       -11.7309   2.0000                                                             
     4  1  0.50        -3.8952   2.0000                                                             
     4  2  1.50        -4.0817   0.0000                                                             
     4  3  2.50        -4.0817   0.0000                                                             
   Description                                                                                      
     l       E           TYP  RCUT    TYP  RCUT                                                     
     0    -11.7309493     23  2.300                                                                 
     0     -7.4578696     23  2.300                                                                 
     1     -3.8952261     23  2.300                                                                 
     1      6.1178114     23  2.300                                                                 
     2     -4.0817478     23  2.300                                                                 
     3     -1.3605826      7  2.300                                                                 
  local pseudopotential read in
  partial core-charges read in
  partial kinetic energy density read in
  atomic valenz-charges read in
  non local Contribution for L=            0  read in
    real space projection operators read in
  non local Contribution for L=            0  read in
    real space projection operators read in
  non local Contribution for L=            1  read in
    real space projection operators read in
  non local Contribution for L=            1  read in
    real space projection operators read in
  non local Contribution for L=            2  read in
    real space projection operators read in
    PAW grid and wavefunctions read in
 
   number of l-projection  operators is LMAX  =            5
   number of lm-projection operators is LMMAX =           13
 
 POTCAR:    PAW_PBE Se 06Sep2000                  
   VRHFIN =Se: s2p4                                                                                 
   LEXCH  = PE                                                                                      
   EATOM  =   257.1286 eV,   18.8984 Ry                                                             
                                                                                                    
   TITEL  = PAW_PBE Se 06Sep2000                                                                    
   LULTRA =        F    use ultrasoft PP ?                                                          
   IUNSCR =        1    unscreen: 0-lin 1-nonlin 2-no                                               
   RPACOR =    1.900    partial core radius                                                         
   POMASS =   78.960; ZVAL   =    6.000    mass and valenz                                          
   RCORE  =    2.100    outmost cutoff radius                                                       
   RWIGS  =    2.200; RWIGS  =    1.164    wigner-seitz radius (au A)                               
   ENMAX  =  211.555; ENMIN  =  158.666 eV                                                          
   ICORE  =        3    local potential                                                             
   LCOR   =        T    correct aug charges                                                         
   LPAW   =        T    paw PP                                                                      
   EAUG   =  446.842                                                                                
   DEXC   =    0.000                                                                                
   RMAX   =    2.147    core radius for proj-oper                                                   
   RAUG   =    1.300    factor for augmentation sphere                                              
   RDEP   =    2.177    radius for radial grids                                                     
   RDEPT  =    1.928    core radius for aug-charge                                                  
                                                                                                    
   Atomic configuration                                                                             
   10 entries                                                                                       
     n  l   j            E        occ.                                                              
     1  0  0.50    -12503.4787   2.0000                                                             
     2  0  0.50     -1606.9547   2.0000                                                             
     2  1  1.50     -1413.3140   6.0000                                                             
     3  0  0.50      -213.4885   2.0000                                                             
     3  1  1.50      -152.9538   6.0000                                                             
     3  2  2.50       -53.1221  10.0000                                                             
     4  0  0.50       -17.2865   2.0000                                                             
     4  1  0.50        -6.5110   4.0000                                                             
     4  2  2.50        -6.8029   0.0000                                                             
     4  3  2.50        -6.8029   0.0000                                                             
   Description                                                                                      
     l       E           TYP  RCUT    TYP  RCUT                                                     
     0    -17.2865377     23  2.100                                                                 
     0    -15.3094411     23  2.100                                                                 
     1     -6.5110275     23  2.100                                                                 
     1     -0.0695192     23  2.100                                                                 
     2     -6.8029130     23  2.100                                                                 
     3     -1.3605826      7  2.100                                                                 
  local pseudopotential read in
  partial core-charges read in
  partial kinetic energy density read in
  atomic valenz-charges read in
  non local Contribution for L=            0  read in
    real space projection operators read in
  non local Contribution for L=            0  read in
    real space projection operators read in
  non local Contribution for L=            1  read in
    real space projection operators read in
  non local Contribution for L=            1  read in
    real space projection operators read in
  non local Contribution for L=            2  read in
    real space projection operators read in
    PAW grid and wavefunctions read in
 
   number of l-projection  operators is LMAX  =            5
   number of lm-projection operators is LMMAX =           13
 
  PAW_PBE Ge 05Jan2001                  :
 energy of atom  1       EATOM= -104.9960
 kinetic energy error for atom=    0.0005 (will be added to EATOM!!)
  PAW_PBE Se 06Sep2000                  :
 energy of atom  2       EATOM= -257.1286
 kinetic energy error for atom=    0.0030 (will be added to EATOM!!)
 
 
 POSCAR: Ge Se
  positions in cartesian coordinates
  No initial velocities read in
 exchange correlation table for  LEXCH =        8
   RHO(1)=    0.500       N(1)  =     2000
   RHO(2)=  100.500       N(2)  =     4000
 


--------------------------------------------------------------------------------------------------------


 ion  position               nearest neighbor table
   1  0.000  0.250  0.133-   5 2.55   6 2.76   6 2.76   6 2.76   6 2.76
   2  0.500  0.750  0.367-   6 2.55   5 2.76   5 2.76   5 2.76   5 2.76
   3  0.000  0.750  0.867-   7 2.55   8 2.76   8 2.76   8 2.76   8 2.76
   4  0.500  0.250  0.633-   8 2.55   7 2.76   7 2.76   7 2.76   7 2.76
   5  0.000  0.250  0.362-   1 2.55   2 2.76   2 2.76   2 2.76   2 2.76
   6  0.500  0.750  0.138-   2 2.55   1 2.76   1 2.76   1 2.76   1 2.76
   7  0.000  0.750  0.638-   3 2.55   4 2.76   4 2.76   4 2.76   4 2.76
   8  0.500  0.250  0.862-   4 2.55   3 2.76   3 2.76   3 2.76   3 2.76
 

IMPORTANT INFORMATION: All symmetrisations will be switched off!
NOSYMM: (Re-)initialisation of all symmetry stuff for point group C_1.


----------------------------------------------------------------------------------------

                                     Primitive cell                                     

  volume of cell :     169.4732

  direct lattice vectors                    reciprocal lattice vectors
     3.900000000  0.000000000  0.000000000     0.256410256  0.000000000  0.000000000
     0.000000000  3.900000000  0.000000000     0.000000000  0.256410256  0.000000000
     0.000000000  0.000000000 11.142221000     0.000000000  0.000000000  0.089748713

  length of vectors
     3.900000000  3.900000000 11.142221000     0.256410256  0.256410256  0.089748713

  position of ions in fractional coordinates (direct lattice)
     0.000000000  0.250000000  0.132792545
     0.500000000  0.750000000  0.367207455
     0.000000000  0.750000000  0.867207455
     0.500000000  0.250000000  0.632792545
     0.000000000  0.250000000  0.361927257
     0.500000000  0.750000000  0.138072743
     0.000000000  0.750000000  0.638072743
     0.500000000  0.250000000  0.861927257

  ion indices of the primitive-cell ions
   primitive index   ion index
                 1           1
                 2           2
                 3           3
                 4           4
                 5           5
                 6           6
                 7           7
                 8           8

----------------------------------------------------------------------------------------

 
 
 KPOINTS: KPOINTS created by Atomic Simulation Env

Automatic generation of k-mesh.
 Grid dimensions read from file:
 generate k-points for:    6    6    2

 Generating k-lattice:

  Cartesian coordinates                     Fractional coordinates (reciprocal lattice)
     0.042735043  0.000000000  0.000000000     0.166666667  0.000000000  0.000000000
     0.000000000  0.042735043  0.000000000     0.000000000  0.166666667  0.000000000
     0.000000000  0.000000000  0.044874357     0.000000000  0.000000000  0.500000000

  Length of vectors
     0.042735043  0.042735043  0.044874357

  Shift w.r.t. Gamma in fractional coordinates (k-lattice)
     0.000000000  0.000000000  0.000000000

 
 Subroutine IBZKPT returns following result:
 ===========================================
 
 Found     40 irreducible k-points:
 
 Following reciprocal coordinates:
            Coordinates               Weight
  0.000000  0.000000  0.000000      1.000000
  0.166667  0.000000  0.000000      2.000000
  0.000000  0.166667  0.000000      2.000000
  0.333333  0.000000  0.000000      2.000000
  0.000000  0.333333  0.000000      2.000000
  0.500000  0.000000  0.000000      1.000000
  0.000000  0.500000  0.000000      1.000000
  0.166667  0.166667  0.000000      2.000000
 -0.166667  0.166667  0.000000      2.000000
  0.333333  0.166667  0.000000      2.000000
 -0.166667  0.333333  0.000000      2.000000
 -0.333333  0.166667  0.000000      2.000000
  0.166667  0.333333  0.000000      2.000000
  0.500000  0.166667  0.000000      2.000000
 -0.166667  0.500000  0.000000      2.000000
  0.333333  0.333333  0.000000      2.000000
 -0.333333  0.333333  0.000000      2.000000
  0.500000  0.333333  0.000000      2.000000
 -0.333333  0.500000  0.000000      2.000000
  0.500000  0.500000  0.000000      1.000000
  0.000000  0.000000  0.500000      1.000000
  0.166667  0.000000  0.500000      2.000000
  0.000000  0.166667  0.500000      2.000000
  0.333333  0.000000  0.500000      2.000000
  0.000000  0.333333  0.500000      2.000000
  0.500000  0.000000  0.500000      1.000000
  0.000000  0.500000  0.500000      1.000000
  0.166667  0.166667  0.500000      2.000000
 -0.166667  0.166667  0.500000      2.000000
  0.333333  0.166667  0.500000      2.000000
 -0.166667  0.333333  0.500000      2.000000
 -0.333333  0.166667  0.500000      2.000000
  0.166667  0.333333  0.500000      2.000000
  0.500000  0.166667  0.500000      2.000000
 -0.166667  0.500000  0.500000      2.000000
  0.333333  0.333333  0.500000      2.000000
 -0.333333  0.333333  0.500000      2.000000
  0.500000  0.333333  0.500000      2.000000
 -0.333333  0.500000  0.500000      2.000000
  0.500000  0.500000  0.500000      1.000000
 
 Following cartesian coordinates:
            Coordinates               Weight
  0.000000  0.000000  0.000000      1.000000
  0.042735  0.000000  0.000000      2.000000
  0.000000  0.042735  0.000000      2.000000
  0.085470  0.000000  0.000000      2.000000
  0.000000  0.085470  0.000000      2.000000
  0.128205  0.000000  0.000000      1.000000
  0.000000  0.128205  0.000000      1.000000
  0.042735  0.042735  0.000000      2.000000
 -0.042735  0.042735  0.000000      2.000000
  0.085470  0.042735  0.000000      2.000000
 -0.042735  0.085470  0.000000      2.000000
 -0.085470  0.042735  0.000000      2.000000
  0.042735  0.085470  0.000000      2.000000
  0.128205  0.042735  0.000000      2.000000
 -0.042735  0.128205  0.000000      2.000000
  0.085470  0.085470  0.000000      2.000000
 -0.085470  0.085470  0.000000      2.000000
  0.128205  0.085470  0.000000      2.000000
 -0.085470  0.128205  0.000000      2.000000
  0.128205  0.128205  0.000000      1.000000
  0.000000  0.000000  0.044874      1.000000
  0.042735  0.000000  0.044874      2.000000
  0.000000  0.042735  0.044874      2.000000
  0.085470  0.000000  0.044874      2.000000
  0.000000  0.085470  0.044874      2.000000
  0.128205  0.000000  0.044874      1.000000
  0.000000  0.128205  0.044874      1.000000
  0.042735  0.042735  0.044874      2.000000
 -0.042735  0.042735  0.044874      2.000000
  0.085470  0.042735  0.044874      2.000000
 -0.042735  0.085470  0.044874      2.000000
 -0.085470  0.042735  0.044874      2.000000
  0.042735  0.085470  0.044874      2.000000
  0.128205  0.042735  0.044874      2.000000
 -0.042735  0.128205  0.044874      2.000000
  0.085470  0.085470  0.044874      2.000000
 -0.085470  0.085470  0.044874      2.000000
  0.128205  0.085470  0.044874      2.000000
 -0.085470  0.128205  0.044874      2.000000
  0.128205  0.128205  0.044874      1.000000
 


--------------------------------------------------------------------------------------------------------




 Dimension of arrays:
   k-points           NKPTS =     40   k-points in BZ     NKDIM =     40   number of bands    NBANDS=     32
   number of dos      NEDOS =    301   number of ions     NIONS =      8
   non local maximal  LDIM  =      5   non local SUM 2l+1 LMDIM =     13
   total plane-waves  NPLWV =  17496
   max r-space proj   IRMAX =      1   max aug-charges    IRDMAX=   5810
   dimension x,y,z NGX =    18 NGY =   18 NGZ =   54
   dimension x,y,z NGXF=    36 NGYF=   36 NGZF=  108
   support grid    NGXF=    36 NGYF=   36 NGZF=  108
   ions per type =               4   4
   NGX,Y,Z   is equivalent  to a cutoff of   7.67,  7.67,  8.06 a.u.
   NGXF,Y,Z  is equivalent  to a cutoff of  15.35, 15.35, 16.11 a.u.

 SYSTEM =  ./                                      
 POSCAR =  Ge Se                                   

 Startparameter for this run:
   NWRITE =      2    write-flag & timer
   PREC   = normal    normal or accurate (medium, high low for compatibility)
   ISTART =      0    job   : 0-new  1-cont  2-samecut
   ICHARG =      2    charge: 1-file 2-atom 10-const
   ISPIN  =      1    spin polarized calculation?
   LNONCOLLINEAR =      F non collinear calculations
   LSORBIT =      F    spin-orbit coupling
   INIWAV =      1    electr: 0-lowe 1-rand  2-diag
   LASPH  =      T    aspherical Exc in radial PAW
 Electronic Relaxation 1
   ENCUT  =  360.0 eV  26.46 Ry    5.14 a.u.   6.03  6.03 17.24*2*pi/ulx,y,z
   ENINI  =  360.0     initial cutoff
   ENAUG  =  446.8 eV  augmentation charge cutoff
   NELM   =    100;   NELMIN=  2; NELMDL= -5     # of ELM steps 
   EDIFF  = 0.1E-05   stopping-criterion for ELM
   LREAL  =      F    real-space projection
   NLSPLINE    = F    spline interpolate recip. space projectors
   LCOMPAT=      F    compatible to vasp.4.4
   GGA_COMPAT  = T    GGA compatible to vasp.4.4-vasp.4.6
   LMAXPAW     = -100 max onsite density
   LMAXMIX     =    4 max onsite mixed and CHGCAR
   VOSKOWN=      0    Vosko Wilk Nusair interpolation
   ROPT   =    0.00000   0.00000
 Ionic relaxation
   EDIFFG = 0.1E-04   stopping-criterion for IOM
   NSW    =      0    number of steps for IOM
   NBLOCK =      1;   KBLOCK =      1    inner block; outer block 
   IBRION =     -1    ionic relax: 0-MD 1-quasi-New 2-CG
   NFREE  =      0    steps in history (QN), initial steepest desc. (CG)
   ISIF   =      2    stress and relaxation
   IWAVPR =     10    prediction:  0-non 1-charg 2-wave 3-comb
   ISYM   =      0    0-nonsym 1-usesym 2-fastsym
   LCORR  =      T    Harris-Foulkes like correction to forces

   POTIM  = 0.5000    time-step for ionic-motion
   TEIN   =    0.0    initial temperature
   TEBEG  =    0.0;   TEEND  =   0.0 temperature during run
   SMASS  =  -3.00    Nose mass-parameter (am)
   estimated Nose-frequenzy (Omega)   =  0.10E-29 period in steps = 0.13E+47 mass=  -0.348E-27a.u.
   SCALEE = 1.0000    scale energy and forces
   NPACO  =    256;   APACO  = 10.0  distance and # of slots for P.C.
   PSTRESS=    0.0 pullay stress

  Mass of Ions in am
   POMASS =  72.61 78.96
  Ionic Valenz
   ZVAL   =   4.00  6.00
  Atomic Wigner-Seitz radii
   RWIGS  =  -1.00 -1.00
  virtual crystal weights 
   VCA    =   1.00  1.00
   NELECT =      40.0000    total number of electrons
   NUPDOWN=      -1.0000    fix difference up-down

 DOS related values:
   EMIN   =  10.00;   EMAX   =-10.00  energy-range for DOS
   EFERMI =   0.00;   METHOD = LEGACY      
   ISMEAR =     0;   SIGMA  =   0.05  broadening in eV -4-tet -1-fermi 0-gaus

 Electronic relaxation 2 (details)
   IALGO  =     38    algorithm
   LDIAG  =      T    sub-space diagonalisation (order eigenvalues)
   LSUBROT=      F    optimize rotation matrix (better conditioning)
   TURBO    =      0    0=normal 1=particle mesh
   IRESTART =      0    0=no restart 2=restart with 2 vectors
   NREBOOT  =      0    no. of reboots
   NMIN     =      0    reboot dimension
   EREF     =   0.00    reference energy to select bands
   IMIX   =      4    mixing-type and parameters
     AMIX     =   0.40;   BMIX     =  1.00
     AMIX_MAG =   1.60;   BMIX_MAG =  1.00
     AMIN     =   0.10
     WC   =   100.;   INIMIX=   1;  MIXPRE=   1;  MAXMIX= -45

 Intra band minimization:
   WEIMIN = 0.0000     energy-eigenvalue tresh-hold
   EBREAK =  0.78E-08  absolut break condition
   DEPER  =   0.30     relativ break condition  

   TIME   =   0.40     timestep for ELM

  volume/ion in A,a.u.               =      21.18       142.96
  Fermi-wavevector in a.u.,A,eV,Ry     =   1.011722  1.911877 13.926669  1.023581
  Thomas-Fermi vector in A             =   2.144789
 
 Write flags
   LWAVE        =      F    write WAVECAR
   LDOWNSAMPLE  =      F    k-point downsampling of WAVECAR
   LCHARG       =      F    write CHGCAR
   LVTOT        =      F    write LOCPOT, total local potential
   LVHAR        =      F    write LOCPOT, Hartree potential only
   LELF         =      F    write electronic localiz. function (ELF)
   LORBIT       =      0    0 simple, 1 ext, 2 COOP (PROOUT), +10 PAW based schemes


 Dipole corrections
   LMONO  =      F    monopole corrections only (constant potential shift)
   LDIPOL =      F    correct potential (dipole corrections)
   IDIPOL =      0    1-x, 2-y, 3-z, 4-all directions 
   EPSILON=  1.0000000 bulk dielectric constant

 Exchange correlation treatment:
   GGA     =    PE    GGA type
   LEXCH   =     8    internal setting for exchange type
   LIBXC   =     F    Libxc                    
   VOSKOWN =     0    Vosko Wilk Nusair interpolation
   LHFCALC =     F    Hartree Fock is set to
   LHFONE  =     F    Hartree Fock one center treatment
   AEXX    =    0.0000 exact exchange contribution

 Linear response parameters
   LEPSILON=     F    determine dielectric tensor
   LRPA    =     F    only Hartree local field effects (RPA)
   LNABLA  =     F    use nabla operator in PAW spheres
   LVEL    =     F    velocity operator in full k-point grid
   CSHIFT  =0.1000    complex shift for real part using Kramers Kronig
   OMEGAMAX=  -1.0    maximum frequency
   DEG_THRESHOLD= 0.2000000E-02 threshold for treating states as degnerate
   RTIME   =   -0.100 relaxation time in fs
  (WPLASMAI=    0.000 imaginary part of plasma frequency in eV, 0.658/RTIME)
   DFIELD  = 0.0000000 0.0000000 0.0000000 field for delta impulse in time
 
  Optional k-point grid parameters
   LKPOINTS_OPT  =     F    use optional k-point grid
   KPOINTS_OPT_MODE=     1    mode for optional k-point grid
 
 Orbital magnetization related:
   ORBITALMAG=     F  switch on orbital magnetization
   LCHIMAG   =     F  perturbation theory with respect to B field
   DQ        =  0.001000  dq finite difference perturbation B field
   LLRAUG    =     F  two centre corrections for induced B field
   LBONE     =     F  B-component reconstruction in AE one-centre
   LVGVCALC  =     T  calculate vGv susceptibility
   LVGVAPPL  =     F  apply vGv susceptibility instead of pGv for G=0

 Random number generation:
   RANDOM_GENERATOR = DEFAULT
   PCG_SEED         = not used


--------------------------------------------------------------------------------------------------------


 Static calculation
 charge density and potential will be updated during run
 non-spin polarized calculation
 Variant of blocked Davidson
 Davidson routine will perform the subspace rotation
 perform sub-space diagonalisation
    after iterative eigenvector-optimisation
 modified Broyden-mixing scheme, WC =      100.0
 initial mixing is a Kerker type mixing with AMIX =  0.4000 and BMIX =      1.0000
 Hartree-type preconditioning will be used
 using additional bands            12
 reciprocal scheme for non local part
 use partial core corrections
 calculate Harris-corrections to forces 
   (improved forces if not selfconsistent)
 use gradient corrections 
 use of overlap-Matrix (Vanderbilt PP)
 Gauss-broadening in eV      SIGMA  =   0.05


--------------------------------------------------------------------------------------------------------


  energy-cutoff  :      360.00
  volume of cell :      169.47
      direct lattice vectors                 reciprocal lattice vectors
     3.900000000  0.000000000  0.000000000     0.256410256  0.000000000  0.000000000
     0.000000000  3.900000000  0.000000000     0.000000000  0.256410256  0.000000000
     0.000000000  0.000000000 11.142221000     0.000000000  0.000000000  0.089748713

  length of vectors
     3.900000000  3.900000000 11.142221000     0.256410256  0.256410256  0.089748713


 
 k-points in units of 2pi/SCALE and weight: KPOINTS created by Atomic Simulation Env
   0.00000000  0.00000000  0.00000000       0.014
   0.04273504  0.00000000  0.00000000       0.028
   0.00000000  0.04273504  0.00000000       0.028
   0.08547009  0.00000000  0.00000000       0.028
   0.00000000  0.08547009  0.00000000       0.028
   0.12820513  0.00000000  0.00000000       0.014
   0.00000000  0.12820513  0.00000000       0.014
   0.04273504  0.04273504  0.00000000       0.028
  -0.04273504  0.04273504  0.00000000       0.028
   0.08547009  0.04273504  0.00000000       0.028
  -0.04273504  0.08547009  0.00000000       0.028
  -0.08547009  0.04273504  0.00000000       0.028
   0.04273504  0.08547009  0.00000000       0.028
   0.12820513  0.04273504  0.00000000       0.028
  -0.04273504  0.12820513  0.00000000       0.028
   0.08547009  0.08547009  0.00000000       0.028
  -0.08547009  0.08547009  0.00000000       0.028
   0.12820513  0.08547009  0.00000000       0.028
  -0.08547009  0.12820513  0.00000000       0.028
   0.12820513  0.12820513  0.00000000       0.014
   0.00000000  0.00000000  0.04487436       0.014
   0.04273504  0.00000000  0.04487436       0.028
   0.00000000  0.04273504  0.04487436       0.028
   0.08547009  0.00000000  0.04487436       0.028
   0.00000000  0.08547009  0.04487436       0.028
   0.12820513  0.00000000  0.04487436       0.014
   0.00000000  0.12820513  0.04487436       0.014
   0.04273504  0.04273504  0.04487436       0.028
  -0.04273504  0.04273504  0.04487436       0.028
   0.08547009  0.04273504  0.04487436       0.028
  -0.04273504  0.08547009  0.04487436       0.028
  -0.08547009  0.04273504  0.04487436       0.028
   0.04273504  0.08547009  0.04487436       0.028
   0.12820513  0.04273504  0.04487436       0.028
  -0.04273504  0.12820513  0.04487436       0.028
   0.08547009  0.08547009  0.04487436       0.028
  -0.08547009  0.08547009  0.04487436       0.028
   0.12820513  0.08547009  0.04487436       0.028
  -0.08547009  0.12820513  0.04487436       0.028
   0.12820513  0.12820513  0.04487436       0.014
 
 k-points in reciprocal lattice and weights: KPOINTS created by Atomic Simulation Env
   0.00000000  0.00000000  0.00000000       0.014
   0.16666667  0.00000000  0.00000000       0.028
   0.00000000  0.16666667  0.00000000       0.028
   0.33333333  0.00000000  0.00000000       0.028
   0.00000000  0.33333333  0.00000000       0.028
   0.50000000  0.00000000  0.00000000       0.014
   0.00000000  0.50000000  0.00000000       0.014
   0.16666667  0.16666667  0.00000000       0.028
  -0.16666667  0.16666667  0.00000000       0.028
   0.33333333  0.16666667  0.00000000       0.028
  -0.16666667  0.33333333  0.00000000       0.028
  -0.33333333  0.16666667  0.00000000       0.028
   0.16666667  0.33333333  0.00000000       0.028
   0.50000000  0.16666667  0.00000000       0.028
  -0.16666667  0.50000000  0.00000000       0.028
   0.33333333  0.33333333  0.00000000       0.028
  -0.33333333  0.33333333  0.00000000       0.028
   0.50000000  0.33333333  0.00000000       0.028
  -0.33333333  0.50000000  0.00000000       0.028
   0.50000000  0.50000000  0.00000000       0.014
   0.00000000  0.00000000  0.50000000       0.014
   0.16666667  0.00000000  0.50000000       0.028
   0.00000000  0.16666667  0.50000000       0.028
   0.33333333  0.00000000  0.50000000       0.028
   0.00000000  0.33333333  0.50000000       0.028
   0.50000000  0.00000000  0.50000000       0.014
   0.00000000  0.50000000  0.50000000       0.014
   0.16666667  0.16666667  0.50000000       0.028
  -0.16666667  0.16666667  0.50000000       0.028
   0.33333333  0.16666667  0.50000000       0.028
  -0.16666667  0.33333333  0.50000000       0.028
  -0.33333333  0.16666667  0.50000000       0.028
   0.16666667  0.33333333  0.50000000       0.028
   0.50000000  0.16666667  0.50000000       0.028
  -0.16666667  0.50000000  0.50000000       0.028
   0.33333333  0.33333333  0.50000000       0.028
  -0.33333333  0.33333333  0.50000000       0.028
   0.50000000  0.33333333  0.50000000       0.028
  -0.33333333  0.50000000  0.50000000       0.028
   0.50000000  0.50000000  0.50000000       0.014
 
 position of ions in fractional coordinates (direct lattice) 
   0.00000000  0.25000000  0.13279255
   0.50000000  0.75000000  0.36720745
   0.00000000  0.75000000  0.86720745
   0.50000000  0.25000000  0.63279255
   0.00000000  0.25000000  0.36192726
   0.50000000  0.75000000  0.13807274
   0.00000000  0.75000000  0.63807274
   0.50000000  0.25000000  0.86192726
 
 position of ions in cartesian coordinates  (Angst):
   0.00000000  0.97500000  1.47960389
   1.95000000  2.92500000  4.09150661
   0.00000000  2.92500000  9.66261711
   1.95000000  0.97500000  7.05071439
   0.00000000  0.97500000  4.03267348
   1.95000000  2.92500000  1.53843702
   0.00000000  2.92500000  7.10954752
   1.95000000  0.97500000  9.60378398
 


--------------------------------------------------------------------------------------------------------


 k-point   1 :   0.0000 0.0000 0.0000  plane waves:    2595
 k-point   2 :   0.1667 0.0000 0.0000  plane waves:    2626
 k-point   3 :   0.0000 0.1667 0.0000  plane waves:    2626
 k-point   4 :   0.3333 0.0000 0.0000  plane waves:    2600
 k-point   5 :   0.0000 0.3333 0.0000  plane waves:    2600
 k-point   6 :   0.5000 0.0000 0.0000  plane waves:    2620
 k-point   7 :   0.0000 0.5000 0.0000  plane waves:    2620
 k-point   8 :   0.1667 0.1667 0.0000  plane waves:    2623
 k-point   9 :  -0.1667 0.1667 0.0000  plane waves:    2623
 k-point  10 :   0.3333 0.1667 0.0000  plane waves:    2621
 k-point  11 :  -0.1667 0.3333 0.0000  plane waves:    2621
 k-point  12 :  -0.3333 0.1667 0.0000  plane waves:    2621
 k-point  13 :   0.1667 0.3333 0.0000  plane waves:    2621
 k-point  14 :   0.5000 0.1667 0.0000  plane waves:    2648
 k-point  15 :  -0.1667 0.5000 0.0000  plane waves:    2648
 k-point  16 :   0.3333 0.3333 0.0000  plane waves:    2636
 k-point  17 :  -0.3333 0.3333 0.0000  plane waves:    2636
 k-point  18 :   0.5000 0.3333 0.0000  plane waves:    2652
 k-point  19 :  -0.3333 0.5000 0.0000  plane waves:    2652
 k-point  20 :   0.5000 0.5000 0.0000  plane waves:    2616
 k-point  21 :   0.0000 0.0000 0.5000  plane waves:    2634
 k-point  22 :   0.1667 0.0000 0.5000  plane waves:    2614
 k-point  23 :   0.0000 0.1667 0.5000  plane waves:    2614
 k-point  24 :   0.3333 0.0000 0.5000  plane waves:    2624
 k-point  25 :   0.0000 0.3333 0.5000  plane waves:    2624
 k-point  26 :   0.5000 0.0000 0.5000  plane waves:    2608
 k-point  27 :   0.0000 0.5000 0.5000  plane waves:    2608
 k-point  28 :   0.1667 0.1667 0.5000  plane waves:    2618
 k-point  29 :  -0.1667 0.1667 0.5000  plane waves:    2618
 k-point  30 :   0.3333 0.1667 0.5000  plane waves:    2624
 k-point  31 :  -0.1667 0.3333 0.5000  plane waves:    2624
 k-point  32 :  -0.3333 0.1667 0.5000  plane waves:    2624
 k-point  33 :   0.1667 0.3333 0.5000  plane waves:    2624
 k-point  34 :   0.5000 0.1667 0.5000  plane waves:    2632
 k-point  35 :  -0.1667 0.5000 0.5000  plane waves:    2632
 k-point  36 :   0.3333 0.3333 0.5000  plane waves:    2658
 k-point  37 :  -0.3333 0.3333 0.5000  plane waves:    2658
 k-point  38 :   0.5000 0.3333 0.5000  plane waves:    2652
 k-point  39 :  -0.3333 0.5000 0.5000  plane waves:    2652
 k-point  40 :   0.5000 0.5000 0.5000  plane waves:    2648

 maximum and minimum number of plane-waves per node :       676      634

 maximum number of plane-waves:      2658
 maximum index in each direction: 
   IXMAX=    6   IYMAX=    6   IZMAX=   17
   IXMIN=   -6   IYMIN=   -6   IZMIN=  -17


 parallel 3D FFT for wavefunctions:
    minimum data exchange during FFTs selected (reduces bandwidth)
 parallel 3D FFT for charge:
    minimum data exchange during FFTs selected (reduces bandwidth)


 total amount of memory used by VASP MPI-rank0    37294. kBytes
=======================================================================

   base      :      30000. kBytes
   nonl-proj :       5677. kBytes
   fftplans  :        284. kBytes
   grid      :        416. kBytes
   one-center:         16. kBytes
   wavefun   :        901. kBytes
 
     INWAV:  cpu time      0.0000: real time      0.0001
 Broyden mixing: mesh for mixing (old mesh)
   NGX = 13   NGY = 13   NGZ = 35
  (NGX  = 36   NGY  = 36   NGZ  =108)
  gives a total of   5915 points

 initial charge density was supplied:
 charge density of overlapping atoms calculated
 number of electron      40.0000000 magnetization 
 keeping initial charge density in first step


--------------------------------------------------------------------------------------------------------


 Maximum index for augmentation-charges           378 (set IRDMAX)


--------------------------------------------------------------------------------------------------------


 First call to EWALD:  gamma=   0.320
 Maximum number of real-space cells 4x 4x 2
 Maximum number of reciprocal cells 2x 2x 5

    FEWALD:  cpu time      0.0010: real time      0.0010


--------------------------------------- Ionic step        1  -------------------------------------------




--------------------------------------- Iteration      1(   1)  ---------------------------------------


    POTLOK:  cpu time      0.0059: real time      0.0062
    SETDIJ:  cpu time      0.1391: real time      0.1396
     EDDAV:  cpu time      0.2585: real time      0.2611
       DOS:  cpu time      0.0020: real time      0.0021
    --------------------------------------------
      LOOP:  cpu time      0.4055: real time      0.4090

 eigenvalue-minimisations  :  2560
 total energy-change (2. order) : 0.1246176E+03  (-0.1309326E+04)
 number of electron      40.0000000 magnetization 
 augmentation part       40.0000000 magnetization 

 Free energy of the ion-electron system (eV)
  ---------------------------------------------------
  alpha Z        PSCENC =        99.98304923
  Ewald energy   TEWEN  =     -1503.38729407
  -Hartree energ DENC   =       -98.54152166
  -exchange      EXHF   =         0.00000000
  -V(xc)+E(xc)   XCENC  =       -31.72432860
  PAW double counting   =      1193.78262552    -1080.73714043
  entropy T*S    EENTRO =        -0.00249042
  eigenvalues    EBANDS =        96.76011213
  atomic energy  EATOM  =      1448.48460880
  Solvation  Ediel_sol  =         0.00000000
  ---------------------------------------------------
  free energy    TOTEN  =       124.61762049 eV

  energy without entropy =      124.62011091  energy(sigma->0) =      124.61886570


--------------------------------------------------------------------------------------------------------




--------------------------------------- Iteration      1(   2)  ---------------------------------------


     EDDAV:  cpu time      0.3226: real time      0.3259
       DOS:  cpu time      0.0012: real time      0.0012
    --------------------------------------------
      LOOP:  cpu time      0.3237: real time      0.3271

 eigenvalue-minimisations  :  3744
 total energy-change (2. order) :-0.1507935E+03  (-0.1459762E+03)
 number of electron      40.0000000 magnetization 
 augmentation part       40.0000000 magnetization 

 Free energy of the ion-electron system (eV)
  ---------------------------------------------------
  alpha Z        PSCENC =        99.98304923
  Ewald energy   TEWEN  =     -1503.38729407
  -Hartree energ DENC   =       -98.54152166
  -exchange      EXHF   =         0.00000000
  -V(xc)+E(xc)   XCENC  =       -31.72432860
  PAW double counting   =      1193.78262552    -1080.73714043
  entropy T*S    EENTRO =        -0.00127531
  eigenvalues    EBANDS =       -54.03458884
  atomic energy  EATOM  =      1448.48460880
  Solvation  Ediel_sol  =         0.00000000
  ---------------------------------------------------
  free energy    TOTEN  =       -26.17586536 eV

  energy without entropy =      -26.17459005  energy(sigma->0) =      -26.17522771


--------------------------------------------------------------------------------------------------------




--------------------------------------- Iteration      1(   3)  ---------------------------------------


     EDDAV:  cpu time      0.2931: real time      0.2961
       DOS:  cpu time      0.0010: real time      0.0010
    --------------------------------------------
      LOOP:  cpu time      0.2941: real time      0.2971

 eigenvalue-minimisations  :  3216
 total energy-change (2. order) :-0.7396945E+01  (-0.7383632E+01)
 number of electron      40.0000000 magnetization 
 augmentation part       40.0000000 magnetization 

 Free energy of the ion-electron system (eV)
  ---------------------------------------------------
  alpha Z        PSCENC =        99.98304923
  Ewald energy   TEWEN  =     -1503.38729407
  -Hartree energ DENC   =       -98.54152166
  -exchange      EXHF   =         0.00000000
  -V(xc)+E(xc)   XCENC  =       -31.72432860
  PAW double counting   =      1193.78262552    -1080.73714043
  entropy T*S    EENTRO =        -0.00116027
  eigenvalues    EBANDS =       -61.43164906
  atomic energy  EATOM  =      1448.48460880
  Solvation  Ediel_sol  =         0.00000000
  ---------------------------------------------------
  free energy    TOTEN  =       -33.57281055 eV

  energy without entropy =      -33.57165028  energy(sigma->0) =      -33.57223041


--------------------------------------------------------------------------------------------------------




--------------------------------------- Iteration      1(   4)  ---------------------------------------


     EDDAV:  cpu time      0.2976: real time      0.3007
       DOS:  cpu time      0.0010: real time      0.0010
    --------------------------------------------
      LOOP:  cpu time      0.2987: real time      0.3018

 eigenvalue-minimisations  :  3328
 total energy-change (2. order) :-0.4211081E-01  (-0.4210043E-01)
 number of electron      40.0000000 magnetization 
 augmentation part       40.0000000 magnetization 

 Free energy of the ion-electron system (eV)
  ---------------------------------------------------
  alpha Z        PSCENC =        99.98304923
  Ewald energy   TEWEN  =     -1503.38729407
  -Hartree energ DENC   =       -98.54152166
  -exchange      EXHF   =         0.00000000
  -V(xc)+E(xc)   XCENC  =       -31.72432860
  PAW double counting   =      1193.78262552    -1080.73714043
  entropy T*S    EENTRO =        -0.00118779
  eigenvalues    EBANDS =       -61.47373236
  atomic energy  EATOM  =      1448.48460880
  Solvation  Ediel_sol  =         0.00000000
  ---------------------------------------------------
  free energy    TOTEN  =       -33.61492136 eV

  energy without entropy =      -33.61373357  energy(sigma->0) =      -33.61432747


--------------------------------------------------------------------------------------------------------




--------------------------------------- Iteration      1(   5)  ---------------------------------------


     EDDAV:  cpu time      0.2843: real time      0.2875
       DOS:  cpu time      0.0011: real time      0.0011
    CHARGE:  cpu time      0.0036: real time      0.0036
    MIXING:  cpu time      0.0007: real time      0.0007
    --------------------------------------------
      LOOP:  cpu time      0.2896: real time      0.2929

 eigenvalue-minimisations  :  3088
 total energy-change (2. order) :-0.2493568E-03  (-0.2493530E-03)
 number of electron      40.0000026 magnetization 
 augmentation part       -7.4358882 magnetization 

 Broyden mixing:
  rms(total) = 0.70295E+00    rms(broyden)= 0.70294E+00
  rms(prec ) = 0.76660E+00
  weight for this iteration     100.00

 Free energy of the ion-electron system (eV)
  ---------------------------------------------------
  alpha Z        PSCENC =        99.98304923
  Ewald energy   TEWEN  =     -1503.38729407
  -Hartree energ DENC   =       -98.54152166
  -exchange      EXHF   =         0.00000000
  -V(xc)+E(xc)   XCENC  =       -31.72432860
  PAW double counting   =      1193.78262552    -1080.73714043
  entropy T*S    EENTRO =        -0.00118779
  eigenvalues    EBANDS =       -61.47398172
  atomic energy  EATOM  =      1448.48460880
  Solvation  Ediel_sol  =         0.00000000
  ---------------------------------------------------
  free energy    TOTEN  =       -33.61517072 eV

  energy without entropy =      -33.61398293  energy(sigma->0) =      -33.61457682


--------------------------------------------------------------------------------------------------------




--------------------------------------- Iteration      1(   6)  ---------------------------------------


    POTLOK:  cpu time      0.0049: real time      0.0051
    SETDIJ:  cpu time      0.1373: real time      0.1381
     EDDAV:  cpu time      0.2863: real time      0.2891
       DOS:  cpu time      0.0011: real time      0.0011
    CHARGE:  cpu time      0.0033: real time      0.0034
    MIXING:  cpu time      0.0005: real time      0.0005
    --------------------------------------------
      LOOP:  cpu time      0.4333: real time      0.4373

 eigenvalue-minimisations  :  3216
 total energy-change (2. order) : 0.3412072E+00  (-0.6705609E-01)
 number of electron      40.0000027 magnetization 
 augmentation part       -7.3808615 magnetization 

 Broyden mixing:
  rms(total) = 0.43859E+00    rms(broyden)= 0.43859E+00
  rms(prec ) = 0.45218E+00
  weight for this iteration     100.00

 eigenvalues of (default mixing * dielectric matrix)
  average eigenvalue GAMMA=   2.3111
  2.3111

 Free energy of the ion-electron system (eV)
  ---------------------------------------------------
  alpha Z        PSCENC =        99.98304923
  Ewald energy   TEWEN  =     -1503.38729407
  -Hartree energ DENC   =      -103.57814982
  -exchange      EXHF   =         0.00000000
  -V(xc)+E(xc)   XCENC  =       -31.19138434
  PAW double counting   =      1484.83859929    -1372.13448136
  entropy T*S    EENTRO =        -0.00028897
  eigenvalues    EBANDS =       -56.28862229
  atomic energy  EATOM  =      1448.48460880
  Solvation  Ediel_sol  =         0.00000000
  ---------------------------------------------------
  free energy    TOTEN  =       -33.27396352 eV

  energy without entropy =      -33.27367456  energy(sigma->0) =      -33.27381904


--------------------------------------------------------------------------------------------------------




--------------------------------------- Iteration      1(   7)  ---------------------------------------


    POTLOK:  cpu time      0.0048: real time      0.0050
    SETDIJ:  cpu time      0.1383: real time      0.1390
     EDDAV:  cpu time      0.3012: real time      0.3043
       DOS:  cpu time      0.0010: real time      0.0010
    CHARGE:  cpu time      0.0035: real time      0.0035
    MIXING:  cpu time      0.0005: real time      0.0005
    --------------------------------------------
      LOOP:  cpu time      0.4493: real time      0.4533

 eigenvalue-minimisations  :  3456
 total energy-change (2. order) : 0.3082063E-03  (-0.2387967E-01)
 number of electron      40.0000027 magnetization 
 augmentation part       -7.3652956 magnetization 

 Broyden mixing:
  rms(total) = 0.11409E+00    rms(broyden)= 0.11409E+00
  rms(prec ) = 0.12190E+00
  weight for this iteration     100.00

 eigenvalues of (default mixing * dielectric matrix)
  average eigenvalue GAMMA=   1.8260
  1.2688  2.3832

 Free energy of the ion-electron system (eV)
  ---------------------------------------------------
  alpha Z        PSCENC =        99.98304923
  Ewald energy   TEWEN  =     -1503.38729407
  -Hartree energ DENC   =      -106.03064131
  -exchange      EXHF   =         0.00000000
  -V(xc)+E(xc)   XCENC  =       -30.75046109
  PAW double counting   =      1881.08322416    -1768.68143834
  entropy T*S    EENTRO =        -0.00023046
  eigenvalues    EBANDS =       -53.97447224
  atomic energy  EATOM  =      1448.48460880
  Solvation  Ediel_sol  =         0.00000000
  ---------------------------------------------------
  free energy    TOTEN  =       -33.27365532 eV

  energy without entropy =      -33.27342486  energy(sigma->0) =      -33.27354009


--------------------------------------------------------------------------------------------------------




--------------------------------------- Iteration      1(   8)  ---------------------------------------


    POTLOK:  cpu time      0.0048: real time      0.0050
    SETDIJ:  cpu time      0.1368: real time      0.1378
     EDDAV:  cpu time      0.2717: real time      0.2743
       DOS:  cpu time      0.0009: real time      0.0009
    CHARGE:  cpu time      0.0033: real time      0.0033
    MIXING:  cpu time      0.0005: real time      0.0005
    --------------------------------------------
      LOOP:  cpu time      0.4180: real time      0.4219

 eigenvalue-minimisations  :  3088
 total energy-change (2. order) : 0.3828114E-02  (-0.3136383E-02)
 number of electron      40.0000027 magnetization 
 augmentation part       -7.3765750 magnetization 

 Broyden mixing:
  rms(total) = 0.16487E-01    rms(broyden)= 0.16487E-01
  rms(prec ) = 0.19022E-01
  weight for this iteration     100.00

 eigenvalues of (default mixing * dielectric matrix)
  average eigenvalue GAMMA=   1.7542
  2.5531  1.3547  1.3547

 Free energy of the ion-electron system (eV)
  ---------------------------------------------------
  alpha Z        PSCENC =        99.98304923
  Ewald energy   TEWEN  =     -1503.38729407
  -Hartree energ DENC   =      -105.51834097
  -exchange      EXHF   =         0.00000000
  -V(xc)+E(xc)   XCENC  =       -30.69117182
  PAW double counting   =      2000.67876979    -1888.32727728
  entropy T*S    EENTRO =        -0.00020647
  eigenvalues    EBANDS =       -54.49196442
  atomic energy  EATOM  =      1448.48460880
  Solvation  Ediel_sol  =         0.00000000
  ---------------------------------------------------
  free energy    TOTEN  =       -33.26982720 eV

  energy without entropy =      -33.26962074  energy(sigma->0) =      -33.26972397


--------------------------------------------------------------------------------------------------------




--------------------------------------- Iteration      1(   9)  ---------------------------------------


    POTLOK:  cpu time      0.0048: real time      0.0050
    SETDIJ:  cpu time      0.1369: real time      0.1377
     EDDAV:  cpu time      0.2759: real time      0.2787
       DOS:  cpu time      0.0009: real time      0.0009
    CHARGE:  cpu time      0.0033: real time      0.0033
    MIXING:  cpu time      0.0005: real time      0.0005
    --------------------------------------------
      LOOP:  cpu time      0.4224: real time      0.4262

 eigenvalue-minimisations  :  3040
 total energy-change (2. order) :-0.2872840E-03  (-0.2617627E-03)
 number of electron      40.0000027 magnetization 
 augmentation part       -7.3758267 magnetization 

 Broyden mixing:
  rms(total) = 0.63399E-02    rms(broyden)= 0.63399E-02
  rms(prec ) = 0.67016E-02
  weight for this iteration     100.00

 eigenvalues of (default mixing * dielectric matrix)
  average eigenvalue GAMMA=   1.6472
  2.3623  1.1830  1.1830  1.8606

 Free energy of the ion-electron system (eV)
  ---------------------------------------------------
  alpha Z        PSCENC =        99.98304923
  Ewald energy   TEWEN  =     -1503.38729407
  -Hartree energ DENC   =      -105.78576389
  -exchange      EXHF   =         0.00000000
  -V(xc)+E(xc)   XCENC  =       -30.65597002
  PAW double counting   =      2017.45947594    -1905.12145571
  entropy T*S    EENTRO =        -0.00019152
  eigenvalues    EBANDS =       -54.24657325
  atomic energy  EATOM  =      1448.48460880
  Solvation  Ediel_sol  =         0.00000000
  ---------------------------------------------------
  free energy    TOTEN  =       -33.27011449 eV

  energy without entropy =      -33.26992296  energy(sigma->0) =      -33.27001873


--------------------------------------------------------------------------------------------------------




--------------------------------------- Iteration      1(  10)  ---------------------------------------


    POTLOK:  cpu time      0.0047: real time      0.0049
    SETDIJ:  cpu time      0.1369: real time      0.1376
     EDDAV:  cpu time      0.2412: real time      0.2433
       DOS:  cpu time      0.0006: real time      0.0006
    CHARGE:  cpu time      0.0028: real time      0.0028
    MIXING:  cpu time      0.0003: real time      0.0003
    --------------------------------------------
      LOOP:  cpu time      0.3864: real time      0.3894

 eigenvalue-minimisations  :  3376
 total energy-change (2. order) :-0.1883102E-04  (-0.9257133E-05)
 number of electron      40.0000027 magnetization 
 augmentation part       -7.3757156 magnetization 

 Broyden mixing:
  rms(total) = 0.24699E-02    rms(broyden)= 0.24699E-02
  rms(prec ) = 0.28580E-02
  weight for this iteration     100.00

 eigenvalues of (default mixing * dielectric matrix)
  average eigenvalue GAMMA=   1.7979
  2.8619  2.5796  0.9932  1.2775  1.2775

 Free energy of the ion-electron system (eV)
  ---------------------------------------------------
  alpha Z        PSCENC =        99.98304923
  Ewald energy   TEWEN  =     -1503.38729407
  -Hartree energ DENC   =      -105.80662775
  -exchange      EXHF   =         0.00000000
  -V(xc)+E(xc)   XCENC  =       -30.65571455
  PAW double counting   =      2010.58451430    -1898.24207931
  entropy T*S    EENTRO =        -0.00019058
  eigenvalues    EBANDS =       -54.23039938
  atomic energy  EATOM  =      1448.48460880
  Solvation  Ediel_sol  =         0.00000000
  ---------------------------------------------------
  free energy    TOTEN  =       -33.27013332 eV

  energy without entropy =      -33.26994274  energy(sigma->0) =      -33.27003803


--------------------------------------------------------------------------------------------------------




--------------------------------------- Iteration      1(  11)  ---------------------------------------


    POTLOK:  cpu time      0.0033: real time      0.0034
    SETDIJ:  cpu time      0.1365: real time      0.1369
     EDDAV:  cpu time      0.1841: real time      0.1851
       DOS:  cpu time      0.0006: real time      0.0006
    CHARGE:  cpu time      0.0026: real time      0.0026
    MIXING:  cpu time      0.0003: real time      0.0003
    --------------------------------------------
      LOOP:  cpu time      0.3273: real time      0.3288

 eigenvalue-minimisations  :  2912
 total energy-change (2. order) :-0.1669809E-04  (-0.3378655E-05)
 number of electron      40.0000027 magnetization 
 augmentation part       -7.3758702 magnetization 

 Broyden mixing:
  rms(total) = 0.71706E-03    rms(broyden)= 0.71705E-03
  rms(prec ) = 0.85796E-03
  weight for this iteration     100.00

 eigenvalues of (default mixing * dielectric matrix)
  average eigenvalue GAMMA=   1.6895
  2.7153  2.4187  1.7197  1.2028  1.2028  0.8777

 Free energy of the ion-electron system (eV)
  ---------------------------------------------------
  alpha Z        PSCENC =        99.98304923
  Ewald energy   TEWEN  =     -1503.38729407
  -Hartree energ DENC   =      -105.82613800
  -exchange      EXHF   =         0.00000000
  -V(xc)+E(xc)   XCENC  =       -30.65113479
  PAW double counting   =      2010.15699794    -1897.81343481
  entropy T*S    EENTRO =        -0.00019155
  eigenvalues    EBANDS =       -54.21661276
  atomic energy  EATOM  =      1448.48460880
  Solvation  Ediel_sol  =         0.00000000
  ---------------------------------------------------
  free energy    TOTEN  =       -33.27015002 eV

  energy without entropy =      -33.26995846  energy(sigma->0) =      -33.27005424


--------------------------------------------------------------------------------------------------------




--------------------------------------- Iteration      1(  12)  ---------------------------------------


    POTLOK:  cpu time      0.0032: real time      0.0033
    SETDIJ:  cpu time      0.1319: real time      0.1322
     EDDAV:  cpu time      0.1775: real time      0.1785
       DOS:  cpu time      0.0006: real time      0.0006
    --------------------------------------------
      LOOP:  cpu time      0.3131: real time      0.3146

 eigenvalue-minimisations  :  2848
 total energy-change (2. order) :-0.1039541E-06  (-0.3201480E-06)
 number of electron      40.0000027 magnetization 
 augmentation part       -7.3758702 magnetization 

 Free energy of the ion-electron system (eV)
  ---------------------------------------------------
  alpha Z        PSCENC =        99.98304923
  Ewald energy   TEWEN  =     -1503.38729407
  -Hartree energ DENC   =      -105.83221582
  -exchange      EXHF   =         0.00000000
  -V(xc)+E(xc)   XCENC  =       -30.65064882
  PAW double counting   =      2010.42816981    -1898.08488590
  entropy T*S    EENTRO =        -0.00019154
  eigenvalues    EBANDS =       -54.21074180
  atomic energy  EATOM  =      1448.48460880
  Solvation  Ediel_sol  =         0.00000000
  ---------------------------------------------------
  free energy    TOTEN  =       -33.27015012 eV

  energy without entropy =      -33.26995858  energy(sigma->0) =      -33.27005435


--------------------------------------------------------------------------------------------------------




 average (electrostatic) potential at core
  the test charge radii are     1.1631  1.0808
  (the norm of the test charge is              1.0000)
       1 -32.3499       2 -32.3499       3 -32.3499       4 -32.3499       5 -53.8375
       6 -53.8375       7 -53.8375       8 -53.8375
 
 
 
 E-fermi :   4.7065     XC(G=0):  -9.9421     alpha+bet : -9.9606

 Fermi energy:         4.7064558415

 k-point     1 :       0.0000    0.0000    0.0000
  band No.  band energies     occupation 
      1     -10.3522      2.00000
      2      -9.9569      2.00000
      3      -8.9253      2.00000
      4      -8.2447      2.00000
      5      -2.9969      2.00000
      6      -2.3691      2.00000
      7      -1.4956      2.00000
      8      -0.9731      2.00000
      9      -0.7143      2.00000
     10       0.5613      2.00000
     11       0.5629      2.00000
     12       1.0189      2.00000
     13       1.0252      2.00000
     14       1.9035      2.00000
     15       1.9067      2.00000
     16       1.9106      2.00000
     17       2.6411      2.00000
     18       2.6596      2.00000
     19       3.3636      2.00000
     20       4.0844      2.00000
     21       4.9498      0.00000
     22       8.0172      0.00000
     23       8.1457      0.00000
     24       8.9312      0.00000
     25       8.9627      0.00000
     26       8.9687      0.00000
     27       9.1989      0.00000
     28       9.2727      0.00000
     29       9.3882      0.00000
     30       9.6663      0.00000
     31      10.3218      0.00000
     32      10.4111      0.00000

 k-point     2 :       0.1667    0.0000    0.0000
  band No.  band energies     occupation 
      1     -10.1546      2.00000
      2      -9.7667      2.00000
      3      -8.8106      2.00000
      4      -8.1824      2.00000
      5      -3.7193      2.00000
      6      -2.9918      2.00000
      7      -1.9872      2.00000
      8      -1.5826      2.00000
      9      -1.1640      2.00000
     10       0.8175      2.00000
     11       1.0187      2.00000
     12       1.2778      2.00000
     13       1.5098      2.00000
     14       1.7638      2.00000
     15       2.1276      2.00000
     16       2.8570      2.00000
     17       3.0168      2.00000
     18       3.2822      2.00000
     19       3.4974      2.00000
     20       3.9760      2.00000
     21       4.6307      1.96793
     22       7.6291      0.00000
     23       7.7413      0.00000
     24       7.9309      0.00000
     25       8.3115      0.00000
     26       8.7696      0.00000
     27       8.8746      0.00000
     28       8.9584      0.00000
     29       8.9664      0.00000
     30       9.3032      0.00000
     31       9.6366      0.00000
     32       9.8205      0.00000

 k-point     3 :       0.0000    0.1667    0.0000
  band No.  band energies     occupation 
      1     -10.1509      2.00000
      2      -9.7719      2.00000
      3      -8.7993      2.00000
      4      -8.2025      2.00000
      5      -3.5789      2.00000
      6      -3.1381      2.00000
      7      -1.9896      2.00000
      8      -1.5884      2.00000
      9      -1.1223      2.00000
     10       0.8207      2.00000
     11       1.1733      2.00000
     12       1.2683      2.00000
     13       1.3851      2.00000
     14       1.6919      2.00000
     15       2.1367      2.00000
     16       2.8263      2.00000
     17       3.0904      2.00000
     18       3.2564      2.00000
     19       3.5033      2.00000
     20       3.7247      2.00000
     21       4.9775      0.00000
     22       7.4244      0.00000
     23       7.8903      0.00000
     24       8.0811      0.00000
     25       8.3337      0.00000
     26       8.3520      0.00000
     27       9.0128      0.00000
     28       9.0226      0.00000
     29       9.0293      0.00000
     30       9.2011      0.00000
     31       9.5824      0.00000
     32       9.7804      0.00000

 k-point     4 :       0.3333    0.0000    0.0000
  band No.  band energies     occupation 
      1      -9.6099      2.00000
      2      -9.2424      2.00000
      3      -8.6483      2.00000
      4      -8.1730      2.00000
      5      -4.7353      2.00000
      6      -3.8283      2.00000
      7      -3.6255      2.00000
      8      -2.8181      2.00000
      9      -0.5166      2.00000
     10       1.3509      2.00000
     11       1.5469      2.00000
     12       1.9951      2.00000
     13       2.0910      2.00000
     14       2.4863      2.00000
     15       2.6338      2.00000
     16       3.2486      2.00000
     17       3.3471      2.00000
     18       3.6048      2.00000
     19       4.2679      2.00000
     20       4.6048      1.99595
     21       4.9744      0.00000
     22       5.8289      0.00000
     23       5.9032      0.00000
     24       5.9684      0.00000
     25       6.6091      0.00000
     26       6.9268      0.00000
     27       7.3799      0.00000
     28       7.8493      0.00000
     29       7.8499      0.00000
     30       8.1374      0.00000
     31       9.6479      0.00000
     32      10.2052      0.00000

 k-point     5 :       0.0000    0.3333    0.0000
  band No.  band energies     occupation 
      1      -9.5863      2.00000
      2      -9.2744      2.00000
      3      -8.5742      2.00000
      4      -8.2809      2.00000
      5      -4.5031      2.00000
      6      -4.0302      2.00000
      7      -3.5621      2.00000
      8      -2.8586      2.00000
      9      -0.5167      2.00000
     10       1.4947      2.00000
     11       1.5610      2.00000
     12       1.9662      2.00000
     13       2.1437      2.00000
     14       2.2243      2.00000
     15       2.6891      2.00000
     16       3.1296      2.00000
     17       3.4218      2.00000
     18       3.5751      2.00000
     19       3.9940      2.00000
     20       4.7916      0.01604
     21       5.2340      0.00000
     22       5.5263      0.00000
     23       6.2507      0.00000
     24       6.2610      0.00000
     25       6.4050      0.00000
     26       7.0113      0.00000
     27       7.0183      0.00000
     28       7.7837      0.00000
     29       7.8397      0.00000
     30       8.3528      0.00000
     31       9.3913      0.00000
     32      10.0842      0.00000

 k-point     6 :       0.5000    0.0000    0.0000
  band No.  band energies     occupation 
      1      -8.9379      2.00000
      2      -8.9379      2.00000
      3      -8.5755      2.00000
      4      -8.5755      2.00000
      5      -4.7467      2.00000
      6      -4.7467      2.00000
      7      -3.7746      2.00000
      8      -3.7746      2.00000
      9       0.4975      2.00000
     10       0.4975      2.00000
     11       2.4951      2.00000
     12       2.4951      2.00000
     13       2.7229      2.00000
     14       2.7229      2.00000
     15       2.9427      2.00000
     16       2.9427      2.00000
     17       4.0134      2.00000
     18       4.0134      2.00000
     19       4.1918      2.00000
     20       4.1918      2.00000
     21       5.5008      0.00000
     22       5.5008      0.00000
     23       5.8162      0.00000
     24       5.8162      0.00000
     25       6.0124      0.00000
     26       6.0124      0.00000
     27       6.4405      0.00000
     28       6.4405      0.00000
     29       6.5932      0.00000
     30       6.5932      0.00000
     31      10.0137      0.00000
     32      10.0137      0.00000

 k-point     7 :       0.0000    0.5000    0.0000
  band No.  band energies     occupation 
      1      -8.8268      2.00000
      2      -8.8268      2.00000
      3      -8.7146      2.00000
      4      -8.7146      2.00000
      5      -4.5918      2.00000
      6      -4.5918      2.00000
      7      -3.8949      2.00000
      8      -3.8949      2.00000
      9       0.5124      2.00000
     10       0.5124      2.00000
     11       2.5970      2.00000
     12       2.5970      2.00000
     13       2.7375      2.00000
     14       2.7375      2.00000
     15       2.7818      2.00000
     16       2.7818      2.00000
     17       3.8176      2.00000
     18       3.8176      2.00000
     19       4.4047      2.00000
     20       4.4047      2.00000
     21       5.5520      0.00000
     22       5.5520      0.00000
     23       5.7154      0.00000
     24       5.7154      0.00000
     25       5.9958      0.00000
     26       5.9958      0.00000
     27       6.2954      0.00000
     28       6.2954      0.00000
     29       6.8686      0.00000
     30       6.8686      0.00000
     31       9.8173      0.00000
     32       9.8173      0.00000

 k-point     8 :       0.1667    0.1667    0.0000
  band No.  band energies     occupation 
      1      -9.9595      2.00000
      2      -9.5893      2.00000
      3      -8.6929      2.00000
      4      -8.1449      2.00000
      5      -3.9017      2.00000
      6      -3.2767      2.00000
      7      -2.1628      2.00000
      8      -2.1585      2.00000
      9      -0.9546      2.00000
     10      -0.0362      2.00000
     11      -0.0354      2.00000
     12       1.5826      2.00000
     13       1.6014      2.00000
     14       1.9318      2.00000
     15       2.4597      2.00000
     16       2.6852      2.00000
     17       3.7914      2.00000
     18       3.8404      2.00000
     19       4.1138      2.00000
     20       4.1543      2.00000
     21       4.7975      0.01004
     22       6.0331      0.00000
     23       6.3279      0.00000
     24       6.7573      0.00000
     25       7.7358      0.00000
     26       8.7038      0.00000
     27       8.7788      0.00000
     28       9.1665      0.00000
     29       9.5296      0.00000
     30       9.5943      0.00000
     31       9.8173      0.00000
     32      10.0350      0.00000

 k-point     9 :      -0.1667    0.1667    0.0000
  band No.  band energies     occupation 
      1      -9.9595      2.00000
      2      -9.5893      2.00000
      3      -8.6929      2.00000
      4      -8.1449      2.00000
      5      -3.9017      2.00000
      6      -3.2767      2.00000
      7      -2.1628      2.00000
      8      -2.1585      2.00000
      9      -0.9546      2.00000
     10      -0.0362      2.00000
     11      -0.0354      2.00000
     12       1.5826      2.00000
     13       1.6014      2.00000
     14       1.9318      2.00000
     15       2.4597      2.00000
     16       2.6852      2.00000
     17       3.7914      2.00000
     18       3.8404      2.00000
     19       4.1138      2.00000
     20       4.1543      2.00000
     21       4.7975      0.01004
     22       6.0331      0.00000
     23       6.3279      0.00000
     24       6.7573      0.00000
     25       7.7358      0.00000
     26       8.7038      0.00000
     27       8.7788      0.00000
     28       9.1665      0.00000
     29       9.5296      0.00000
     30       9.5943      0.00000
     31       9.8173      0.00000
     32      10.0350      0.00000

 k-point    10 :       0.3333    0.1667    0.0000
  band No.  band energies     occupation 
      1      -9.4374      2.00000
      2      -9.0922      2.00000
      3      -8.5460      2.00000
      4      -8.1305      2.00000
      5      -4.5565      2.00000
      6      -3.6594      2.00000
      7      -3.4851      2.00000
      8      -2.8308      2.00000
      9      -0.3330      2.00000
     10      -0.0955      2.00000
     11       0.0016      2.00000
     12       1.3088      2.00000
     13       1.8105      2.00000
     14       2.1947      2.00000
     15       2.2093      2.00000
     16       2.8859      2.00000
     17       2.9521      2.00000
     18       3.3395      2.00000
     19       4.0455      2.00000
     20       4.3337      2.00000
     21       5.0104      0.00000
     22       5.5958      0.00000
     23       6.4063      0.00000
     24       6.7683      0.00000
     25       7.0578      0.00000
     26       7.4098      0.00000
     27       8.4332      0.00000
     28       9.2134      0.00000
     29       9.4109      0.00000
     30       9.6521      0.00000
     31       9.9238      0.00000
     32      10.2927      0.00000

 k-point    11 :      -0.1667    0.3333    0.0000
  band No.  band energies     occupation 
      1      -9.4177      2.00000
      2      -9.1185      2.00000
      3      -8.4854      2.00000
      4      -8.2153      2.00000
      5      -4.3758      2.00000
      6      -3.8238      2.00000
      7      -3.4149      2.00000
      8      -2.8833      2.00000
      9      -0.3333      2.00000
     10      -0.1253      2.00000
     11       0.0512      2.00000
     12       1.3468      2.00000
     13       1.6979      2.00000
     14       2.1798      2.00000
     15       2.2133      2.00000
     16       2.9776      2.00000
     17       3.0798      2.00000
     18       3.2021      2.00000
     19       3.8963      2.00000
     20       4.3359      2.00000
     21       5.0961      0.00000
     22       5.7871      0.00000
     23       6.3501      0.00000
     24       6.6673      0.00000
     25       7.0067      0.00000
     26       7.5485      0.00000
     27       8.8054      0.00000
     28       8.8923      0.00000
     29       9.0267      0.00000
     30       9.5450      0.00000
     31       9.8628      0.00000
     32      10.2996      0.00000

 k-point    12 :      -0.3333    0.1667    0.0000
  band No.  band energies     occupation 
      1      -9.4374      2.00000
      2      -9.0922      2.00000
      3      -8.5460      2.00000
      4      -8.1305      2.00000
      5      -4.5565      2.00000
      6      -3.6594      2.00000
      7      -3.4851      2.00000
      8      -2.8308      2.00000
      9      -0.3330      2.00000
     10      -0.0955      2.00000
     11       0.0016      2.00000
     12       1.3088      2.00000
     13       1.8105      2.00000
     14       2.1947      2.00000
     15       2.2093      2.00000
     16       2.8859      2.00000
     17       2.9521      2.00000
     18       3.3395      2.00000
     19       4.0455      2.00000
     20       4.3337      2.00000
     21       5.0104      0.00000
     22       5.5958      0.00000
     23       6.4063      0.00000
     24       6.7683      0.00000
     25       7.0578      0.00000
     26       7.4098      0.00000
     27       8.4332      0.00000
     28       9.2134      0.00000
     29       9.4109      0.00000
     30       9.6521      0.00000
     31       9.9238      0.00000
     32      10.2927      0.00000

 k-point    13 :       0.1667    0.3333    0.0000
  band No.  band energies     occupation 
      1      -9.4177      2.00000
      2      -9.1185      2.00000
      3      -8.4854      2.00000
      4      -8.2153      2.00000
      5      -4.3758      2.00000
      6      -3.8238      2.00000
      7      -3.4149      2.00000
      8      -2.8833      2.00000
      9      -0.3333      2.00000
     10      -0.1253      2.00000
     11       0.0512      2.00000
     12       1.3468      2.00000
     13       1.6979      2.00000
     14       2.1798      2.00000
     15       2.2133      2.00000
     16       2.9776      2.00000
     17       3.0798      2.00000
     18       3.2021      2.00000
     19       3.8963      2.00000
     20       4.3359      2.00000
     21       5.0961      0.00000
     22       5.7871      0.00000
     23       6.3501      0.00000
     24       6.6673      0.00000
     25       7.0067      0.00000
     26       7.5485      0.00000
     27       8.8054      0.00000
     28       8.8923      0.00000
     29       9.0267      0.00000
     30       9.5450      0.00000
     31       9.8628      0.00000
     32      10.2996      0.00000

 k-point    14 :       0.5000    0.1667    0.0000
  band No.  band energies     occupation 
      1      -8.8097      2.00000
      2      -8.8097      2.00000
      3      -8.4804      2.00000
      4      -8.4804      2.00000
      5      -4.5066      2.00000
      6      -4.5066      2.00000
      7      -3.5729      2.00000
      8      -3.5729      2.00000
      9       0.3876      2.00000
     10       0.3876      2.00000
     11       0.8605      2.00000
     12       0.8605      2.00000
     13       1.5699      2.00000
     14       1.5699      2.00000
     15       2.1812      2.00000
     16       2.1812      2.00000
     17       3.1904      2.00000
     18       3.1904      2.00000
     19       3.4271      2.00000
     20       3.4271      2.00000
     21       5.8491      0.00000
     22       5.8491      0.00000
     23       6.7232      0.00000
     24       6.7232      0.00000
     25       7.4642      0.00000
     26       7.4642      0.00000
     27       8.3044      0.00000
     28       8.3044      0.00000
     29       8.9611      0.00000
     30       8.9611      0.00000
     31       9.8179      0.00000
     32       9.8179      0.00000

 k-point    15 :      -0.1667    0.5000    0.0000
  band No.  band energies     occupation 
      1      -8.7070      2.00000
      2      -8.7070      2.00000
      3      -8.6063      2.00000
      4      -8.6063      2.00000
      5      -4.3541      2.00000
      6      -4.3541      2.00000
      7      -3.6983      2.00000
      8      -3.6983      2.00000
      9       0.4323      2.00000
     10       0.4323      2.00000
     11       0.7819      2.00000
     12       0.7819      2.00000
     13       1.4975      2.00000
     14       1.4975      2.00000
     15       2.6568      2.00000
     16       2.6568      2.00000
     17       2.6681      2.00000
     18       2.6681      2.00000
     19       3.5429      2.00000
     20       3.5429      2.00000
     21       5.8459      0.00000
     22       5.8459      0.00000
     23       7.0451      0.00000
     24       7.0451      0.00000
     25       7.2608      0.00000
     26       7.2608      0.00000
     27       8.1398      0.00000
     28       8.1398      0.00000
     29       9.0530      0.00000
     30       9.0530      0.00000
     31       9.6591      0.00000
     32       9.6591      0.00000

 k-point    16 :       0.3333    0.3333    0.0000
  band No.  band energies     occupation 
      1      -8.9771      2.00000
      2      -8.7167      2.00000
      3      -8.3523      2.00000
      4      -8.1327      2.00000
      5      -4.1326      2.00000
      6      -3.3366      2.00000
      7      -3.2254      2.00000
      8      -3.1271      2.00000
      9      -1.1563      2.00000
     10      -1.1558      2.00000
     11      -0.0210      2.00000
     12       0.4029      2.00000
     13       0.5772      2.00000
     14       0.7776      2.00000
     15       1.5169      2.00000
     16       1.7768      2.00000
     17       2.3535      2.00000
     18       2.6332      2.00000
     19       2.7690      2.00000
     20       3.0621      2.00000
     21       5.6478      0.00000
     22       7.7366      0.00000
     23       7.9842      0.00000
     24       7.9958      0.00000
     25       8.1502      0.00000
     26       9.2086      0.00000
     27       9.2847      0.00000
     28       9.3491      0.00000
     29      10.0745      0.00000
     30      10.2763      0.00000
     31      10.2863      0.00000
     32      10.4744      0.00000

 k-point    17 :      -0.3333    0.3333    0.0000
  band No.  band energies     occupation 
      1      -8.9771      2.00000
      2      -8.7167      2.00000
      3      -8.3523      2.00000
      4      -8.1327      2.00000
      5      -4.1326      2.00000
      6      -3.3366      2.00000
      7      -3.2254      2.00000
      8      -3.1271      2.00000
      9      -1.1563      2.00000
     10      -1.1558      2.00000
     11      -0.0210      2.00000
     12       0.4029      2.00000
     13       0.5772      2.00000
     14       0.7776      2.00000
     15       1.5169      2.00000
     16       1.7768      2.00000
     17       2.3535      2.00000
     18       2.6332      2.00000
     19       2.7690      2.00000
     20       3.0621      2.00000
     21       5.6478      0.00000
     22       7.7366      0.00000
     23       7.9842      0.00000
     24       7.9958      0.00000
     25       8.1502      0.00000
     26       9.2086      0.00000
     27       9.2847      0.00000
     28       9.3491      0.00000
     29      10.0745      0.00000
     30      10.2763      0.00000
     31      10.2863      0.00000
     32      10.4743      0.00000

 k-point    18 :       0.5000    0.3333    0.0000
  band No.  band energies     occupation 
      1      -8.5046      2.00000
      2      -8.5046      2.00000
      3      -8.2919      2.00000
      4      -8.2919      2.00000
      5      -3.8199      2.00000
      6      -3.8199      2.00000
      7      -3.0661      2.00000
      8      -3.0661      2.00000
      9      -0.8486      2.00000
     10      -0.8486      2.00000
     11      -0.7833      2.00000
     12      -0.7833      2.00000
     13       0.5863      2.00000
     14       0.5863      2.00000
     15       1.2063      2.00000
     16       1.2063      2.00000
     17       1.7654      2.00000
     18       1.7654      2.00000
     19       2.7668      2.00000
     20       2.7668      2.00000
     21       6.6832      0.00000
     22       6.6832      0.00000
     23       8.8013      0.00000
     24       8.8013      0.00000
     25       9.5764      0.00000
     26       9.5764      0.00000
     27       9.7075      0.00000
     28       9.7075      0.00000
     29       9.9019      0.00000
     30       9.9019      0.00000
     31      10.7791      0.00000
     32      10.7791      0.00000

 k-point    19 :      -0.3333    0.5000    0.0000
  band No.  band energies     occupation 
      1      -8.4346      2.00000
      2      -8.4345      2.00000
      3      -8.3716      2.00000
      4      -8.3716      2.00000
      5      -3.6834      2.00000
      6      -3.6834      2.00000
      7      -3.2033      2.00000
      8      -3.2033      2.00000
      9      -0.9259      2.00000
     10      -0.9259      2.00000
     11      -0.7021      2.00000
     12      -0.7021      2.00000
     13       0.5674      2.00000
     14       0.5674      2.00000
     15       1.3208      2.00000
     16       1.3208      2.00000
     17       1.6797      2.00000
     18       1.6797      2.00000
     19       2.7481      2.00000
     20       2.7481      2.00000
     21       6.8041      0.00000
     22       6.8041      0.00000
     23       8.6269      0.00000
     24       8.6269      0.00000
     25       9.5538      0.00000
     26       9.5538      0.00000
     27       9.7214      0.00000
     28       9.7214      0.00000
     29       9.7464      0.00000
     30       9.7464      0.00000
     31      10.8730      0.00000
     32      10.8730      0.00000

 k-point    20 :       0.5000    0.5000    0.0000
  band No.  band energies     occupation 
      1      -8.2600      2.00000
      2      -8.2600      2.00000
      3      -8.2600      2.00000
      4      -8.2600      2.00000
      5      -2.9539      2.00000
      6      -2.9539      2.00000
      7      -2.9539      2.00000
      8      -2.9539      2.00000
      9      -1.5914      2.00000
     10      -1.5914      2.00000
     11      -1.5914      2.00000
     12      -1.5914      2.00000
     13       0.1886      2.00000
     14       0.1886      2.00000
[...]
     32      10.1086      0.00000

 k-point    32 :      -0.3333    0.1667    0.5000
  band No.  band energies     occupation 
      1      -9.3018      2.00000
      2      -9.3018      2.00000
      3      -8.3016      2.00000
      4      -8.3016      2.00000
      5      -4.2274      2.00000
      6      -4.2274      2.00000
      7      -3.0999      2.00000
      8      -3.0999      2.00000
      9      -0.0106      2.00000
     10      -0.0106      2.00000
     11       0.7766      2.00000
     12       0.7766      2.00000
     13       1.3563      2.00000
     14       1.3563      2.00000
     15       2.8162      2.00000
     16       2.8162      2.00000
     17       2.9635      2.00000
     18       2.9635      2.00000
     19       4.2234      2.00000
     20       4.2234      2.00000
     21       5.9064      0.00000
     22       5.9064      0.00000
     23       6.6759      0.00000
     24       6.6759      0.00000
     25       7.2950      0.00000
     26       7.2950      0.00000
     27       8.4690      0.00000
     28       8.4690      0.00000
     29       8.6796      0.00000
     30       8.6796      0.00000
     31      10.0689      0.00000
     32      10.0689      0.00000

 k-point    33 :       0.1667    0.3333    0.5000
  band No.  band energies     occupation 
      1      -9.2934      2.00000
      2      -9.2934      2.00000
      3      -8.3225      2.00000
      4      -8.3225      2.00000
      5      -4.1503      2.00000
      6      -4.1503      2.00000
      7      -3.1628      2.00000
      8      -3.1628      2.00000
      9      -0.0027      2.00000
     10      -0.0027      2.00000
     11       0.7431      2.00000
     12       0.7431      2.00000
     13       1.3974      2.00000
     14       1.3974      2.00000
     15       2.6997      2.00000
     16       2.6997      2.00000
     17       3.0694      2.00000
     18       3.0694      2.00000
     19       4.1944      2.00000
     20       4.1944      2.00000
     21       5.9183      0.00000
     22       5.9183      0.00000
     23       6.6773      0.00000
     24       6.6773      0.00000
     25       7.5665      0.00000
     26       7.5665      0.00000
     27       8.0573      0.00000
     28       8.0573      0.00000
     29       8.7083      0.00000
     30       8.7083      0.00000
     31      10.1086      0.00000
     32      10.1086      0.00000

 k-point    34 :       0.5000    0.1667    0.5000
  band No.  band energies     occupation 
      1      -8.8032      2.00000
      2      -8.8032      2.00000
      3      -8.4899      2.00000
      4      -8.4899      2.00000
      5      -4.4016      2.00000
      6      -4.4016      2.00000
      7      -3.7315      2.00000
      8      -3.7315      2.00000
      9       0.6979      2.00000
     10       0.6979      2.00000
     11       0.9442      2.00000
     12       0.9442      2.00000
     13       1.5504      2.00000
     14       1.5504      2.00000
     15       1.9746      2.00000
     16       1.9746      2.00000
     17       2.7181      2.00000
     18       2.7181      2.00000
     19       3.4474      2.00000
     20       3.4474      2.00000
     21       6.8399      0.00000
     22       6.8399      0.00000
     23       6.9367      0.00000
     24       6.9367      0.00000
     25       6.9974      0.00000
     26       6.9974      0.00000
     27       8.4625      0.00000
     28       8.4625      0.00000
     29       8.6569      0.00000
     30       8.6569      0.00000
     31       8.9883      0.00000
     32       8.9883      0.00000

 k-point    35 :      -0.1667    0.5000    0.5000
  band No.  band energies     occupation 
      1      -8.6581      2.00000
      2      -8.6581      2.00000
      3      -8.6581      2.00000
      4      -8.6581      2.00000
      5      -4.0542      2.00000
      6      -4.0542      2.00000
      7      -4.0542      2.00000
      8      -4.0542      2.00000
      9       0.8494      2.00000
     10       0.8494      2.00000
     11       0.8494      2.00000
     12       0.8494      2.00000
     13       1.6466      2.00000
     14       1.6466      2.00000
     15       1.6466      2.00000
     16       1.6466      2.00000
     17       3.1644      2.00000
     18       3.1644      2.00000
     19       3.1644      2.00000
     20       3.1644      2.00000
     21       6.8081      0.00000
     22       6.8081      0.00000
     23       6.8081      0.00000
     24       6.8081      0.00000
     25       7.7014      0.00000
     26       7.7014      0.00000
     27       7.7014      0.00000
     28       7.7014      0.00000
     29       8.8568      0.00000
     30       8.8568      0.00000
     31       8.8568      0.00000
     32       8.8568      0.00000

 k-point    36 :       0.3333    0.3333    0.5000
  band No.  band energies     occupation 
      1      -8.8721      2.00000
      2      -8.8721      2.00000
      3      -8.2171      2.00000
      4      -8.2171      2.00000
      5      -3.8179      2.00000
      6      -3.8179      2.00000
      7      -3.1468      2.00000
      8      -3.1468      2.00000
      9      -1.0604      2.00000
     10      -1.0604      2.00000
     11       0.3395      2.00000
     12       0.3395      2.00000
     13       0.6085      2.00000
     14       0.6085      2.00000
     15       1.3905      2.00000
     16       1.3905      2.00000
     17       2.3582      2.00000
     18       2.3582      2.00000
     19       3.1435      2.00000
     20       3.1435      2.00000
     21       7.0677      0.00000
     22       7.0677      0.00000
     23       7.6979      0.00000
     24       7.6979      0.00000
     25       7.8593      0.00000
     26       7.8593      0.00000
     27       9.3299      0.00000
     28       9.3299      0.00000
     29      10.3034      0.00000
     30      10.3034      0.00000
     31      11.0829      0.00000
     32      11.0829      0.00000

 k-point    37 :      -0.3333    0.3333    0.5000
  band No.  band energies     occupation 
      1      -8.8721      2.00000
      2      -8.8721      2.00000
      3      -8.2171      2.00000
      4      -8.2171      2.00000
      5      -3.8179      2.00000
      6      -3.8179      2.00000
      7      -3.1468      2.00000
      8      -3.1468      2.00000
      9      -1.0604      2.00000
     10      -1.0604      2.00000
     11       0.3395      2.00000
     12       0.3395      2.00000
     13       0.6085      2.00000
     14       0.6085      2.00000
     15       1.3905      2.00000
     16       1.3905      2.00000
     17       2.3582      2.00000
     18       2.3582      2.00000
     19       3.1435      2.00000
     20       3.1435      2.00000
     21       7.0677      0.00000
     22       7.0677      0.00000
     23       7.6979      0.00000
     24       7.6979      0.00000
     25       7.8593      0.00000
     26       7.8593      0.00000
     27       9.3299      0.00000
     28       9.3299      0.00000
     29      10.3034      0.00000
     30      10.3034      0.00000
     31      11.0829      0.00000
     32      11.0829      0.00000

 k-point    38 :       0.5000    0.3333    0.5000
  band No.  band energies     occupation 
      1      -8.5005      2.00000
      2      -8.5005      2.00000
      3      -8.2970      2.00000
      4      -8.2970      2.00000
      5      -3.7630      2.00000
      6      -3.7630      2.00000
      7      -3.1562      2.00000
      8      -3.1562      2.00000
      9      -0.8752      2.00000
     10      -0.8752      2.00000
     11      -0.6391      2.00000
     12      -0.6391      2.00000
     13       0.6749      2.00000
     14       0.6749      2.00000
     15       0.7617      2.00000
     16       0.7617      2.00000
     17       2.1887      2.00000
     18       2.1887      2.00000
     19       2.6523      2.00000
     20       2.6523      2.00000
     21       6.8724      0.00000
     22       6.8724      0.00000
     23       7.8538      0.00000
     24       7.8538      0.00000
     25       9.5331      0.00000
     26       9.5331      0.00000
     27       9.6529      0.00000
     28       9.6529      0.00000
     29      10.7194      0.00000
     30      10.7194      0.00000
     31      10.9326      0.00000
     32      10.9326      0.00000

 k-point    39 :      -0.3333    0.5000    0.5000
  band No.  band energies     occupation 
      1      -8.4036      2.00000
      2      -8.4036      2.00000
      3      -8.4036      2.00000
      4      -8.4036      2.00000
      5      -3.4646      2.00000
      6      -3.4646      2.00000
      7      -3.4646      2.00000
      8      -3.4646      2.00000
      9      -0.7460      2.00000
     10      -0.7460      2.00000
     11      -0.7460      2.00000
     12      -0.7460      2.00000
     13       0.7032      2.00000
     14       0.7032      2.00000
     15       0.7032      2.00000
     16       0.7032      2.00000
     17       2.4279      2.00000
     18       2.4279      2.00000
     19       2.4279      2.00000
     20       2.4279      2.00000
     21       7.3336      0.00000
     22       7.3336      0.00000
     23       7.3336      0.00000
     24       7.3336      0.00000
     25       9.5499      0.00000
     26       9.5499      0.00000
     27       9.5499      0.00000
     28       9.5499      0.00000
     29      10.8803      0.00000
     30      10.8803      0.00000
     31      10.8803      0.00000
     32      10.8803      0.00000

 k-point    40 :       0.5000    0.5000    0.5000
  band No.  band energies     occupation 
      1      -8.2600      2.00000
      2      -8.2600      2.00000
      3      -8.2600      2.00000
      4      -8.2600      2.00000
      5      -2.9815      2.00000
      6      -2.9815      2.00000
      7      -2.9815      2.00000
      8      -2.9815      2.00000
      9      -1.4473      2.00000
     10      -1.4473      2.00000
     11      -1.4473      2.00000
     12      -1.4473      2.00000
     13      -0.0877      2.00000
     14      -0.0877      2.00000
     15      -0.0877      2.00000
     16      -0.0877      2.00000
     17       2.5198      2.00000
     18       2.5198      2.00000
     19       2.5198      2.00000
     20       2.5198      2.00000
     21       7.0555      0.00000
     22       7.0555      0.00000
     23       7.0555      0.00000
     24       7.0555      0.00000
     25      10.8175      0.00000
     26      10.8175      0.00000
     27      10.8175      0.00000
     28      10.8175      0.00000
     29      11.0822      0.00000
     30      11.0822      0.00000
     31      11.0822      0.00000
     32      11.0822      0.00000


--------------------------------------------------------------------------------------------------------


 soft charge-density along one line, spin component            1
         0         1         2         3         4         5         6         7         8         9
 total charge-density along one line
 
 pseudopotential strength for first ion, spin component:            1
 14.178  17.678  -0.000   0.042   0.000  -0.000   0.076   0.000
 17.678  22.057  -0.000   0.053   0.000  -0.000   0.096   0.000
 -0.000  -0.000   3.170   0.000   0.000   5.392   0.000   0.000
  0.042   0.053   0.000   3.166   0.000   0.000   5.385   0.000
  0.000   0.000   0.000   0.000   3.170   0.000   0.000   5.391
 -0.000  -0.000   5.392   0.000   0.000   9.226   0.000   0.000
  0.076   0.096   0.000   5.385   0.000   0.000   9.216   0.000
  0.000   0.000   0.000   0.000   5.391   0.000   0.000   9.226
  0.000   0.000   0.000   0.000  -0.000   0.000   0.000  -0.000
  0.000   0.000   0.012  -0.000   0.000   0.021  -0.000   0.000
 -0.004  -0.005   0.000   0.010  -0.000   0.000   0.018  -0.000
  0.000   0.000   0.000   0.000   0.012   0.000   0.000   0.021
 -0.000  -0.000   0.000   0.000   0.000   0.000   0.000   0.000
 total augmentation occupancy for first ion, spin component:            1
  2.839  -0.821  -0.000   0.370  -0.000   0.000  -0.070   0.000   0.000  -0.000  -0.011  -0.000  -0.001
 -0.821   0.803   0.000  -0.462   0.000   0.000   0.074  -0.000   0.000   0.000   0.021  -0.000   0.001
 -0.000   0.000   1.228   0.000   0.000  -0.215  -0.000  -0.000   0.000   0.021   0.000  -0.000  -0.000
  0.370  -0.462   0.000   1.354  -0.000  -0.000  -0.228   0.000  -0.000   0.000   0.131   0.000   0.001
 -0.000   0.000   0.000  -0.000   1.224  -0.000   0.000  -0.214   0.000   0.000  -0.000   0.023   0.000
  0.000   0.000  -0.215  -0.000  -0.000   0.042   0.000   0.000  -0.000  -0.004  -0.000  -0.000  -0.000
 -0.070   0.074  -0.000  -0.228   0.000   0.000   0.044  -0.000  -0.000   0.000  -0.023  -0.000  -0.000
  0.000  -0.000  -0.000   0.000  -0.214   0.000  -0.000   0.042   0.000  -0.000   0.000  -0.004   0.000
  0.000   0.000   0.000  -0.000   0.000  -0.000  -0.000   0.000   0.044  -0.000   0.000   0.000   0.000
 -0.000   0.000   0.021   0.000   0.000  -0.004   0.000  -0.000  -0.000   0.011   0.000  -0.000  -0.000
 -0.011   0.021   0.000   0.131  -0.000  -0.000  -0.023   0.000   0.000   0.000   0.039   0.000   0.000
 -0.000  -0.000  -0.000   0.000   0.023  -0.000  -0.000  -0.004   0.000  -0.000   0.000   0.011  -0.000
 -0.001   0.001  -0.000   0.001   0.000  -0.000  -0.000   0.000   0.000  -0.000   0.000  -0.000   0.010


------------------------ aborting loop because EDIFF is reached ----------------------------------------


    CHARGE:  cpu time      0.0030: real time      0.0030
    FORLOC:  cpu time      0.0001: real time      0.0001
    FORNL :  cpu time      0.0191: real time      0.0192
    STRESS:  cpu time      0.1821: real time      0.1830
    FORCOR:  cpu time      0.0029: real time      0.0029
    FORHAR:  cpu time      0.0008: real time      0.0008
    MIXING:  cpu time      0.0054: real time      0.0054
    OFIELD:  cpu time      0.0000: real time      0.0000

  FORCE on cell =-STRESS in cart. coord.  units (eV):
  Direction    XX          YY          ZZ          XY          YZ          ZX
  --------------------------------------------------------------------------------------
  Alpha Z    99.98305    99.98305    99.98305
  Ewald    -478.82068  -475.64963  -548.91893     0.00000     0.00000    -0.00000
  Hartree    44.07210    47.48969    14.27736    -0.00000     0.00000     0.00000
  E(xc)    -142.03737  -142.03586  -143.01672    -0.00000     0.00000    -0.00000
  Local    -146.53611  -152.49529   -52.23306     0.00000    -0.00000    -0.00000
  n-local   241.12529   240.92957   244.64940    -0.00000     0.00000     0.00000
  augment   -11.56184   -11.50298   -12.01155    -0.00000     0.00000     0.00000
  Kinetic   400.58856   400.56412   400.22704     0.00000    -0.00000     0.00000
  Fock        0.00000     0.00000     0.00000     0.00000     0.00000     0.00000
  -------------------------------------------------------------------------------------
  Total       6.81300     7.28269     2.95660     0.00000    -0.00000    -0.00000
  in kB      64.40922    68.84956    27.95130     0.00000    -0.00000    -0.00000
  external pressure =       53.74 kB  Pullay stress =        0.00 kB


 VOLUME and BASIS-vectors are now :
 -----------------------------------------------------------------------------
  energy-cutoff  :      360.00
  volume of cell :      169.47
      direct lattice vectors                 reciprocal lattice vectors
     3.900000000  0.000000000  0.000000000     0.256410256  0.000000000  0.000000000
     0.000000000  3.900000000  0.000000000     0.000000000  0.256410256  0.000000000
     0.000000000  0.000000000 11.142221000     0.000000000  0.000000000  0.089748713

  length of vectors
     3.900000000  3.900000000 11.142221000     0.256410256  0.256410256  0.089748713


 FORCES acting on ions
    electron-ion (+dipol)            ewald-force                    non-local-force                 convergence-correction
 -----------------------------------------------------------------------------------------------
   0.589E-06 -.196E-06 0.256E+02   0.470E-14 0.288E-15 -.281E+02   -.219E-06 0.843E-07 0.252E+01   -.312E-06 0.230E-06 -.339E-03
   0.139E-05 0.344E-07 -.256E+02   -.281E-14 0.130E-14 0.281E+02   -.590E-06 0.344E-07 -.252E+01   -.942E-06 -.134E-06 0.354E-03
   -.787E-06 0.155E-06 -.256E+02   -.306E-14 0.551E-15 0.281E+02   0.311E-06 -.770E-07 -.252E+01   0.556E-06 -.172E-06 0.338E-03
   -.130E-06 0.214E-06 0.256E+02   0.493E-14 -.125E-15 -.281E+02   0.123E-06 -.130E-06 0.252E+01   0.194E-06 -.898E-07 -.354E-03
   -.132E-05 -.171E-06 -.300E+02   0.295E-14 -.356E-14 0.319E+02   0.530E-07 -.358E-07 -.179E+01   0.132E-05 0.845E-07 0.727E-03
   -.114E-05 0.839E-06 0.300E+02   -.360E-14 0.950E-15 -.319E+02   0.555E-06 -.188E-06 0.179E+01   0.439E-06 -.582E-06 -.701E-03
   -.636E-06 -.962E-06 0.300E+02   -.223E-14 0.358E-15 -.319E+02   0.361E-06 0.509E-06 0.179E+01   0.235E-06 0.347E-06 -.728E-03
   0.683E-06 -.341E-06 -.300E+02   0.109E-14 -.250E-14 0.319E+02   0.128E-07 0.113E-07 -.179E+01   -.541E-06 0.273E-06 0.702E-03
 -----------------------------------------------------------------------------------------------
   -.136E-05 -.427E-06 0.210E-05   0.197E-14 -.273E-14 -.142E-13   0.607E-06 0.208E-06 -.254E-06   0.952E-06 -.425E-07 -.162E-05
 
 
 POSITION                                       TOTAL-FORCE (eV/Angst)
 -----------------------------------------------------------------------------------
      0.00000      0.97500      1.47960         0.000000      0.000000     -0.021587
      1.95000      2.92500      4.09151        -0.000000     -0.000000      0.021587
      0.00000      2.92500      9.66262         0.000000     -0.000000      0.021587
      1.95000      0.97500      7.05071         0.000000      0.000000     -0.021587
      0.00000      0.97500      4.03267         0.000000     -0.000000      0.015655
      1.95000      2.92500      1.53844        -0.000000      0.000000     -0.015656
      0.00000      2.92500      7.10955        -0.000000     -0.000000     -0.015655
      1.95000      0.97500      9.60378         0.000000     -0.000000      0.015656
 -----------------------------------------------------------------------------------
    total drift:                                0.000000     -0.000000      0.000000


--------------------------------------------------------------------------------------------------------



  FREE ENERGIE OF THE ION-ELECTRON SYSTEM (eV)
  ---------------------------------------------------
  free  energy   TOTEN  =       -33.27015012 eV

  energy  without entropy=      -33.26995858  energy(sigma->0) =      -33.27005435
 


--------------------------------------------------------------------------------------------------------


    POTLOK:  cpu time      0.1153: real time      0.1156


--------------------------------------------------------------------------------------------------------


     LOOP+:  cpu time      4.8011: real time      4.8418
    4ORBIT:  cpu time      0.0000: real time      0.0000

 total amount of memory used by VASP MPI-rank0    37294. kBytes
=======================================================================

   base      :      30000. kBytes
   nonl-proj :       5677. kBytes
   fftplans  :        284. kBytes
   grid      :        416. kBytes
   one-center:         16. kBytes
   wavefun   :        901. kBytes
 
  
  
 General timing and accounting informations for this job:
 ========================================================
  
                  Total CPU time used (sec):        5.604
                            User time (sec):        5.275
                          System time (sec):        0.329
                         Elapsed time (sec):        6.926
  
                   Maximum memory used (kb):      187500.
                   Average memory used (kb):          N/A
  
                          Minor page faults:        22126
                          Major page faults:           31
                 Voluntary context switches:         3578
