 running  128 mpi-ranks, with    1 threads/rank, on    2 nodes
 distrk:  each k-point on   64 cores,    2 groups
 distr:  one band on    4 cores,   16 groups
 vasp.6.4.2 20Jul23 (build Oct 12 2023 10:31:02) complex                         
 POSCAR found type information on POSCAR GeSe
 POSCAR found :  2 types and       8 ions
 Reading from existing POTCAR
 scaLAPACK will be used
 Reading from existing POTCAR
 LDA part: xc-table for Pade appr. of Perdew
 POSCAR, INCAR and KPOINTS ok, starting setup
 FFT: planning ... GRIDC
 FFT: planning ... GRID_SOFT
 FFT: planning ... GRID
 WAVECAR not read
 entering main loop
       N       E                     dE             d eps       ncg     rms          rms(c)
DAV:   1     0.124617620491E+03    0.12462E+03   -0.13093E+04  2560   0.785E+02
DAV:   2    -0.261758653634E+02   -0.15079E+03   -0.14598E+03  3744   0.141E+02
DAV:   3    -0.335728105505E+02   -0.73969E+01   -0.73836E+01  3216   0.358E+01
DAV:   4    -0.336149213621E+02   -0.42111E-01   -0.42100E-01  3328   0.307E+00
DAV:   5    -0.336151707190E+02   -0.24936E-03   -0.24935E-03  3088   0.226E-01    0.703E+00
DAV:   6    -0.332739635241E+02    0.34121E+00   -0.67056E-01  3216   0.283E+00    0.439E+00
DAV:   7    -0.332736553178E+02    0.30821E-03   -0.23880E-01  3456   0.172E+00    0.114E+00
DAV:   8    -0.332698272040E+02    0.38281E-02   -0.31364E-02  3088   0.663E-01    0.165E-01
DAV:   9    -0.332701144880E+02   -0.28728E-03   -0.26176E-03  3040   0.234E-01    0.634E-02
DAV:  10    -0.332701333190E+02   -0.18831E-04   -0.92571E-05  3376   0.429E-02    0.247E-02
DAV:  11    -0.332701500171E+02   -0.16698E-04   -0.33787E-05  2912   0.269E-02    0.717E-03
DAV:  12    -0.332701501211E+02   -0.10395E-06   -0.32015E-06  2848   0.797E-03
   1 F= -.33270150E+02 E0= -.33270054E+02  d E =-.191545E-03
