 vasp.6.4.2 20Jul23 (build Oct 12 2023 10:31:02) complex                         
 executed on              LinuxNV date 2025.05.28  20:10:33
 running  128 mpi-ranks, with    1 threads/rank, on    2 nodes
 distrk:  each k-point on   64 cores,    2 groups
 distr:  one band on NCORE=   4 cores,   16 groups


--------------------------------------------------------------------------------------------------------


 INCAR:
   ENCUT = 360.000000
   SIGMA = 0.050000
   EDIFF = 1.00e-06
   ALGO = Normal
   GGA = PE
   PREC = Normal
   SYSTEM = ./
   ICHARG = 2
   ISMEAR = 0
   ISPIN = 1
   ISTART = 0
   ISYM = 0
   KPAR = 2
   LMAXMIX = 4
   NELM = 100
   NPAR = 16
   LASPH = .TRUE.
   LCHARG = .FALSE.
   LWAVE = .FALSE.

 POTCAR:    PAW_PBE Ge 05Jan2001                  
 POTCAR:    PAW_PBE Se 06Sep2000                  
 POTCAR:    PAW_PBE Ge 05Jan2001                  
   VRHFIN =Ge: s2p2                                                                                 
   LEXCH  = PE                                                                                      
   EATOM  =   104.9960 eV,    7.7170 Ry                                                             
                                                                                                    
   TITEL  = PAW_PBE Ge 05Jan2001                                                                    
   LULTRA =        F    use ultrasoft PP ?                                                          
   IUNSCR =        1    unscreen: 0-lin 1-nonlin 2-no                                               
   RPACOR =    2.170    partial core radius                                                         
   POMASS =   72.610; ZVAL   =    4.000    mass and valenz                                          
   RCORE  =    2.300    outmost cutoff radius                                                       
   RWIGS  =    2.300; RWIGS  =    1.217    wigner-seitz radius (au A)                               
   ENMAX  =  173.807; ENMIN  =  130.355 eV                                                          
   ICORE  =        3    local potential                                                             
   LCOR   =        T    correct aug charges                                                         
   LPAW   =        T    paw PP                                                                      
   EAUG   =  385.843                                                                                
   DEXC   =    0.000                                                                                
   RMAX   =    2.342    core radius for proj-oper                                                   
   RAUG   =    1.300    factor for augmentation sphere                                              
   RDEP   =    2.318    radius for radial grids                                                     
   RDEPT  =    2.103    core radius for aug-charge                                                  
                                                                                                    
   Atomic configuration                                                                             
   10 entries                                                                                       
     n  l   j            E        occ.                                                              
     1  0  0.50    -10959.8463   2.0000                                                             
     2  0  0.50     -1371.6056   2.0000                                                             
     2  1  1.50     -1198.4791   6.0000                                                             
     3  0  0.50      -168.4733   2.0000                                                             
     3  1  1.50      -115.6019   6.0000                                                             
     3  2  2.50       -29.3106  10.0000                                                             
     4  0  0.50       -11.7309   2.0000                                                             
     4  1  0.50        -3.8952   2.0000                                                             
     4  2  1.50        -4.0817   0.0000                                                             
     4  3  2.50        -4.0817   0.0000                                                             
   Description                                                                                      
     l       E           TYP  RCUT    TYP  RCUT                                                     
     0    -11.7309493     23  2.300                                                                 
     0     -7.4578696     23  2.300                                                                 
     1     -3.8952261     23  2.300                                                                 
     1      6.1178114     23  2.300                                                                 
     2     -4.0817478     23  2.300                                                                 
     3     -1.3605826      7  2.300                                                                 
  local pseudopotential read in
  partial core-charges read in
  partial kinetic energy density read in
  atomic valenz-charges read in
  non local Contribution for L=            0  read in
    real space projection operators read in
  non local Contribution for L=            0  read in
    real space projection operators read in
  non local Contribution for L=            1  read in
    real space projection operators read in
  non local Contribution for L=            1  read in
    real space projection operators read in
  non local Contribution for L=            2  read in
    real space projection operators read in
    PAW grid and wavefunctions read in
 
   number of l-projection  operators is LMAX  =            5
   number of lm-projection operators is LMMAX =           13
 
 POTCAR:    PAW_PBE Se 06Sep2000                  
   VRHFIN =Se: s2p4                                                                                 
   LEXCH  = PE                                                                                      
   EATOM  =   257.1286 eV,   18.8984 Ry                                                             
                                                                                                    
   TITEL  = PAW_PBE Se 06Sep2000                                                                    
   LULTRA =        F    use ultrasoft PP ?                                                          
   IUNSCR =        1    unscreen: 0-lin 1-nonlin 2-no                                               
   RPACOR =    1.900    partial core radius                                                         
   POMASS =   78.960; ZVAL   =    6.000    mass and valenz                                          
   RCORE  =    2.100    outmost cutoff radius                                                       
   RWIGS  =    2.200; RWIGS  =    1.164    wigner-seitz radius (au A)                               
   ENMAX  =  211.555; ENMIN  =  158.666 eV                                                          
   ICORE  =        3    local potential                                                             
   LCOR   =        T    correct aug charges                                                         
   LPAW   =        T    paw PP                                                                      
   EAUG   =  446.842                                                                                
   DEXC   =    0.000                                                                                
   RMAX   =    2.147    core radius for proj-oper                                                   
   RAUG   =    1.300    factor for augmentation sphere                                              
   RDEP   =    2.177    radius for radial grids                                                     
   RDEPT  =    1.928    core radius for aug-charge                                                  
                                                                                                    
   Atomic configuration                                                                             
   10 entries                                                                                       
     n  l   j            E        occ.                                                              
     1  0  0.50    -12503.4787   2.0000                                                             
     2  0  0.50     -1606.9547   2.0000                                                             
     2  1  1.50     -1413.3140   6.0000                                                             
     3  0  0.50      -213.4885   2.0000                                                             
     3  1  1.50      -152.9538   6.0000                                                             
     3  2  2.50       -53.1221  10.0000                                                             
     4  0  0.50       -17.2865   2.0000                                                             
     4  1  0.50        -6.5110   4.0000                                                             
     4  2  2.50        -6.8029   0.0000                                                             
     4  3  2.50        -6.8029   0.0000                                                             
   Description                                                                                      
     l       E           TYP  RCUT    TYP  RCUT                                                     
     0    -17.2865377     23  2.100                                                                 
     0    -15.3094411     23  2.100                                                                 
     1     -6.5110275     23  2.100                                                                 
     1     -0.0695192     23  2.100                                                                 
     2     -6.8029130     23  2.100                                                                 
     3     -1.3605826      7  2.100                                                                 
  local pseudopotential read in
  partial core-charges read in
  partial kinetic energy density read in
  atomic valenz-charges read in
  non local Contribution for L=            0  read in
    real space projection operators read in
  non local Contribution for L=            0  read in
    real space projection operators read in
  non local Contribution for L=            1  read in
    real space projection operators read in
  non local Contribution for L=            1  read in
    real space projection operators read in
  non local Contribution for L=            2  read in
    real space projection operators read in
    PAW grid and wavefunctions read in
 
   number of l-projection  operators is LMAX  =            5
   number of lm-projection operators is LMMAX =           13
 
  PAW_PBE Ge 05Jan2001                  :
 energy of atom  1       EATOM= -104.9960
 kinetic energy error for atom=    0.0005 (will be added to EATOM!!)
  PAW_PBE Se 06Sep2000                  :
 energy of atom  2       EATOM= -257.1286
 kinetic energy error for atom=    0.0030 (will be added to EATOM!!)
 
 
 POSCAR: Ge Se
  positions in cartesian coordinates
  No initial velocities read in
 exchange correlation table for  LEXCH =        8
   RHO(1)=    0.500       N(1)  =     2000
   RHO(2)=  100.500       N(2)  =     4000
 


--------------------------------------------------------------------------------------------------------


 ion  position               nearest neighbor table
   1  0.000  0.250  0.149-   5 2.41
   2  0.500  0.750  0.351-   6 2.41
   3  0.000  0.750  0.851-   7 2.41
   4  0.500  0.250  0.649-   8 2.41
   5  0.000  0.250  0.365-   1 2.41
   6  0.500  0.750  0.135-   2 2.41
   7  0.000  0.750  0.635-   3 2.41
   8  0.500  0.250  0.865-   4 2.41
 

IMPORTANT INFORMATION: All symmetrisations will be switched off!
NOSYMM: (Re-)initialisation of all symmetry stuff for point group C_1.


----------------------------------------------------------------------------------------

                                     Primitive cell                                     

  volume of cell :     240.9227

  direct lattice vectors                    reciprocal lattice vectors
     4.650000000  0.000000000  0.000000000     0.215053763  0.000000000  0.000000000
     0.000000000  4.650000000  0.000000000     0.000000000  0.215053763  0.000000000
     0.000000000  0.000000000 11.142221000     0.000000000  0.000000000  0.089748713

  length of vectors
     4.650000000  4.650000000 11.142221000     0.215053763  0.215053763  0.089748713

  position of ions in fractional coordinates (direct lattice)
     0.000000000  0.250000000  0.148836468
     0.500000000  0.750000000  0.351163532
     0.000000000  0.750000000  0.851163532
     0.500000000  0.250000000  0.648836468
     0.000000000  0.250000000  0.365172813
     0.500000000  0.750000000  0.134827187
     0.000000000  0.750000000  0.634827187
     0.500000000  0.250000000  0.865172813

  ion indices of the primitive-cell ions
   primitive index   ion index
                 1           1
                 2           2
                 3           3
                 4           4
                 5           5
                 6           6
                 7           7
                 8           8

----------------------------------------------------------------------------------------

 
 
 KPOINTS: KPOINTS created by Atomic Simulation Env

Automatic generation of k-mesh.
 Grid dimensions read from file:
 generate k-points for:    6    6    2

 Generating k-lattice:

  Cartesian coordinates                     Fractional coordinates (reciprocal lattice)
     0.035842294  0.000000000  0.000000000     0.166666667  0.000000000  0.000000000
     0.000000000  0.035842294  0.000000000     0.000000000  0.166666667  0.000000000
     0.000000000  0.000000000  0.044874357     0.000000000  0.000000000  0.500000000

  Length of vectors
     0.035842294  0.035842294  0.044874357

  Shift w.r.t. Gamma in fractional coordinates (k-lattice)
     0.000000000  0.000000000  0.000000000

 
 Subroutine IBZKPT returns following result:
 ===========================================
 
 Found     40 irreducible k-points:
 
 Following reciprocal coordinates:
            Coordinates               Weight
  0.000000  0.000000  0.000000      1.000000
  0.166667  0.000000  0.000000      2.000000
  0.000000  0.166667  0.000000      2.000000
  0.333333  0.000000  0.000000      2.000000
  0.000000  0.333333  0.000000      2.000000
  0.500000  0.000000  0.000000      1.000000
  0.000000  0.500000  0.000000      1.000000
  0.166667  0.166667  0.000000      2.000000
 -0.166667  0.166667  0.000000      2.000000
  0.333333  0.166667  0.000000      2.000000
 -0.166667  0.333333  0.000000      2.000000
 -0.333333  0.166667  0.000000      2.000000
  0.166667  0.333333  0.000000      2.000000
  0.500000  0.166667  0.000000      2.000000
 -0.166667  0.500000  0.000000      2.000000
  0.333333  0.333333  0.000000      2.000000
 -0.333333  0.333333  0.000000      2.000000
  0.500000  0.333333  0.000000      2.000000
 -0.333333  0.500000  0.000000      2.000000
  0.500000  0.500000  0.000000      1.000000
  0.000000  0.000000  0.500000      1.000000
  0.166667  0.000000  0.500000      2.000000
  0.000000  0.166667  0.500000      2.000000
  0.333333  0.000000  0.500000      2.000000
  0.000000  0.333333  0.500000      2.000000
  0.500000  0.000000  0.500000      1.000000
  0.000000  0.500000  0.500000      1.000000
  0.166667  0.166667  0.500000      2.000000
 -0.166667  0.166667  0.500000      2.000000
  0.333333  0.166667  0.500000      2.000000
 -0.166667  0.333333  0.500000      2.000000
 -0.333333  0.166667  0.500000      2.000000
  0.166667  0.333333  0.500000      2.000000
  0.500000  0.166667  0.500000      2.000000
 -0.166667  0.500000  0.500000      2.000000
  0.333333  0.333333  0.500000      2.000000
 -0.333333  0.333333  0.500000      2.000000
  0.500000  0.333333  0.500000      2.000000
 -0.333333  0.500000  0.500000      2.000000
  0.500000  0.500000  0.500000      1.000000
 
 Following cartesian coordinates:
            Coordinates               Weight
  0.000000  0.000000  0.000000      1.000000
  0.035842  0.000000  0.000000      2.000000
  0.000000  0.035842  0.000000      2.000000
  0.071685  0.000000  0.000000      2.000000
  0.000000  0.071685  0.000000      2.000000
  0.107527  0.000000  0.000000      1.000000
  0.000000  0.107527  0.000000      1.000000
  0.035842  0.035842  0.000000      2.000000
 -0.035842  0.035842  0.000000      2.000000
  0.071685  0.035842  0.000000      2.000000
 -0.035842  0.071685  0.000000      2.000000
 -0.071685  0.035842  0.000000      2.000000
  0.035842  0.071685  0.000000      2.000000
  0.107527  0.035842  0.000000      2.000000
 -0.035842  0.107527  0.000000      2.000000
  0.071685  0.071685  0.000000      2.000000
 -0.071685  0.071685  0.000000      2.000000
  0.107527  0.071685  0.000000      2.000000
 -0.071685  0.107527  0.000000      2.000000
  0.107527  0.107527  0.000000      1.000000
  0.000000  0.000000  0.044874      1.000000
  0.035842  0.000000  0.044874      2.000000
  0.000000  0.035842  0.044874      2.000000
  0.071685  0.000000  0.044874      2.000000
  0.000000  0.071685  0.044874      2.000000
  0.107527  0.000000  0.044874      1.000000
  0.000000  0.107527  0.044874      1.000000
  0.035842  0.035842  0.044874      2.000000
 -0.035842  0.035842  0.044874      2.000000
  0.071685  0.035842  0.044874      2.000000
 -0.035842  0.071685  0.044874      2.000000
 -0.071685  0.035842  0.044874      2.000000
  0.035842  0.071685  0.044874      2.000000
  0.107527  0.035842  0.044874      2.000000
 -0.035842  0.107527  0.044874      2.000000
  0.071685  0.071685  0.044874      2.000000
 -0.071685  0.071685  0.044874      2.000000
  0.107527  0.071685  0.044874      2.000000
 -0.071685  0.107527  0.044874      2.000000
  0.107527  0.107527  0.044874      1.000000
 


--------------------------------------------------------------------------------------------------------




 Dimension of arrays:
   k-points           NKPTS =     40   k-points in BZ     NKDIM =     40   number of bands    NBANDS=     32
   number of dos      NEDOS =    301   number of ions     NIONS =      8
   non local maximal  LDIM  =      5   non local SUM 2l+1 LMDIM =     13
   total plane-waves  NPLWV =  31104
   max r-space proj   IRMAX =      1   max aug-charges    IRDMAX=   7216
   dimension x,y,z NGX =    24 NGY =   24 NGZ =   54
   dimension x,y,z NGXF=    48 NGYF=   48 NGZF=  108
   support grid    NGXF=    48 NGYF=   48 NGZF=  108
   ions per type =               4   4
   NGX,Y,Z   is equivalent  to a cutoff of   8.58,  8.58,  8.06 a.u.
   NGXF,Y,Z  is equivalent  to a cutoff of  17.16, 17.16, 16.11 a.u.

 SYSTEM =  ./                                      
 POSCAR =  Ge Se                                   

 Startparameter for this run:
   NWRITE =      2    write-flag & timer
   PREC   = normal    normal or accurate (medium, high low for compatibility)
   ISTART =      0    job   : 0-new  1-cont  2-samecut
   ICHARG =      2    charge: 1-file 2-atom 10-const
   ISPIN  =      1    spin polarized calculation?
   LNONCOLLINEAR =      F non collinear calculations
   LSORBIT =      F    spin-orbit coupling
   INIWAV =      1    electr: 0-lowe 1-rand  2-diag
   LASPH  =      T    aspherical Exc in radial PAW
 Electronic Relaxation 1
   ENCUT  =  360.0 eV  26.46 Ry    5.14 a.u.   7.19  7.19 17.24*2*pi/ulx,y,z
   ENINI  =  360.0     initial cutoff
   ENAUG  =  446.8 eV  augmentation charge cutoff
   NELM   =    100;   NELMIN=  2; NELMDL= -5     # of ELM steps 
   EDIFF  = 0.1E-05   stopping-criterion for ELM
   LREAL  =      F    real-space projection
   NLSPLINE    = F    spline interpolate recip. space projectors
   LCOMPAT=      F    compatible to vasp.4.4
   GGA_COMPAT  = T    GGA compatible to vasp.4.4-vasp.4.6
   LMAXPAW     = -100 max onsite density
   LMAXMIX     =    4 max onsite mixed and CHGCAR
   VOSKOWN=      0    Vosko Wilk Nusair interpolation
   ROPT   =    0.00000   0.00000
 Ionic relaxation
   EDIFFG = 0.1E-04   stopping-criterion for IOM
   NSW    =      0    number of steps for IOM
   NBLOCK =      1;   KBLOCK =      1    inner block; outer block 
   IBRION =     -1    ionic relax: 0-MD 1-quasi-New 2-CG
   NFREE  =      0    steps in history (QN), initial steepest desc. (CG)
   ISIF   =      2    stress and relaxation
   IWAVPR =     10    prediction:  0-non 1-charg 2-wave 3-comb
   ISYM   =      0    0-nonsym 1-usesym 2-fastsym
   LCORR  =      T    Harris-Foulkes like correction to forces

   POTIM  = 0.5000    time-step for ionic-motion
   TEIN   =    0.0    initial temperature
   TEBEG  =    0.0;   TEEND  =   0.0 temperature during run
   SMASS  =  -3.00    Nose mass-parameter (am)
   estimated Nose-frequenzy (Omega)   =  0.10E-29 period in steps = 0.13E+47 mass=  -0.494E-27a.u.
   SCALEE = 1.0000    scale energy and forces
   NPACO  =    256;   APACO  = 10.0  distance and # of slots for P.C.
   PSTRESS=    0.0 pullay stress

  Mass of Ions in am
   POMASS =  72.61 78.96
  Ionic Valenz
   ZVAL   =   4.00  6.00
  Atomic Wigner-Seitz radii
   RWIGS  =  -1.00 -1.00
  virtual crystal weights 
   VCA    =   1.00  1.00
   NELECT =      40.0000    total number of electrons
   NUPDOWN=      -1.0000    fix difference up-down

 DOS related values:
   EMIN   =  10.00;   EMAX   =-10.00  energy-range for DOS
   EFERMI =   0.00;   METHOD = LEGACY      
   ISMEAR =     0;   SIGMA  =   0.05  broadening in eV -4-tet -1-fermi 0-gaus

 Electronic relaxation 2 (details)
   IALGO  =     38    algorithm
   LDIAG  =      T    sub-space diagonalisation (order eigenvalues)
   LSUBROT=      F    optimize rotation matrix (better conditioning)
   TURBO    =      0    0=normal 1=particle mesh
   IRESTART =      0    0=no restart 2=restart with 2 vectors
   NREBOOT  =      0    no. of reboots
   NMIN     =      0    reboot dimension
   EREF     =   0.00    reference energy to select bands
   IMIX   =      4    mixing-type and parameters
     AMIX     =   0.40;   BMIX     =  1.00
     AMIX_MAG =   1.60;   BMIX_MAG =  1.00
     AMIN     =   0.10
     WC   =   100.;   INIMIX=   1;  MIXPRE=   1;  MAXMIX= -45

 Intra band minimization:
   WEIMIN = 0.0000     energy-eigenvalue tresh-hold
   EBREAK =  0.78E-08  absolut break condition
   DEPER  =   0.30     relativ break condition  

   TIME   =   0.40     timestep for ELM

  volume/ion in A,a.u.               =      30.12       203.23
  Fermi-wavevector in a.u.,A,eV,Ry     =   0.899778  1.700335 11.015295  0.809601
  Thomas-Fermi vector in A             =   2.022654
 
 Write flags
   LWAVE        =      F    write WAVECAR
   LDOWNSAMPLE  =      F    k-point downsampling of WAVECAR
   LCHARG       =      F    write CHGCAR
   LVTOT        =      F    write LOCPOT, total local potential
   LVHAR        =      F    write LOCPOT, Hartree potential only
   LELF         =      F    write electronic localiz. function (ELF)
   LORBIT       =      0    0 simple, 1 ext, 2 COOP (PROOUT), +10 PAW based schemes


 Dipole corrections
   LMONO  =      F    monopole corrections only (constant potential shift)
   LDIPOL =      F    correct potential (dipole corrections)
   IDIPOL =      0    1-x, 2-y, 3-z, 4-all directions 
   EPSILON=  1.0000000 bulk dielectric constant

 Exchange correlation treatment:
   GGA     =    PE    GGA type
   LEXCH   =     8    internal setting for exchange type
   LIBXC   =     F    Libxc                    
   VOSKOWN =     0    Vosko Wilk Nusair interpolation
   LHFCALC =     F    Hartree Fock is set to
   LHFONE  =     F    Hartree Fock one center treatment
   AEXX    =    0.0000 exact exchange contribution

 Linear response parameters
   LEPSILON=     F    determine dielectric tensor
   LRPA    =     F    only Hartree local field effects (RPA)
   LNABLA  =     F    use nabla operator in PAW spheres
   LVEL    =     F    velocity operator in full k-point grid
   CSHIFT  =0.1000    complex shift for real part using Kramers Kronig
   OMEGAMAX=  -1.0    maximum frequency
   DEG_THRESHOLD= 0.2000000E-02 threshold for treating states as degnerate
   RTIME   =   -0.100 relaxation time in fs
  (WPLASMAI=    0.000 imaginary part of plasma frequency in eV, 0.658/RTIME)
   DFIELD  = 0.0000000 0.0000000 0.0000000 field for delta impulse in time
 
  Optional k-point grid parameters
   LKPOINTS_OPT  =     F    use optional k-point grid
   KPOINTS_OPT_MODE=     1    mode for optional k-point grid
 
 Orbital magnetization related:
   ORBITALMAG=     F  switch on orbital magnetization
   LCHIMAG   =     F  perturbation theory with respect to B field
   DQ        =  0.001000  dq finite difference perturbation B field
   LLRAUG    =     F  two centre corrections for induced B field
   LBONE     =     F  B-component reconstruction in AE one-centre
   LVGVCALC  =     T  calculate vGv susceptibility
   LVGVAPPL  =     F  apply vGv susceptibility instead of pGv for G=0

 Random number generation:
   RANDOM_GENERATOR = DEFAULT
   PCG_SEED         = not used


--------------------------------------------------------------------------------------------------------


 Static calculation
 charge density and potential will be updated during run
 non-spin polarized calculation
 Variant of blocked Davidson
 Davidson routine will perform the subspace rotation
 perform sub-space diagonalisation
    after iterative eigenvector-optimisation
 modified Broyden-mixing scheme, WC =      100.0
 initial mixing is a Kerker type mixing with AMIX =  0.4000 and BMIX =      1.0000
 Hartree-type preconditioning will be used
 using additional bands            12
 reciprocal scheme for non local part
 use partial core corrections
 calculate Harris-corrections to forces 
   (improved forces if not selfconsistent)
 use gradient corrections 
 use of overlap-Matrix (Vanderbilt PP)
 Gauss-broadening in eV      SIGMA  =   0.05


--------------------------------------------------------------------------------------------------------


  energy-cutoff  :      360.00
  volume of cell :      240.92
      direct lattice vectors                 reciprocal lattice vectors
     4.650000000  0.000000000  0.000000000     0.215053763  0.000000000  0.000000000
     0.000000000  4.650000000  0.000000000     0.000000000  0.215053763  0.000000000
     0.000000000  0.000000000 11.142221000     0.000000000  0.000000000  0.089748713

  length of vectors
     4.650000000  4.650000000 11.142221000     0.215053763  0.215053763  0.089748713


 
 k-points in units of 2pi/SCALE and weight: KPOINTS created by Atomic Simulation Env
   0.00000000  0.00000000  0.00000000       0.014
   0.03584229  0.00000000  0.00000000       0.028
   0.00000000  0.03584229  0.00000000       0.028
   0.07168459  0.00000000  0.00000000       0.028
   0.00000000  0.07168459  0.00000000       0.028
   0.10752688  0.00000000  0.00000000       0.014
   0.00000000  0.10752688  0.00000000       0.014
   0.03584229  0.03584229  0.00000000       0.028
  -0.03584229  0.03584229  0.00000000       0.028
   0.07168459  0.03584229  0.00000000       0.028
  -0.03584229  0.07168459  0.00000000       0.028
  -0.07168459  0.03584229  0.00000000       0.028
   0.03584229  0.07168459  0.00000000       0.028
   0.10752688  0.03584229  0.00000000       0.028
  -0.03584229  0.10752688  0.00000000       0.028
   0.07168459  0.07168459  0.00000000       0.028
  -0.07168459  0.07168459  0.00000000       0.028
   0.10752688  0.07168459  0.00000000       0.028
  -0.07168459  0.10752688  0.00000000       0.028
   0.10752688  0.10752688  0.00000000       0.014
   0.00000000  0.00000000  0.04487436       0.014
   0.03584229  0.00000000  0.04487436       0.028
   0.00000000  0.03584229  0.04487436       0.028
   0.07168459  0.00000000  0.04487436       0.028
   0.00000000  0.07168459  0.04487436       0.028
   0.10752688  0.00000000  0.04487436       0.014
   0.00000000  0.10752688  0.04487436       0.014
   0.03584229  0.03584229  0.04487436       0.028
  -0.03584229  0.03584229  0.04487436       0.028
   0.07168459  0.03584229  0.04487436       0.028
  -0.03584229  0.07168459  0.04487436       0.028
  -0.07168459  0.03584229  0.04487436       0.028
   0.03584229  0.07168459  0.04487436       0.028
   0.10752688  0.03584229  0.04487436       0.028
  -0.03584229  0.10752688  0.04487436       0.028
   0.07168459  0.07168459  0.04487436       0.028
  -0.07168459  0.07168459  0.04487436       0.028
   0.10752688  0.07168459  0.04487436       0.028
  -0.07168459  0.10752688  0.04487436       0.028
   0.10752688  0.10752688  0.04487436       0.014
 
 k-points in reciprocal lattice and weights: KPOINTS created by Atomic Simulation Env
   0.00000000  0.00000000  0.00000000       0.014
   0.16666667  0.00000000  0.00000000       0.028
   0.00000000  0.16666667  0.00000000       0.028
   0.33333333  0.00000000  0.00000000       0.028
   0.00000000  0.33333333  0.00000000       0.028
   0.50000000  0.00000000  0.00000000       0.014
   0.00000000  0.50000000  0.00000000       0.014
   0.16666667  0.16666667  0.00000000       0.028
  -0.16666667  0.16666667  0.00000000       0.028
   0.33333333  0.16666667  0.00000000       0.028
  -0.16666667  0.33333333  0.00000000       0.028
  -0.33333333  0.16666667  0.00000000       0.028
   0.16666667  0.33333333  0.00000000       0.028
   0.50000000  0.16666667  0.00000000       0.028
  -0.16666667  0.50000000  0.00000000       0.028
   0.33333333  0.33333333  0.00000000       0.028
  -0.33333333  0.33333333  0.00000000       0.028
   0.50000000  0.33333333  0.00000000       0.028
  -0.33333333  0.50000000  0.00000000       0.028
   0.50000000  0.50000000  0.00000000       0.014
   0.00000000  0.00000000  0.50000000       0.014
   0.16666667  0.00000000  0.50000000       0.028
   0.00000000  0.16666667  0.50000000       0.028
   0.33333333  0.00000000  0.50000000       0.028
   0.00000000  0.33333333  0.50000000       0.028
   0.50000000  0.00000000  0.50000000       0.014
   0.00000000  0.50000000  0.50000000       0.014
   0.16666667  0.16666667  0.50000000       0.028
  -0.16666667  0.16666667  0.50000000       0.028
   0.33333333  0.16666667  0.50000000       0.028
  -0.16666667  0.33333333  0.50000000       0.028
  -0.33333333  0.16666667  0.50000000       0.028
   0.16666667  0.33333333  0.50000000       0.028
   0.50000000  0.16666667  0.50000000       0.028
  -0.16666667  0.50000000  0.50000000       0.028
   0.33333333  0.33333333  0.50000000       0.028
  -0.33333333  0.33333333  0.50000000       0.028
   0.50000000  0.33333333  0.50000000       0.028
  -0.33333333  0.50000000  0.50000000       0.028
   0.50000000  0.50000000  0.50000000       0.014
 
 position of ions in fractional coordinates (direct lattice) 
   0.00000000  0.25000000  0.14883647
   0.50000000  0.75000000  0.35116353
   0.00000000  0.75000000  0.85116353
   0.50000000  0.25000000  0.64883647
   0.00000000  0.25000000  0.36517281
   0.50000000  0.75000000  0.13482719
   0.00000000  0.75000000  0.63482719
   0.50000000  0.25000000  0.86517281
 
 position of ions in cartesian coordinates  (Angst):
   0.00000000  1.16250000  1.65836881
   2.32500000  3.48750000  3.91274169
   0.00000000  3.48750000  9.48385219
   2.32500000  1.16250000  7.22947931
   0.00000000  1.16250000  4.06883619
   2.32500000  3.48750000  1.50227431
   0.00000000  3.48750000  7.07338481
   2.32500000  1.16250000  9.63994669
 


--------------------------------------------------------------------------------------------------------


 k-point   1 :   0.0000 0.0000 0.0000  plane waves:    3739
 k-point   2 :   0.1667 0.0000 0.0000  plane waves:    3733
 k-point   3 :   0.0000 0.1667 0.0000  plane waves:    3733
 k-point   4 :   0.3333 0.0000 0.0000  plane waves:    3734
 k-point   5 :   0.0000 0.3333 0.0000  plane waves:    3734
 k-point   6 :   0.5000 0.0000 0.0000  plane waves:    3754
 k-point   7 :   0.0000 0.5000 0.0000  plane waves:    3754
 k-point   8 :   0.1667 0.1667 0.0000  plane waves:    3718
 k-point   9 :  -0.1667 0.1667 0.0000  plane waves:    3718
 k-point  10 :   0.3333 0.1667 0.0000  plane waves:    3737
 k-point  11 :  -0.1667 0.3333 0.0000  plane waves:    3737
 k-point  12 :  -0.3333 0.1667 0.0000  plane waves:    3737
 k-point  13 :   0.1667 0.3333 0.0000  plane waves:    3737
 k-point  14 :   0.5000 0.1667 0.0000  plane waves:    3750
 k-point  15 :  -0.1667 0.5000 0.0000  plane waves:    3750
 k-point  16 :   0.3333 0.3333 0.0000  plane waves:    3748
 k-point  17 :  -0.3333 0.3333 0.0000  plane waves:    3748
 k-point  18 :   0.5000 0.3333 0.0000  plane waves:    3724
 k-point  19 :  -0.3333 0.5000 0.0000  plane waves:    3724
 k-point  20 :   0.5000 0.5000 0.0000  plane waves:    3780
 k-point  21 :   0.0000 0.0000 0.5000  plane waves:    3690
 k-point  22 :   0.1667 0.0000 0.5000  plane waves:    3724
 k-point  23 :   0.0000 0.1667 0.5000  plane waves:    3724
 k-point  24 :   0.3333 0.0000 0.5000  plane waves:    3744
 k-point  25 :   0.0000 0.3333 0.5000  plane waves:    3744
 k-point  26 :   0.5000 0.0000 0.5000  plane waves:    3736
 k-point  27 :   0.0000 0.5000 0.5000  plane waves:    3736
 k-point  28 :   0.1667 0.1667 0.5000  plane waves:    3732
 k-point  29 :  -0.1667 0.1667 0.5000  plane waves:    3732
 k-point  30 :   0.3333 0.1667 0.5000  plane waves:    3724
 k-point  31 :  -0.1667 0.3333 0.5000  plane waves:    3724
 k-point  32 :  -0.3333 0.1667 0.5000  plane waves:    3724
 k-point  33 :   0.1667 0.3333 0.5000  plane waves:    3724
 k-point  34 :   0.5000 0.1667 0.5000  plane waves:    3732
 k-point  35 :  -0.1667 0.5000 0.5000  plane waves:    3732
 k-point  36 :   0.3333 0.3333 0.5000  plane waves:    3736
 k-point  37 :  -0.3333 0.3333 0.5000  plane waves:    3736
 k-point  38 :   0.5000 0.3333 0.5000  plane waves:    3748
 k-point  39 :  -0.3333 0.5000 0.5000  plane waves:    3748
 k-point  40 :   0.5000 0.5000 0.5000  plane waves:    3752

 maximum and minimum number of plane-waves per node :       958      917

 maximum number of plane-waves:      3780
 maximum index in each direction: 
   IXMAX=    7   IYMAX=    7   IZMAX=   17
   IXMIN=   -7   IYMIN=   -7   IZMIN=  -17


 parallel 3D FFT for wavefunctions:
    minimum data exchange during FFTs selected (reduces bandwidth)
 parallel 3D FFT for charge:
    minimum data exchange during FFTs selected (reduces bandwidth)


 total amount of memory used by VASP MPI-rank0    40265. kBytes
=======================================================================

   base      :      30000. kBytes
   nonl-proj :       7974. kBytes
   fftplans  :        419. kBytes
   grid      :        607. kBytes
   one-center:         16. kBytes
   wavefun   :       1249. kBytes
 
     INWAV:  cpu time      0.0000: real time      0.0001
 Broyden mixing: mesh for mixing (old mesh)
   NGX = 15   NGY = 15   NGZ = 35
  (NGX  = 48   NGY  = 48   NGZ  =108)
  gives a total of   7875 points

 initial charge density was supplied:
 charge density of overlapping atoms calculated
 number of electron      40.0000000 magnetization 
 keeping initial charge density in first step


--------------------------------------------------------------------------------------------------------


 Maximum index for augmentation-charges           427 (set IRDMAX)


--------------------------------------------------------------------------------------------------------


 First call to EWALD:  gamma=   0.285
 Maximum number of real-space cells 4x 4x 2
 Maximum number of reciprocal cells 2x 2x 5

    FEWALD:  cpu time      0.0008: real time      0.0008


--------------------------------------- Ionic step        1  -------------------------------------------




--------------------------------------- Iteration      1(   1)  ---------------------------------------


    POTLOK:  cpu time      0.0071: real time      0.0075
    SETDIJ:  cpu time      0.1371: real time      0.1377
     EDDAV:  cpu time      0.2698: real time      0.2731
       DOS:  cpu time      0.0013: real time      0.0014
    --------------------------------------------
      LOOP:  cpu time      0.4153: real time      0.4197

 eigenvalue-minimisations  :  2560
 total energy-change (2. order) : 0.1346381E+03  (-0.1238811E+04)
 number of electron      40.0000000 magnetization 
 augmentation part       40.0000000 magnetization 

 Free energy of the ion-electron system (eV)
  ---------------------------------------------------
  alpha Z        PSCENC =        70.33146855
  Ewald energy   TEWEN  =     -1315.81133493
  -Hartree energ DENC   =      -159.15798264
  -exchange      EXHF   =         0.00000000
  -V(xc)+E(xc)   XCENC  =       -36.24985132
  PAW double counting   =      1193.78262552    -1080.73714043
  entropy T*S    EENTRO =        -0.00190776
  eigenvalues    EBANDS =        13.99761752
  atomic energy  EATOM  =      1448.48460880
  Solvation  Ediel_sol  =         0.00000000
  ---------------------------------------------------
  free energy    TOTEN  =       134.63810330 eV

  energy without entropy =      134.64001106  energy(sigma->0) =      134.63905718


--------------------------------------------------------------------------------------------------------




--------------------------------------- Iteration      1(   2)  ---------------------------------------


     EDDAV:  cpu time      0.3515: real time      0.3550
       DOS:  cpu time      0.0005: real time      0.0005
    --------------------------------------------
      LOOP:  cpu time      0.3520: real time      0.3556

 eigenvalue-minimisations  :  3744
 total energy-change (2. order) :-0.1572475E+03  (-0.1521859E+03)
 number of electron      40.0000000 magnetization 
 augmentation part       40.0000000 magnetization 

 Free energy of the ion-electron system (eV)
  ---------------------------------------------------
  alpha Z        PSCENC =        70.33146855
  Ewald energy   TEWEN  =     -1315.81133493
  -Hartree energ DENC   =      -159.15798264
  -exchange      EXHF   =         0.00000000
  -V(xc)+E(xc)   XCENC  =       -36.24985132
  PAW double counting   =      1193.78262552    -1080.73714043
  entropy T*S    EENTRO =        -0.00000000
  eigenvalues    EBANDS =      -143.25177972
  atomic energy  EATOM  =      1448.48460880
  Solvation  Ediel_sol  =         0.00000000
  ---------------------------------------------------
  free energy    TOTEN  =       -22.60938618 eV

  energy without entropy =      -22.60938618  energy(sigma->0) =      -22.60938618


--------------------------------------------------------------------------------------------------------




--------------------------------------- Iteration      1(   3)  ---------------------------------------


     EDDAV:  cpu time      0.3062: real time      0.3097
       DOS:  cpu time      0.0005: real time      0.0005
    --------------------------------------------
      LOOP:  cpu time      0.3067: real time      0.3102

 eigenvalue-minimisations  :  3072
 total energy-change (2. order) :-0.1006516E+02  (-0.1003821E+02)
 number of electron      40.0000000 magnetization 
 augmentation part       40.0000000 magnetization 

 Free energy of the ion-electron system (eV)
  ---------------------------------------------------
  alpha Z        PSCENC =        70.33146855
  Ewald energy   TEWEN  =     -1315.81133493
  -Hartree energ DENC   =      -159.15798264
  -exchange      EXHF   =         0.00000000
  -V(xc)+E(xc)   XCENC  =       -36.24985132
  PAW double counting   =      1193.78262552    -1080.73714043
  entropy T*S    EENTRO =        -0.00000000
  eigenvalues    EBANDS =      -153.31694414
  atomic energy  EATOM  =      1448.48460880
  Solvation  Ediel_sol  =         0.00000000
  ---------------------------------------------------
  free energy    TOTEN  =       -32.67455060 eV

  energy without entropy =      -32.67455060  energy(sigma->0) =      -32.67455060


--------------------------------------------------------------------------------------------------------




--------------------------------------- Iteration      1(   4)  ---------------------------------------


     EDDAV:  cpu time      0.3128: real time      0.3167
       DOS:  cpu time      0.0006: real time      0.0006
    --------------------------------------------
      LOOP:  cpu time      0.3134: real time      0.3173

 eigenvalue-minimisations  :  3200
 total energy-change (2. order) :-0.7961146E-01  (-0.7960114E-01)
 number of electron      40.0000000 magnetization 
 augmentation part       40.0000000 magnetization 

 Free energy of the ion-electron system (eV)
  ---------------------------------------------------
  alpha Z        PSCENC =        70.33146855
  Ewald energy   TEWEN  =     -1315.81133493
  -Hartree energ DENC   =      -159.15798264
  -exchange      EXHF   =         0.00000000
  -V(xc)+E(xc)   XCENC  =       -36.24985132
  PAW double counting   =      1193.78262552    -1080.73714043
  entropy T*S    EENTRO =        -0.00000000
  eigenvalues    EBANDS =      -153.39655560
  atomic energy  EATOM  =      1448.48460880
  Solvation  Ediel_sol  =         0.00000000
  ---------------------------------------------------
  free energy    TOTEN  =       -32.75416205 eV

  energy without entropy =      -32.75416205  energy(sigma->0) =      -32.75416205


--------------------------------------------------------------------------------------------------------




--------------------------------------- Iteration      1(   5)  ---------------------------------------


     EDDAV:  cpu time      0.3060: real time      0.3096
       DOS:  cpu time      0.0006: real time      0.0006
    CHARGE:  cpu time      0.0051: real time      0.0051
    MIXING:  cpu time      0.0008: real time      0.0008
    --------------------------------------------
      LOOP:  cpu time      0.3125: real time      0.3162

 eigenvalue-minimisations  :  3072
 total energy-change (2. order) :-0.5481121E-03  (-0.5480758E-03)
 number of electron      39.9999972 magnetization 
 augmentation part       -7.4401029 magnetization 

 Broyden mixing:
  rms(total) = 0.63979E+00    rms(broyden)= 0.63977E+00
  rms(prec ) = 0.83821E+00
  weight for this iteration     100.00

 Free energy of the ion-electron system (eV)
  ---------------------------------------------------
  alpha Z        PSCENC =        70.33146855
  Ewald energy   TEWEN  =     -1315.81133493
  -Hartree energ DENC   =      -159.15798264
  -exchange      EXHF   =         0.00000000
  -V(xc)+E(xc)   XCENC  =       -36.24985132
  PAW double counting   =      1193.78262552    -1080.73714043
  entropy T*S    EENTRO =        -0.00000000
  eigenvalues    EBANDS =      -153.39710371
  atomic energy  EATOM  =      1448.48460880
  Solvation  Ediel_sol  =         0.00000000
  ---------------------------------------------------
  free energy    TOTEN  =       -32.75471017 eV

  energy without entropy =      -32.75471017  energy(sigma->0) =      -32.75471017


--------------------------------------------------------------------------------------------------------




--------------------------------------- Iteration      1(   6)  ---------------------------------------


    POTLOK:  cpu time      0.0060: real time      0.0062
    SETDIJ:  cpu time      0.1369: real time      0.1386
     EDDAV:  cpu time      0.3129: real time      0.3164
       DOS:  cpu time      0.0006: real time      0.0006
    CHARGE:  cpu time      0.0050: real time      0.0051
    MIXING:  cpu time      0.0006: real time      0.0006
    --------------------------------------------
      LOOP:  cpu time      0.4620: real time      0.4674

 eigenvalue-minimisations  :  2864
 total energy-change (2. order) : 0.1132875E+01  (-0.2327489E+00)
 number of electron      39.9999972 magnetization 
 augmentation part       -7.3431468 magnetization 

 Broyden mixing:
  rms(total) = 0.37807E+00    rms(broyden)= 0.37807E+00
  rms(prec ) = 0.40761E+00
  weight for this iteration     100.00

 eigenvalues of (default mixing * dielectric matrix)
  average eigenvalue GAMMA=   1.5240
  1.5240

 Free energy of the ion-electron system (eV)
  ---------------------------------------------------
  alpha Z        PSCENC =        70.33146855
  Ewald energy   TEWEN  =     -1315.81133493
  -Hartree energ DENC   =      -168.70892620
  -exchange      EXHF   =         0.00000000
  -V(xc)+E(xc)   XCENC  =       -35.50639606
  PAW double counting   =      1393.09536972    -1280.32211951
  entropy T*S    EENTRO =        -0.00000000
  eigenvalues    EBANDS =      -143.18450511
  atomic energy  EATOM  =      1448.48460880
  Solvation  Ediel_sol  =         0.00000000
  ---------------------------------------------------
  free energy    TOTEN  =       -31.62183475 eV

  energy without entropy =      -31.62183475  energy(sigma->0) =      -31.62183475


--------------------------------------------------------------------------------------------------------




--------------------------------------- Iteration      1(   7)  ---------------------------------------


    POTLOK:  cpu time      0.0060: real time      0.0062
    SETDIJ:  cpu time      0.1374: real time      0.1384
     EDDAV:  cpu time      0.3087: real time      0.3121
       DOS:  cpu time      0.0006: real time      0.0006
    CHARGE:  cpu time      0.0053: real time      0.0053
    MIXING:  cpu time      0.0006: real time      0.0006
    --------------------------------------------
      LOOP:  cpu time      0.4585: real time      0.4632

 eigenvalue-minimisations  :  3008
 total energy-change (2. order) : 0.8813695E-02  (-0.4713057E-01)
 number of electron      39.9999972 magnetization 
 augmentation part       -7.3426229 magnetization 

 Broyden mixing:
  rms(total) = 0.18455E+00    rms(broyden)= 0.18455E+00
  rms(prec ) = 0.19785E+00
  weight for this iteration     100.00

 eigenvalues of (default mixing * dielectric matrix)
  average eigenvalue GAMMA=   1.6858
  1.1827  2.1888

 Free energy of the ion-electron system (eV)
  ---------------------------------------------------
  alpha Z        PSCENC =        70.33146855
  Ewald energy   TEWEN  =     -1315.81133493
  -Hartree energ DENC   =      -170.18439468
  -exchange      EXHF   =         0.00000000
  -V(xc)+E(xc)   XCENC  =       -35.26835108
  PAW double counting   =      1562.71677813    -1450.00613191
  entropy T*S    EENTRO =        -0.00000000
  eigenvalues    EBANDS =      -141.87566395
  atomic energy  EATOM  =      1448.48460880
  Solvation  Ediel_sol  =         0.00000000
  ---------------------------------------------------
  free energy    TOTEN  =       -31.61302106 eV

  energy without entropy =      -31.61302106  energy(sigma->0) =      -31.61302106


--------------------------------------------------------------------------------------------------------




--------------------------------------- Iteration      1(   8)  ---------------------------------------


    POTLOK:  cpu time      0.0058: real time      0.0060
    SETDIJ:  cpu time      0.1372: real time      0.1379
     EDDAV:  cpu time      0.2928: real time      0.2961
       DOS:  cpu time      0.0006: real time      0.0006
    CHARGE:  cpu time      0.0048: real time      0.0048
    MIXING:  cpu time      0.0006: real time      0.0006
    --------------------------------------------
      LOOP:  cpu time      0.4418: real time      0.4460

 eigenvalue-minimisations  :  2864
 total energy-change (2. order) : 0.2232981E-02  (-0.4377918E-02)
 number of electron      39.9999972 magnetization 
 augmentation part       -7.3647650 magnetization 

 Broyden mixing:
  rms(total) = 0.25690E-01    rms(broyden)= 0.25690E-01
  rms(prec ) = 0.36138E-01
  weight for this iteration     100.00

 eigenvalues of (default mixing * dielectric matrix)
  average eigenvalue GAMMA=   1.5455
  2.4096  1.1134  1.1134

 Free energy of the ion-electron system (eV)
  ---------------------------------------------------
  alpha Z        PSCENC =        70.33146855
  Ewald energy   TEWEN  =     -1315.81133493
  -Hartree energ DENC   =      -169.44001925
  -exchange      EXHF   =         0.00000000
  -V(xc)+E(xc)   XCENC  =       -35.18416294
  PAW double counting   =      1704.38999479    -1591.68696500
  entropy T*S    EENTRO =        -0.00000000
  eigenvalues    EBANDS =      -142.69437809
  atomic energy  EATOM  =      1448.48460880
  Solvation  Ediel_sol  =         0.00000000
  ---------------------------------------------------
  free energy    TOTEN  =       -31.61078807 eV

  energy without entropy =      -31.61078807  energy(sigma->0) =      -31.61078807


--------------------------------------------------------------------------------------------------------




--------------------------------------- Iteration      1(   9)  ---------------------------------------


    POTLOK:  cpu time      0.0058: real time      0.0060
    SETDIJ:  cpu time      0.1372: real time      0.1380
     EDDAV:  cpu time      0.2947: real time      0.2976
       DOS:  cpu time      0.0003: real time      0.0003
    CHARGE:  cpu time      0.0040: real time      0.0040
    MIXING:  cpu time      0.0003: real time      0.0003
    --------------------------------------------
      LOOP:  cpu time      0.4423: real time      0.4462

 eigenvalue-minimisations  :  3168
 total energy-change (2. order) : 0.8012699E-03  (-0.9092891E-03)
 number of electron      39.9999972 magnetization 
 augmentation part       -7.3626591 magnetization 

 Broyden mixing:
  rms(total) = 0.10616E-01    rms(broyden)= 0.10616E-01
  rms(prec ) = 0.11868E-01
  weight for this iteration     100.00

 eigenvalues of (default mixing * dielectric matrix)
  average eigenvalue GAMMA=   1.7011
  2.2879  2.2879  1.1143  1.1143

 Free energy of the ion-electron system (eV)
  ---------------------------------------------------
  alpha Z        PSCENC =        70.33146855
  Ewald energy   TEWEN  =     -1315.81133493
  -Hartree energ DENC   =      -170.04667937
  -exchange      EXHF   =         0.00000000
  -V(xc)+E(xc)   XCENC  =       -35.13069729
  PAW double counting   =      1720.06205191    -1607.37032410
  entropy T*S    EENTRO =        -0.00000000
  eigenvalues    EBANDS =      -142.12908037
  atomic energy  EATOM  =      1448.48460880
  Solvation  Ediel_sol  =         0.00000000
  ---------------------------------------------------
  free energy    TOTEN  =       -31.60998681 eV

  energy without entropy =      -31.60998681  energy(sigma->0) =      -31.60998681


--------------------------------------------------------------------------------------------------------




--------------------------------------- Iteration      1(  10)  ---------------------------------------


    POTLOK:  cpu time      0.0040: real time      0.0042
    SETDIJ:  cpu time      0.1371: real time      0.1374
     EDDAV:  cpu time      0.2018: real time      0.2029
       DOS:  cpu time      0.0003: real time      0.0003
    CHARGE:  cpu time      0.0037: real time      0.0037
    MIXING:  cpu time      0.0003: real time      0.0003
    --------------------------------------------
      LOOP:  cpu time      0.3473: real time      0.3489

 eigenvalue-minimisations  :  2944
 total energy-change (2. order) :-0.2851727E-03  (-0.1041840E-03)
 number of electron      39.9999972 magnetization 
 augmentation part       -7.3639421 magnetization 

 Broyden mixing:
  rms(total) = 0.41634E-02    rms(broyden)= 0.41634E-02
  rms(prec ) = 0.49366E-02
  weight for this iteration     100.00

 eigenvalues of (default mixing * dielectric matrix)
  average eigenvalue GAMMA=   1.7225
  3.0103  2.5299  1.0958  1.0958  0.8807

 Free energy of the ion-electron system (eV)
  ---------------------------------------------------
  alpha Z        PSCENC =        70.33146855
  Ewald energy   TEWEN  =     -1315.81133493
  -Hartree energ DENC   =      -170.03648113
  -exchange      EXHF   =         0.00000000
  -V(xc)+E(xc)   XCENC  =       -35.13713448
  PAW double counting   =      1711.36784262    -1598.66950434
  entropy T*S    EENTRO =        -0.00000000
  eigenvalues    EBANDS =      -142.13973708
  atomic energy  EATOM  =      1448.48460880
  Solvation  Ediel_sol  =         0.00000000
  ---------------------------------------------------
  free energy    TOTEN  =       -31.61027198 eV

  energy without entropy =      -31.61027198  energy(sigma->0) =      -31.61027198


--------------------------------------------------------------------------------------------------------




--------------------------------------- Iteration      1(  11)  ---------------------------------------


    POTLOK:  cpu time      0.0039: real time      0.0041
    SETDIJ:  cpu time      0.1326: real time      0.1330
     EDDAV:  cpu time      0.2229: real time      0.2242
       DOS:  cpu time      0.0004: real time      0.0004
    CHARGE:  cpu time      0.0037: real time      0.0038
    MIXING:  cpu time      0.0004: real time      0.0004
    --------------------------------------------
      LOOP:  cpu time      0.3640: real time      0.3658

 eigenvalue-minimisations  :  3360
 total energy-change (2. order) :-0.4867326E-04  (-0.1159609E-04)
 number of electron      39.9999972 magnetization 
 augmentation part       -7.3639573 magnetization 

 Broyden mixing:
  rms(total) = 0.15963E-02    rms(broyden)= 0.15963E-02
  rms(prec ) = 0.18881E-02
  weight for this iteration     100.00

 eigenvalues of (default mixing * dielectric matrix)
  average eigenvalue GAMMA=   1.6126
  2.6843  2.6843  1.1294  1.1294  1.0241  1.0241

 Free energy of the ion-electron system (eV)
  ---------------------------------------------------
  alpha Z        PSCENC =        70.33146855
  Ewald energy   TEWEN  =     -1315.81133493
  -Hartree energ DENC   =      -170.10290969
  -exchange      EXHF   =         0.00000000
  -V(xc)+E(xc)   XCENC  =       -35.13414177
  PAW double counting   =      1709.37240504    -1596.67258624
  entropy T*S    EENTRO =        -0.00000000
  eigenvalues    EBANDS =      -142.07783042
  atomic energy  EATOM  =      1448.48460880
  Solvation  Ediel_sol  =         0.00000000
  ---------------------------------------------------
  free energy    TOTEN  =       -31.61032065 eV

  energy without entropy =      -31.61032065  energy(sigma->0) =      -31.61032065


--------------------------------------------------------------------------------------------------------




--------------------------------------- Iteration      1(  12)  ---------------------------------------


    POTLOK:  cpu time      0.0039: real time      0.0041
    SETDIJ:  cpu time      0.1085: real time      0.1090
     EDDAV:  cpu time      0.2101: real time      0.2112
       DOS:  cpu time      0.0003: real time      0.0003
    CHARGE:  cpu time      0.0043: real time      0.0044
    MIXING:  cpu time      0.0008: real time      0.0008
    --------------------------------------------
      LOOP:  cpu time      0.3279: real time      0.3297

 eigenvalue-minimisations  :  2976
 total energy-change (2. order) : 0.2914735E-05  (-0.1413463E-05)
 number of electron      39.9999972 magnetization 
 augmentation part       -7.3637781 magnetization 

 Broyden mixing:
  rms(total) = 0.95327E-03    rms(broyden)= 0.95327E-03
  rms(prec ) = 0.10771E-02
  weight for this iteration     100.00

 eigenvalues of (default mixing * dielectric matrix)
  average eigenvalue GAMMA=   1.7330
  3.2467  2.6360  1.9684  1.2542  1.0631  1.0631  0.8997

 Free energy of the ion-electron system (eV)
  ---------------------------------------------------
  alpha Z        PSCENC =        70.33146855
  Ewald energy   TEWEN  =     -1315.81133493
  -Hartree energ DENC   =      -170.11744168
  -exchange      EXHF   =         0.00000000
  -V(xc)+E(xc)   XCENC  =       -35.13316513
  PAW double counting   =      1709.49951787    -1596.80017352
  entropy T*S    EENTRO =        -0.00000000
  eigenvalues    EBANDS =      -142.06379768
  atomic energy  EATOM  =      1448.48460880
  Solvation  Ediel_sol  =         0.00000000
  ---------------------------------------------------
  free energy    TOTEN  =       -31.61031774 eV

  energy without entropy =      -31.61031774  energy(sigma->0) =      -31.61031774


--------------------------------------------------------------------------------------------------------




--------------------------------------- Iteration      1(  13)  ---------------------------------------


    POTLOK:  cpu time      0.0050: real time      0.0052
    SETDIJ:  cpu time      0.1093: real time      0.1096
     EDDAV:  cpu time      0.1913: real time      0.1924
       DOS:  cpu time      0.0003: real time      0.0003
    CHARGE:  cpu time      0.0036: real time      0.0036
    MIXING:  cpu time      0.0004: real time      0.0004
    --------------------------------------------
      LOOP:  cpu time      0.3100: real time      0.3115

 eigenvalue-minimisations  :  2960
 total energy-change (2. order) :-0.1278116E-05  (-0.4927120E-06)
 number of electron      39.9999972 magnetization 
 augmentation part       -7.3637860 magnetization 

 Broyden mixing:
  rms(total) = 0.42634E-03    rms(broyden)= 0.42634E-03
  rms(prec ) = 0.43765E-03
  weight for this iteration     100.00

 eigenvalues of (default mixing * dielectric matrix)
  average eigenvalue GAMMA=   1.5990
  3.0130  2.3198  2.3198  1.1288  1.1288  0.9508  0.9656  0.9656

 Free energy of the ion-electron system (eV)
  ---------------------------------------------------
  alpha Z        PSCENC =        70.33146855
  Ewald energy   TEWEN  =     -1315.81133493
  -Hartree energ DENC   =      -170.12302457
  -exchange      EXHF   =         0.00000000
  -V(xc)+E(xc)   XCENC  =       -35.13267286
  PAW double counting   =      1709.41804022    -1596.71848385
  entropy T*S    EENTRO =        -0.00000000
  eigenvalues    EBANDS =      -142.05892037
  atomic energy  EATOM  =      1448.48460880
  Solvation  Ediel_sol  =         0.00000000
  ---------------------------------------------------
  free energy    TOTEN  =       -31.61031901 eV

  energy without entropy =      -31.61031901  energy(sigma->0) =      -31.61031901


--------------------------------------------------------------------------------------------------------




--------------------------------------- Iteration      1(  14)  ---------------------------------------


    POTLOK:  cpu time      0.0040: real time      0.0041
    SETDIJ:  cpu time      0.1100: real time      0.1103
     EDDAV:  cpu time      0.1195: real time      0.1202
       DOS:  cpu time      0.0003: real time      0.0003
    --------------------------------------------
      LOOP:  cpu time      0.2338: real time      0.2349

 eigenvalue-minimisations  :  1440
 total energy-change (2. order) :-0.5196341E-06  (-0.3891678E-07)
 number of electron      39.9999972 magnetization 
 augmentation part       -7.3637860 magnetization 

 Free energy of the ion-electron system (eV)
  ---------------------------------------------------
  alpha Z        PSCENC =        70.33146855
  Ewald energy   TEWEN  =     -1315.81133493
  -Hartree energ DENC   =      -170.12262666
  -exchange      EXHF   =         0.00000000
  -V(xc)+E(xc)   XCENC  =       -35.13236225
  PAW double counting   =      1709.82739669    -1597.12799506
  entropy T*S    EENTRO =        -0.00000000
  eigenvalues    EBANDS =      -142.05947468
  atomic energy  EATOM  =      1448.48460880
  Solvation  Ediel_sol  =         0.00000000
  ---------------------------------------------------
  free energy    TOTEN  =       -31.61031953 eV

  energy without entropy =      -31.61031953  energy(sigma->0) =      -31.61031953


--------------------------------------------------------------------------------------------------------




 average (electrostatic) potential at core
  the test charge radii are     1.1631  1.0808
  (the norm of the test charge is              1.0000)
       1 -35.6037       2 -35.6037       3 -35.6037       4 -35.6037       5 -56.2224
       6 -56.2224       7 -56.2224       8 -56.2224
 
 
 
 E-fermi :   1.2264     XC(G=0):  -8.4103     alpha+bet : -7.0066

 Fermi energy:         1.2263511589

 k-point     1 :       0.0000    0.0000    0.0000
  band No.  band energies     occupation 
      1     -11.5073      2.00000
      2     -11.2597      2.00000
      3     -10.5448      2.00000
      4     -10.2849      2.00000
      5      -6.3036      2.00000
      6      -5.6549      2.00000
      7      -5.0424      2.00000
      8      -5.0365      2.00000
      9      -2.2402      2.00000
     10      -1.4097      2.00000
     11      -1.4021      2.00000
     12      -1.0000      2.00000
     13      -0.9803      2.00000
     14       0.1319      2.00000
     15       0.1389      2.00000
     16       0.1772      2.00000
     17       0.3591      2.00000
     18       0.3917      2.00000
     19       0.8085      2.00000
     20       0.9012      2.00000
     21       3.5434      0.00000
     22       3.6356      0.00000
     23       3.8954      0.00000
     24       3.9081      0.00000
     25       4.1176      0.00000
     26       4.9956      0.00000
     27       4.9970      0.00000
     28       5.5665      0.00000
     29       5.5723      0.00000
     30       5.8222      0.00000
     31       5.8451      0.00000
     32       6.0419      0.00000

 k-point     2 :       0.1667    0.0000    0.0000
  band No.  band energies     occupation 
      1     -11.4241      2.00000
      2     -11.1822      2.00000
      3     -10.5729      2.00000
      4     -10.3270      2.00000
      5      -6.3567      2.00000
      6      -5.6926      2.00000
      7      -5.2529      2.00000
      8      -5.1398      2.00000
      9      -2.1716      2.00000
     10      -1.3320      2.00000
     11      -1.2540      2.00000
     12      -0.8973      2.00000
     13      -0.8252      2.00000
     14       0.0798      2.00000
     15       0.2085      2.00000
     16       0.2821      2.00000
     17       0.3789      2.00000
     18       0.4538      2.00000
     19       0.8664      2.00000
     20       0.9273      2.00000
     21       3.1530      0.00000
     22       3.1975      0.00000
     23       3.2607      0.00000
     24       3.5483      0.00000
     25       3.6967      0.00000
     26       4.4397      0.00000
     27       4.4874      0.00000
     28       5.0745      0.00000
     29       5.1417      0.00000
     30       6.0396      0.00000
     31       6.3223      0.00000
     32       6.4145      0.00000

 k-point     3 :       0.0000    0.1667    0.0000
  band No.  band energies     occupation 
      1     -11.4185      2.00000
      2     -11.1884      2.00000
      3     -10.5554      2.00000
      4     -10.3472      2.00000
      5      -6.3398      2.00000
      6      -5.7071      2.00000
      7      -5.2610      2.00000
      8      -5.1310      2.00000
      9      -2.1640      2.00000
     10      -1.3343      2.00000
     11      -1.2432      2.00000
     12      -0.8808      2.00000
     13      -0.8496      2.00000
     14       0.0110      2.00000
     15       0.2678      2.00000
     16       0.2923      2.00000
     17       0.3666      2.00000
     18       0.5146      2.00000
     19       0.7971      2.00000
     20       0.9328      2.00000
     21       2.9415      0.00000
     22       3.4232      0.00000
     23       3.4515      0.00000
     24       3.4923      0.00000
     25       3.5671      0.00000
     26       4.3913      0.00000
     27       4.4882      0.00000
     28       5.1364      0.00000
     29       5.1436      0.00000
     30       6.0625      0.00000
     31       6.2993      0.00000
     32       6.4123      0.00000

 k-point     4 :       0.3333    0.0000    0.0000
  band No.  band energies     occupation 
      1     -11.2011      2.00000
      2     -10.9735      2.00000
      3     -10.6880      2.00000
      4     -10.4666      2.00000
      5      -6.3847      2.00000
      6      -5.7381      2.00000
      7      -5.7229      2.00000
      8      -5.3785      2.00000
      9      -1.9119      2.00000
     10      -1.2610      2.00000
     11      -0.8111      2.00000
     12      -0.5446      2.00000
     13      -0.3812      2.00000
     14       0.0400      2.00000
     15       0.2143      2.00000
     16       0.2316      2.00000
     17       0.3253      2.00000
     18       0.7876      2.00000
     19       0.8013      2.00000
     20       0.9355      2.00000
     21       2.2465      0.00000
     22       2.5055      0.00000
     23       2.5095      0.00000
     24       3.2088      0.00000
     25       3.3153      0.00000
     26       3.4721      0.00000
     27       3.4943      0.00000
     28       4.2546      0.00000
     29       4.5930      0.00000
     30       5.5747      0.00000
     31       6.8129      0.00000
     32       7.3263      0.00000

 k-point     5 :       0.0000    0.3333    0.0000
  band No.  band energies     occupation 
      1     -11.1753      2.00000
      2     -11.0021      2.00000
      3     -10.6194      2.00000
      4     -10.5420      2.00000
      5      -6.3496      2.00000
      6      -5.7501      2.00000
      7      -5.7359      2.00000
      8      -5.3743      2.00000
      9      -1.9165      2.00000
     10      -1.2716      2.00000
     11      -0.7850      2.00000
     12      -0.5243      2.00000
     13      -0.4278      2.00000
     14       0.0799      2.00000
     15       0.2086      2.00000
     16       0.3552      2.00000
     17       0.3932      2.00000
     18       0.5438      2.00000
     19       0.7892      2.00000
     20       0.9664      2.00000
     21       2.1398      0.00000
     22       2.5214      0.00000
     23       2.7109      0.00000
     24       3.0940      0.00000
     25       3.3165      0.00000
     26       3.3725      0.00000
     27       3.5095      0.00000
     28       4.2537      0.00000
     29       4.7150      0.00000
     30       5.6369      0.00000
     31       6.7680      0.00000
     32       7.0904      0.00000

 k-point     6 :       0.5000    0.0000    0.0000
  band No.  band energies     occupation 
      1     -10.9185      2.00000
      2     -10.9185      2.00000
      3     -10.7034      2.00000
      4     -10.7034      2.00000
      5      -6.1831      2.00000
      6      -6.1831      2.00000
      7      -5.6173      2.00000
      8      -5.6173      2.00000
      9      -1.5135      2.00000
     10      -1.5135      2.00000
     11      -0.1946      2.00000
     12      -0.1946      2.00000
     13      -0.0339      2.00000
     14      -0.0339      2.00000
     15       0.2570      2.00000
     16       0.2570      2.00000
     17       0.3329      2.00000
     18       0.3329      2.00000
     19       0.5966      2.00000
     20       0.5966      2.00000
     21       2.5368      0.00000
     22       2.5368      0.00000
     23       2.6646      0.00000
     24       2.6646      0.00000
     25       2.6956      0.00000
     26       2.6956      0.00000
     27       3.4646      0.00000
     28       3.4646      0.00000
     29       4.9135      0.00000
     30       4.9135      0.00000
     31       7.1727      0.00000
     32       7.1727      0.00000

 k-point     7 :       0.0000    0.5000    0.0000
  band No.  band energies     occupation 
      1     -10.8478      2.00000
      2     -10.8478      2.00000
      3     -10.7801      2.00000
      4     -10.7801      2.00000
      5      -6.1587      2.00000
      6      -6.1587      2.00000
      7      -5.6319      2.00000
      8      -5.6319      2.00000
      9      -1.5363      2.00000
     10      -1.5363      2.00000
     11      -0.1073      2.00000
     12      -0.1073      2.00000
     13       0.0561      2.00000
     14       0.0561      2.00000
     15       0.1233      2.00000
     16       0.1233      2.00000
     17       0.3426      2.00000
     18       0.3426      2.00000
     19       0.5773      2.00000
     20       0.5773      2.00000
     21       2.5551      0.00000
     22       2.5551      0.00000
     23       2.5577      0.00000
     24       2.5577      0.00000
     25       2.7347      0.00000
     26       2.7347      0.00000
     27       3.4357      0.00000
     28       3.4357      0.00000
     29       5.0324      0.00000
     30       5.0324      0.00000
     31       7.0485      0.00000
     32       7.0485      0.00000

 k-point     8 :       0.1667    0.1667    0.0000
  band No.  band energies     occupation 
      1     -11.3414      2.00000
      2     -11.1178      2.00000
      3     -10.5797      2.00000
      4     -10.3804      2.00000
      5      -6.3471      2.00000
      6      -5.7025      2.00000
      7      -5.3061      2.00000
      8      -5.2979      2.00000
      9      -2.0859      2.00000
     10      -1.6360      2.00000
     11      -1.6286      2.00000
     12      -0.3875      2.00000
     13      -0.3401      2.00000
     14       0.0560      2.00000
     15       0.2044      2.00000
     16       0.2108      2.00000
     17       0.3377      2.00000
     18       0.3432      2.00000
     19       0.5919      2.00000
     20       0.8518      2.00000
     21       2.7342      0.00000
     22       2.8075      0.00000
     23       3.3060      0.00000
     24       3.3711      0.00000
     25       3.8008      0.00000
     26       4.0200      0.00000
     27       4.4096      0.00000
     28       5.0493      0.00000
     29       5.5313      0.00000
     30       6.2109      0.00000
     31       6.2384      0.00000
     32       6.9812      0.00000

 k-point     9 :      -0.1667    0.1667    0.0000
  band No.  band energies     occupation 
      1     -11.3414      2.00000
      2     -11.1178      2.00000
      3     -10.5797      2.00000
      4     -10.3804      2.00000
      5      -6.3471      2.00000
      6      -5.7025      2.00000
      7      -5.3061      2.00000
      8      -5.2979      2.00000
      9      -2.0859      2.00000
     10      -1.6360      2.00000
     11      -1.6286      2.00000
     12      -0.3875      2.00000
     13      -0.3401      2.00000
     14       0.0560      2.00000
     15       0.2044      2.00000
     16       0.2108      2.00000
     17       0.3377      2.00000
     18       0.3432      2.00000
     19       0.5919      2.00000
     20       0.8518      2.00000
     21       2.7342      0.00000
     22       2.8075      0.00000
     23       3.3060      0.00000
     24       3.3711      0.00000
     25       3.8008      0.00000
     26       4.0200      0.00000
     27       4.4096      0.00000
     28       5.0493      0.00000
     29       5.5313      0.00000
     30       6.2109      0.00000
     31       6.2384      0.00000
     32       6.9812      0.00000

 k-point    10 :       0.3333    0.1667    0.0000
  band No.  band energies     occupation 
      1     -11.1367      2.00000
      2     -10.9302      2.00000
      3     -10.6795      2.00000
      4     -10.4938      2.00000
      5      -6.3046      2.00000
      6      -5.6951      2.00000
      7      -5.6745      2.00000
      8      -5.4324      2.00000
      9      -1.8613      2.00000
     10      -1.7490      2.00000
     11      -1.6784      2.00000
     12      -0.3947      2.00000
     13      -0.3287      2.00000
     14      -0.0473      2.00000
     15      -0.0409      2.00000
     16       0.0964      2.00000
     17       0.3328      2.00000
     18       0.4153      2.00000
     19       0.5792      2.00000
     20       0.7484      2.00000
     21       2.4370      0.00000
     22       2.6847      0.00000
     23       3.1081      0.00000
     24       3.1796      0.00000
     25       3.3496      0.00000
     26       3.7626      0.00000
     27       4.3986      0.00000
     28       4.7343      0.00000
     29       5.2638      0.00000
     30       5.7225      0.00000
     31       6.6120      0.00000
     32       7.2610      0.00000

 k-point    11 :      -0.1667    0.3333    0.0000
  band No.  band energies     occupation 
      1     -11.1168      2.00000
      2     -10.9521      2.00000
      3     -10.6285      2.00000
      4     -10.5493      2.00000
      5      -6.2804      2.00000
      6      -5.6935      2.00000
      7      -5.6920      2.00000
      8      -5.4306      2.00000
      9      -1.8665      2.00000
     10      -1.7530      2.00000
     11      -1.6741      2.00000
     12      -0.4046      2.00000
     13      -0.3774      2.00000
     14      -0.0209      2.00000
     15       0.0888      2.00000
     16       0.0948      2.00000
     17       0.2880      2.00000
     18       0.4342      2.00000
     19       0.6233      2.00000
     20       0.6463      2.00000
     21       2.4351      0.00000
     22       2.6568      0.00000
     23       3.0030      0.00000
     24       3.1321      0.00000
     25       3.5775      0.00000
     26       3.6630      0.00000
     27       4.4694      0.00000
     28       4.7225      0.00000
     29       5.2696      0.00000
     30       5.7832      0.00000
     31       6.5625      0.00000
     32       7.0803      0.00000

 k-point    12 :      -0.3333    0.1667    0.0000
  band No.  band energies     occupation 
      1     -11.1367      2.00000
      2     -10.9302      2.00000
      3     -10.6795      2.00000
      4     -10.4938      2.00000
      5      -6.3046      2.00000
      6      -5.6951      2.00000
      7      -5.6745      2.00000
      8      -5.4324      2.00000
      9      -1.8613      2.00000
     10      -1.7490      2.00000
     11      -1.6784      2.00000
     12      -0.3947      2.00000
     13      -0.3287      2.00000
     14      -0.0473      2.00000
     15      -0.0409      2.00000
     16       0.0964      2.00000
     17       0.3328      2.00000
     18       0.4153      2.00000
     19       0.5792      2.00000
     20       0.7484      2.00000
     21       2.4370      0.00000
     22       2.6847      0.00000
     23       3.1081      0.00000
     24       3.1796      0.00000
     25       3.3496      0.00000
     26       3.7626      0.00000
     27       4.3986      0.00000
     28       4.7343      0.00000
     29       5.2638      0.00000
     30       5.7225      0.00000
     31       6.6120      0.00000
     32       7.2610      0.00000

 k-point    13 :       0.1667    0.3333    0.0000
  band No.  band energies     occupation 
      1     -11.1168      2.00000
      2     -10.9521      2.00000
      3     -10.6285      2.00000
      4     -10.5493      2.00000
      5      -6.2804      2.00000
      6      -5.6935      2.00000
      7      -5.6920      2.00000
      8      -5.4306      2.00000
      9      -1.8665      2.00000
     10      -1.7530      2.00000
     11      -1.6741      2.00000
     12      -0.4046      2.00000
     13      -0.3774      2.00000
     14      -0.0209      2.00000
     15       0.0888      2.00000
     16       0.0948      2.00000
     17       0.2880      2.00000
     18       0.4342      2.00000
     19       0.6233      2.00000
     20       0.6463      2.00000
     21       2.4351      0.00000
     22       2.6568      0.00000
     23       3.0030      0.00000
     24       3.1321      0.00000
     25       3.5775      0.00000
     26       3.6630      0.00000
     27       4.4694      0.00000
     28       4.7225      0.00000
     29       5.2696      0.00000
     30       5.7832      0.00000
     31       6.5625      0.00000
     32       7.0803      0.00000

 k-point    14 :       0.5000    0.1667    0.0000
  band No.  band energies     occupation 
      1     -10.8822      2.00000
      2     -10.8822      2.00000
      3     -10.6936      2.00000
      4     -10.6936      2.00000
      5      -6.0891      2.00000
      6      -6.0891      2.00000
      7      -5.5821      2.00000
      8      -5.5821      2.00000
      9      -1.6717      2.00000
     10      -1.6717      2.00000
     11      -1.2248      2.00000
     12      -1.2248      2.00000
     13      -0.4514      2.00000
     14      -0.4514      2.00000
     15      -0.0484      2.00000
     16      -0.0484      2.00000
     17       0.5760      2.00000
     18       0.5760      2.00000
     19       0.8187      2.00000
     20       0.8187      2.00000
     21       2.5489      0.00000
     22       2.5489      0.00000
     23       2.6492      0.00000
     24       2.6492      0.00000
     25       3.9638      0.00000
     26       3.9638      0.00000
     27       4.3273      0.00000
     28       4.3273      0.00000
     29       5.0697      0.00000
     30       5.0697      0.00000
     31       7.0147      0.00000
     32       7.0147      0.00000

 k-point    15 :      -0.1667    0.5000    0.0000
  band No.  band energies     occupation 
      1     -10.8198      2.00000
      2     -10.8198      2.00000
      3     -10.7606      2.00000
      4     -10.7606      2.00000
      5      -6.0672      2.00000
      6      -6.0672      2.00000
      7      -5.5961      2.00000
      8      -5.5961      2.00000
      9      -1.6850      2.00000
     10      -1.6850      2.00000
     11      -1.2251      2.00000
     12      -1.2251      2.00000
     13      -0.5000      2.00000
     14      -0.5000      2.00000
     15       0.1469      2.00000
     16       0.1469      2.00000
     17       0.4953      2.00000
     18       0.4953      2.00000
     19       0.7587      2.00000
     20       0.7587      2.00000
     21       2.4952      0.00000
     22       2.4952      0.00000
     23       2.6899      0.00000
     24       2.6899      0.00000
     25       3.9390      0.00000
     26       3.9390      0.00000
     27       4.3301      0.00000
     28       4.3301      0.00000
     29       5.1646      0.00000
     30       5.1646      0.00000
     31       6.8961      0.00000
     32       6.8961      0.00000

 k-point    16 :       0.3333    0.3333    0.0000
  band No.  band energies     occupation 
      1     -10.9675      2.00000
      2     -10.8261      2.00000
      3     -10.6772      2.00000
      4     -10.5882      2.00000
      5      -6.0973      2.00000
      6      -5.6027      2.00000
      7      -5.5958      2.00000
      8      -5.5807      2.00000
      9      -2.2202      2.00000
     10      -2.2166      2.00000
     11      -1.8937      2.00000
     12      -1.4395      2.00000
     13      -0.5626      2.00000
     14      -0.3462      2.00000
     15      -0.2081      2.00000
     16      -0.1894      2.00000
     17      -0.1819      2.00000
     18       0.1565      2.00000
     19       0.4512      2.00000
     20       0.7059      2.00000
     21       2.7948      0.00000
     22       2.8201      0.00000
     23       4.0267      0.00000
     24       4.1824      0.00000
     25       4.3895      0.00000
     26       4.3922      0.00000
     27       4.8343      0.00000
     28       5.4103      0.00000
     29       5.7279      0.00000
     30       6.0701      0.00000
     31       6.1400      0.00000
     32       6.9628      0.00000

 k-point    17 :      -0.3333    0.3333    0.0000
  band No.  band energies     occupation 
      1     -10.9675      2.00000
      2     -10.8261      2.00000
      3     -10.6772      2.00000
      4     -10.5882      2.00000
      5      -6.0973      2.00000
      6      -5.6027      2.00000
      7      -5.5958      2.00000
      8      -5.5807      2.00000
      9      -2.2202      2.00000
     10      -2.2166      2.00000
     11      -1.8937      2.00000
     12      -1.4395      2.00000
     13      -0.5626      2.00000
     14      -0.3462      2.00000
[...]
     32       5.7828      0.00000

 k-point    32 :      -0.3333    0.1667    0.5000
  band No.  band energies     occupation 
      1     -11.0542      2.00000
      2     -11.0542      2.00000
      3     -10.5664      2.00000
      4     -10.5664      2.00000
      5      -6.0337      2.00000
      6      -6.0337      2.00000
      7      -5.5547      2.00000
      8      -5.5547      2.00000
      9      -1.6065      2.00000
     10      -1.6065      2.00000
     11      -1.0230      2.00000
     12      -1.0230      2.00000
     13      -0.6180      2.00000
     14      -0.6180      2.00000
     15      -0.0804      2.00000
     16      -0.0804      2.00000
     17       0.5010      2.00000
     18       0.5010      2.00000
     19       0.7564      2.00000
     20       0.7564      2.00000
     21       2.7660      0.00000
     22       2.7660      0.00000
     23       3.1798      0.00000
     24       3.1798      0.00000
     25       3.5667      0.00000
     26       3.5667      0.00000
     27       4.9868      0.00000
     28       4.9868      0.00000
     29       5.2322      0.00000
     30       5.2322      0.00000
     31       6.0467      0.00000
     32       6.0467      0.00000

 k-point    33 :       0.1667    0.3333    0.5000
  band No.  band energies     occupation 
      1     -11.0447      2.00000
      2     -11.0447      2.00000
      3     -10.5789      2.00000
      4     -10.5789      2.00000
      5      -6.0169      2.00000
      6      -6.0169      2.00000
      7      -5.5674      2.00000
      8      -5.5674      2.00000
      9      -1.6047      2.00000
     10      -1.6047      2.00000
     11      -1.0314      2.00000
     12      -1.0314      2.00000
     13      -0.5663      2.00000
     14      -0.5663      2.00000
     15      -0.1633      2.00000
     16      -0.1633      2.00000
     17       0.5706      2.00000
     18       0.5706      2.00000
     19       0.7341      2.00000
     20       0.7341      2.00000
     21       2.7635      0.00000
     22       2.7635      0.00000
     23       3.1349      0.00000
     24       3.1349      0.00000
     25       3.5606      0.00000
     26       3.5606      0.00000
     27       4.9920      0.00000
     28       4.9920      0.00000
     29       5.4961      0.00000
     30       5.4961      0.00000
     31       5.7828      0.00000
     32       5.7828      0.00000

 k-point    34 :       0.5000    0.1667    0.5000
  band No.  band energies     occupation 
      1     -10.8781      2.00000
      2     -10.8781      2.00000
      3     -10.6986      2.00000
      4     -10.6986      2.00000
      5      -5.9627      2.00000
      6      -5.9627      2.00000
      7      -5.7407      2.00000
      8      -5.7407      2.00000
      9      -1.2851      2.00000
     10      -1.2851      2.00000
     11      -1.1487      2.00000
     12      -1.1487      2.00000
     13      -0.8192      2.00000
     14      -0.8192      2.00000
     15      -0.3823      2.00000
     16      -0.3823      2.00000
     17       0.6126      2.00000
     18       0.6126      2.00000
     19       0.9211      2.00000
     20       0.9211      2.00000
     21       2.6558      0.00000
     22       2.6558      0.00000
     23       2.8370      0.00000
     24       2.8370      0.00000
     25       4.1191      0.00000
     26       4.1191      0.00000
     27       4.2169      0.00000
     28       4.2169      0.00000
     29       5.1333      0.00000
     30       5.1333      0.00000
     31       6.0967      0.00000
     32       6.0967      0.00000

 k-point    35 :      -0.1667    0.5000    0.5000
  band No.  band energies     occupation 
      1     -10.7907      2.00000
      2     -10.7907      2.00000
      3     -10.7907      2.00000
      4     -10.7907      2.00000
      5      -5.8490      2.00000
      6      -5.8490      2.00000
      7      -5.8490      2.00000
      8      -5.8490      2.00000
      9      -1.2132      2.00000
     10      -1.2132      2.00000
     11      -1.2132      2.00000
     12      -1.2132      2.00000
     13      -0.6335      2.00000
     14      -0.6335      2.00000
     15      -0.6335      2.00000
     16      -0.6335      2.00000
     17       0.8073      2.00000
     18       0.8073      2.00000
     19       0.8073      2.00000
     20       0.8073      2.00000
     21       2.7084      0.00000
     22       2.7084      0.00000
     23       2.7084      0.00000
     24       2.7084      0.00000
     25       4.1693      0.00000
     26       4.1693      0.00000
     27       4.1693      0.00000
     28       4.1693      0.00000
     29       5.6054      0.00000
     30       5.6054      0.00000
     31       5.6054      0.00000
     32       5.6054      0.00000

 k-point    36 :       0.3333    0.3333    0.5000
  band No.  band energies     occupation 
      1     -10.9093      2.00000
      2     -10.9093      2.00000
      3     -10.6205      2.00000
      4     -10.6205      2.00000
      5      -5.8687      2.00000
      6      -5.8687      2.00000
      7      -5.5932      2.00000
      8      -5.5932      2.00000
      9      -2.1143      2.00000
     10      -2.1143      2.00000
     11      -1.4230      2.00000
     12      -1.4230      2.00000
     13      -0.8950      2.00000
     14      -0.8950      2.00000
     15      -0.7020      2.00000
     16      -0.7020      2.00000
     17       0.3942      2.00000
     18       0.3942      2.00000
     19       0.8458      2.00000
     20       0.8458      2.00000
     21       2.9363      0.00000
     22       2.9363      0.00000
     23       4.2068      0.00000
     24       4.2068      0.00000
     25       4.3274      0.00000
     26       4.3274      0.00000
     27       5.2305      0.00000
     28       5.2305      0.00000
     29       5.5421      0.00000
     30       5.5421      0.00000
     31       5.7590      0.00000
     32       5.7590      0.00000

 k-point    37 :      -0.3333    0.3333    0.5000
  band No.  band energies     occupation 
      1     -10.9093      2.00000
      2     -10.9093      2.00000
      3     -10.6205      2.00000
      4     -10.6205      2.00000
      5      -5.8687      2.00000
      6      -5.8687      2.00000
      7      -5.5932      2.00000
      8      -5.5932      2.00000
      9      -2.1143      2.00000
     10      -2.1143      2.00000
     11      -1.4230      2.00000
     12      -1.4230      2.00000
     13      -0.8950      2.00000
     14      -0.8950      2.00000
     15      -0.7020      2.00000
     16      -0.7020      2.00000
     17       0.3942      2.00000
     18       0.3942      2.00000
     19       0.8458      2.00000
     20       0.8458      2.00000
     21       2.9363      0.00000
     22       2.9363      0.00000
     23       4.2068      0.00000
     24       4.2068      0.00000
     25       4.3274      0.00000
     26       4.3274      0.00000
     27       5.2305      0.00000
     28       5.2305      0.00000
     29       5.5421      0.00000
     30       5.5421      0.00000
     31       5.7590      0.00000
     32       5.7590      0.00000

 k-point    38 :       0.5000    0.3333    0.5000
  band No.  band energies     occupation 
      1     -10.7942      2.00000
      2     -10.7942      2.00000
      3     -10.6878      2.00000
      4     -10.6878      2.00000
      5      -5.7755      2.00000
      6      -5.7755      2.00000
      7      -5.6266      2.00000
      8      -5.6266      2.00000
      9      -2.0732      2.00000
     10      -2.0732      2.00000
     11      -1.9844      2.00000
     12      -1.9844      2.00000
     13      -1.0329      2.00000
     14      -1.0329      2.00000
     15      -0.7053      2.00000
     16      -0.7053      2.00000
     17       0.2995      2.00000
     18       0.2995      2.00000
     19       0.6770      2.00000
     20       0.6770      2.00000
     21       3.8036      0.00000
     22       3.8036      0.00000
     23       3.8472      0.00000
     24       3.8472      0.00000
     25       4.9819      0.00000
     26       4.9819      0.00000
     27       5.3336      0.00000
     28       5.3336      0.00000
     29       5.3745      0.00000
     30       5.3745      0.00000
     31       5.6434      0.00000
     32       5.6434      0.00000

 k-point    39 :      -0.3333    0.5000    0.5000
  band No.  band energies     occupation 
      1     -10.7418      2.00000
      2     -10.7418      2.00000
      3     -10.7418      2.00000
      4     -10.7418      2.00000
      5      -5.7003      2.00000
      6      -5.7003      2.00000
      7      -5.7003      2.00000
      8      -5.7003      2.00000
      9      -2.0274      2.00000
     10      -2.0274      2.00000
     11      -2.0274      2.00000
     12      -2.0274      2.00000
     13      -0.8932      2.00000
     14      -0.8932      2.00000
     15      -0.8932      2.00000
     16      -0.8932      2.00000
     17       0.5120      2.00000
     18       0.5120      2.00000
     19       0.5120      2.00000
     20       0.5120      2.00000
     21       3.8128      0.00000
     22       3.8128      0.00000
     23       3.8128      0.00000
     24       3.8128      0.00000
     25       5.1893      0.00000
     26       5.1893      0.00000
     27       5.1893      0.00000
     28       5.1893      0.00000
     29       5.4754      0.00000
     30       5.4754      0.00000
     31       5.4754      0.00000
     32       5.4754      0.00000

 k-point    40 :       0.5000    0.5000    0.5000
  band No.  band energies     occupation 
      1     -10.7167      2.00000
      2     -10.7167      2.00000
      3     -10.7167      2.00000
      4     -10.7167      2.00000
      5      -5.6165      2.00000
      6      -5.6165      2.00000
      7      -5.6165      2.00000
      8      -5.6165      2.00000
      9      -2.3478      2.00000
     10      -2.3478      2.00000
     11      -2.3478      2.00000
     12      -2.3478      2.00000
     13      -1.0447      2.00000
     14      -1.0447      2.00000
     15      -1.0447      2.00000
     16      -1.0447      2.00000
     17       0.4121      2.00000
     18       0.4121      2.00000
     19       0.4121      2.00000
     20       0.4121      2.00000
     21       4.4099      0.00000
     22       4.4099      0.00000
     23       4.4099      0.00000
     24       4.4099      0.00000
     25       5.1780      0.00000
     26       5.1780      0.00000
     27       5.1780      0.00000
     28       5.1780      0.00000
     29       5.8441      0.00000
     30       5.8441      0.00000
     31       5.8441      0.00000
     32       5.8441      0.00000


--------------------------------------------------------------------------------------------------------


 soft charge-density along one line, spin component            1
         0         1         2         3         4         5         6         7         8         9
 total charge-density along one line
 
 pseudopotential strength for first ion, spin component:            1
 15.125  18.889  -0.000   0.050   0.000  -0.000   0.091   0.000
 18.889  23.605  -0.000   0.064   0.000  -0.000   0.115   0.000
 -0.000  -0.000   3.327   0.000  -0.000   5.671   0.000  -0.000
  0.050   0.064   0.000   3.310   0.000   0.000   5.643   0.000
  0.000   0.000  -0.000   0.000   3.327  -0.000   0.000   5.671
 -0.000  -0.000   5.671   0.000  -0.000   9.726   0.000  -0.000
  0.091   0.115   0.000   5.643   0.000   0.000   9.679   0.000
  0.000   0.000  -0.000   0.000   5.671  -0.000   0.000   9.726
 -0.000  -0.000   0.000  -0.000  -0.000   0.000  -0.000  -0.000
  0.000   0.000   0.014  -0.000  -0.000   0.025  -0.000  -0.000
 -0.020  -0.025   0.000   0.012  -0.000   0.000   0.023  -0.000
  0.000   0.000  -0.000   0.000   0.014  -0.000   0.000   0.025
  0.000   0.000   0.000   0.000   0.000   0.000   0.000   0.000
 total augmentation occupancy for first ion, spin component:            1
  2.292  -0.399  -0.000   0.562   0.000   0.000  -0.118  -0.000  -0.000  -0.000   0.074   0.000  -0.000
 -0.399   0.493   0.000  -0.627  -0.000   0.000   0.103  -0.000   0.000   0.000  -0.061  -0.000  -0.001
 -0.000   0.000   0.643   0.000   0.000  -0.082  -0.000  -0.000   0.000   0.035   0.000   0.000   0.000
  0.562  -0.627   0.000   1.668  -0.000  -0.000  -0.253   0.000  -0.000  -0.000   0.205   0.000   0.001
  0.000  -0.000   0.000  -0.000   0.639   0.000   0.000  -0.082  -0.000   0.000  -0.000   0.034   0.000
  0.000   0.000  -0.082  -0.000   0.000   0.012   0.000   0.000  -0.000  -0.005  -0.000  -0.000  -0.000
 -0.118   0.103  -0.000  -0.253   0.000   0.000   0.046  -0.000   0.000   0.000  -0.033  -0.000  -0.000
 -0.000  -0.000  -0.000   0.000  -0.082   0.000  -0.000   0.012   0.000  -0.000   0.000  -0.005  -0.000
 -0.000   0.000   0.000  -0.000  -0.000  -0.000   0.000   0.000   0.011  -0.000  -0.000   0.000  -0.000
 -0.000   0.000   0.035  -0.000   0.000  -0.005   0.000  -0.000  -0.000   0.012  -0.000   0.000   0.000
  0.074  -0.061   0.000   0.205  -0.000  -0.000  -0.033   0.000  -0.000  -0.000   0.033   0.000   0.000
  0.000  -0.000   0.000   0.000   0.034  -0.000  -0.000  -0.005   0.000   0.000   0.000   0.012  -0.000
 -0.000  -0.001   0.000   0.001   0.000  -0.000  -0.000  -0.000  -0.000   0.000   0.000  -0.000   0.002


------------------------ aborting loop because EDIFF is reached ----------------------------------------


    CHARGE:  cpu time      0.0037: real time      0.0037
    FORLOC:  cpu time      0.0002: real time      0.0002
    FORNL :  cpu time      0.0229: real time      0.0230
    STRESS:  cpu time      0.2274: real time      0.2313
    FORCOR:  cpu time      0.0036: real time      0.0036
    FORHAR:  cpu time      0.0009: real time      0.0009
    MIXING:  cpu time      0.0005: real time      0.0005
    OFIELD:  cpu time      0.0000: real time      0.0000

  FORCE on cell =-STRESS in cart. coord.  units (eV):
  Direction    XX          YY          ZZ          XY          YZ          ZX
  --------------------------------------------------------------------------------------
  Alpha Z    70.33147    70.33147    70.33147
  Ewald    -493.02120  -479.03547  -343.75643    -0.00000     0.00000     0.00000
  Hartree    45.89575    57.98890    66.23486    -0.00000     0.00000    -0.00000
  E(xc)    -137.47561  -137.49689  -139.38784     0.00000     0.00000     0.00000
  Local    -100.99693  -127.44231  -270.21537     0.00000    -0.00000     0.00000
  n-local   229.83273   229.88452   247.52261    -0.00000    -0.00000    -0.00000
  augment   -11.62689   -11.66328   -12.29942     0.00000    -0.00000     0.00000
  Kinetic   386.10759   387.02297   382.88133     0.00000    -0.00000    -0.00000
  Fock        0.00000     0.00000     0.00000     0.00000     0.00000     0.00000
  -------------------------------------------------------------------------------------
  Total     -10.95308   -10.41010     1.31122     0.00000    -0.00000     0.00000
  in kB     -72.83989   -69.22896     8.71984     0.00000    -0.00000     0.00000
  external pressure =      -44.45 kB  Pullay stress =        0.00 kB


 VOLUME and BASIS-vectors are now :
 -----------------------------------------------------------------------------
  energy-cutoff  :      360.00
  volume of cell :      240.92
      direct lattice vectors                 reciprocal lattice vectors
     4.650000000  0.000000000  0.000000000     0.215053763  0.000000000  0.000000000
     0.000000000  4.650000000  0.000000000     0.000000000  0.215053763  0.000000000
     0.000000000  0.000000000 11.142221000     0.000000000  0.000000000  0.089748713

  length of vectors
     4.650000000  4.650000000 11.142221000     0.215053763  0.215053763  0.089748713


 FORCES acting on ions
    electron-ion (+dipol)            ewald-force                    non-local-force                 convergence-correction
 -----------------------------------------------------------------------------------------------
   0.379E-06 -.390E-06 0.337E+02   0.478E-14 0.824E-16 -.360E+02   -.220E-06 0.216E-06 0.238E+01   -.103E-06 0.150E-06 0.309E-03
   -.850E-08 -.297E-06 -.337E+02   -.357E-14 -.361E-16 0.360E+02   0.293E-07 0.164E-06 -.238E+01   -.149E-07 0.117E-06 -.309E-03
   -.396E-06 0.418E-06 -.337E+02   -.342E-14 -.159E-15 0.360E+02   0.188E-06 -.232E-06 -.238E+01   0.156E-06 -.164E-06 -.309E-03
   0.222E-06 0.923E-07 0.337E+02   0.486E-14 -.589E-16 -.360E+02   -.993E-07 -.472E-07 0.238E+01   -.130E-06 -.254E-07 0.308E-03
   0.357E-06 0.334E-06 -.356E+02   0.466E-14 -.108E-14 0.377E+02   -.211E-06 -.116E-06 -.206E+01   -.795E-07 -.180E-06 -.623E-03
   -.476E-06 0.663E-06 0.356E+02   -.369E-14 0.471E-15 -.377E+02   0.297E-06 -.313E-06 0.206E+01   0.179E-06 -.306E-06 0.625E-03
   -.757E-06 -.156E-06 0.356E+02   -.369E-14 0.107E-14 -.377E+02   0.275E-06 0.767E-07 0.206E+01   0.447E-06 0.601E-07 0.623E-03
   0.426E-06 -.297E-06 -.356E+02   0.326E-14 -.511E-15 0.377E+02   -.173E-06 0.114E-06 -.206E+01   -.206E-06 0.141E-06 -.625E-03
 -----------------------------------------------------------------------------------------------
   -.254E-06 0.367E-06 -.747E-06   0.319E-14 -.226E-15 0.711E-14   0.855E-07 -.138E-06 0.397E-06   0.248E-06 -.207E-06 0.254E-06
 
 
 POSITION                                       TOTAL-FORCE (eV/Angst)
 -----------------------------------------------------------------------------------
      0.00000      1.16250      1.65837         0.000000     -0.000000      0.001684
      2.32500      3.48750      3.91274        -0.000000     -0.000000     -0.001684
      0.00000      3.48750      9.48385        -0.000000      0.000000     -0.001684
      2.32500      1.16250      7.22948        -0.000000      0.000000      0.001683
      0.00000      1.16250      4.06884         0.000000      0.000000      0.032291
      2.32500      3.48750      1.50227        -0.000000      0.000000     -0.032292
      0.00000      3.48750      7.07338        -0.000000     -0.000000     -0.032291
      2.32500      1.16250      9.63995         0.000000     -0.000000      0.032292
 -----------------------------------------------------------------------------------
    total drift:                                0.000000      0.000000     -0.000000


--------------------------------------------------------------------------------------------------------



  FREE ENERGIE OF THE ION-ELECTRON SYSTEM (eV)
  ---------------------------------------------------
  free  energy   TOTEN  =       -31.61031953 eV

  energy  without entropy=      -31.61031953  energy(sigma->0) =      -31.61031953
 


--------------------------------------------------------------------------------------------------------


    POTLOK:  cpu time      0.1127: real time      0.1131


--------------------------------------------------------------------------------------------------------


     LOOP+:  cpu time      5.5717: real time      5.6227
    4ORBIT:  cpu time      0.0000: real time      0.0000

 total amount of memory used by VASP MPI-rank0    40265. kBytes
=======================================================================

   base      :      30000. kBytes
   nonl-proj :       7974. kBytes
   fftplans  :        419. kBytes
   grid      :        607. kBytes
   one-center:         16. kBytes
   wavefun   :       1249. kBytes
 
  
  
 General timing and accounting informations for this job:
 ========================================================
  
                  Total CPU time used (sec):        6.479
                            User time (sec):        6.167
                          System time (sec):        0.312
                         Elapsed time (sec):        8.066
  
                   Maximum memory used (kb):      194160.
                   Average memory used (kb):          N/A
  
                          Minor page faults:        23860
                          Major page faults:           39
                 Voluntary context switches:         5628
