 running   32 mpi-ranks, with    1 threads/rank, on    2 nodes
 distrk:  each k-point on   16 cores,    2 groups
 distr:  one band on    1 cores,   16 groups
 vasp.6.4.2 20Jul23 (build Oct 12 2023 10:31:02) complex                         
 POSCAR found type information on POSCAR GeSe
 POSCAR found :  2 types and       8 ions
 Reading from existing POTCAR
 -----------------------------------------------------------------------------
|                                                                             |
|           W    W    AA    RRRRR   N    N  II  N    N   GGGG   !!!           |
|           W    W   A  A   R    R  NN   N  II  NN   N  G    G  !!!           |
|           W    W  A    A  R    R  N N  N  II  N N  N  G       !!!           |
|           W WW W  AAAAAA  RRRRR   N  N N  II  N  N N  G  GGG   !            |
|           WW  WW  A    A  R   R   N   NN  II  N   NN  G    G                |
|           W    W  A    A  R    R  N    N  II  N    N   GGGG   !!!           |
|                                                                             |
|     You use a magnetic or noncollinear calculation, but did not specify     |
|     the initial magnetic moment with the MAGMOM tag. Note that a            |
|     default of 1 will be used for all atoms. This ferromagnetic setup       |
|     may break the symmetry of the crystal, in particular it may rule        |
|     out finding an antiferromagnetic solution. Thence, we recommend         |
|     setting the initial magnetic moment manually or verifying carefully     |
|     that this magnetic setup is desired.                                    |
|                                                                             |
 -----------------------------------------------------------------------------

 scaLAPACK will be used
 Reading from existing POTCAR
 LDA part: xc-table for Pade appr. of Perdew
 -----------------------------------------------------------------------------
|                                                                             |
|           W    W    AA    RRRRR   N    N  II  N    N   GGGG   !!!           |
|           W    W   A  A   R    R  NN   N  II  NN   N  G    G  !!!           |
|           W    W  A    A  R    R  N N  N  II  N N  N  G       !!!           |
|           W WW W  AAAAAA  RRRRR   N  N N  II  N  N N  G  GGG   !            |
|           WW  WW  A    A  R   R   N   NN  II  N   NN  G    G                |
|           W    W  A    A  R    R  N    N  II  N    N   GGGG   !!!           |
|                                                                             |
|     The number of bands has been changed from the values supplied in        |
|     the INCAR file. This is a result of running the parallel version.       |
|     The orbitals not found in the WAVECAR file will be initialized with     |
|     random numbers, which is usually adequate. For correlated               |
|     calculations, however, you should redo the groundstate calculation.     |
|     I found NBANDS = 220. Now, NBANDS = 224.                                |
|                                                                             |
 -----------------------------------------------------------------------------

 POSCAR, INCAR and KPOINTS ok, starting setup
 FFT: planning ... GRIDC
 FFT: planning ... GRID_SOFT
 FFT: planning ... GRID
 WAVECAR not read
 WARNING: random wavefunctions but no delay for mixing, default for NELMDL
 entering main loop
       N       E                     dE             d eps       ncg     rms          rms(c)
DAV:   1     0.177993938830E+03    0.17799E+03   -0.94156E+03 28672   0.135E+02
DAV:   2    -0.213220334402E+02   -0.19932E+03   -0.17794E+03 34640   0.408E+01
DAV:   3    -0.324082074040E+02   -0.11086E+02   -0.10912E+02 34512   0.970E+00
DAV:   4    -0.324760568487E+02   -0.67849E-01   -0.67833E-01 33776   0.680E-01
DAV:   5    -0.324763564399E+02   -0.29959E-03   -0.29958E-03 33264   0.488E-02    0.967E+00
DAV:   6    -0.254156845970E+02    0.70607E+01   -0.37550E+00 31760   0.194E+00    0.617E+00
DAV:   7    -0.248967735798E+02    0.51891E+00   -0.57831E-01 32992   0.663E-01    0.401E+00
DAV:   8    -0.264653465513E+02   -0.15686E+01   -0.21263E-01 32656   0.464E-01    0.244E+00
DAV:   9    -0.279538378392E+02   -0.14885E+01   -0.15232E-01 33024   0.359E-01    0.200E+00
DAV:  10    -0.302871893905E+02   -0.23334E+01   -0.41841E-01 31088   0.558E-01    0.140E+00
DAV:  11    -0.325410847650E+02   -0.22539E+01   -0.42558E-01 31664   0.540E-01    0.640E-01
DAV:  12    -0.330280362690E+02   -0.48695E+00   -0.75356E-02 32688   0.242E-01    0.373E-01
DAV:  13    -0.332627219323E+02   -0.23469E+00   -0.22981E-02 31680   0.145E-01    0.210E-01
DAV:  14    -0.334767723506E+02   -0.21405E+00   -0.32255E-03 30688   0.659E-02    0.118E-01
DAV:  15    -0.335084795762E+02   -0.31707E-01   -0.16253E-03 32560   0.385E-02    0.709E-02
DAV:  16    -0.335145279054E+02   -0.60483E-02   -0.69839E-04 32016   0.272E-02    0.490E-02
DAV:  17    -0.335166794579E+02   -0.21516E-02   -0.26291E-04 31840   0.176E-02    0.285E-02
DAV:  18    -0.335181368127E+02   -0.14574E-02   -0.15366E-04 32016   0.134E-02    0.169E-02
DAV:  19    -0.335188649024E+02   -0.72809E-03   -0.61994E-05 33008   0.823E-03    0.904E-03
DAV:  20    -0.335192229844E+02   -0.35808E-03   -0.27221E-05 32672   0.573E-03    0.395E-03
DAV:  21    -0.335193955025E+02   -0.17252E-03   -0.96518E-06 32832   0.340E-03    0.183E-03
DAV:  22    -0.335194952999E+02   -0.99797E-04   -0.45221E-06 32768   0.191E-03    0.828E-04
DAV:  23    -0.335194985856E+02   -0.32857E-05   -0.39096E-07 34288   0.789E-04    0.331E-04
DAV:  24    -0.335194987366E+02   -0.15094E-06   -0.10406E-07 30592   0.426E-04
   1 F= -.33519499E+02 E0= -.33519499E+02  d E =-.811796E-16  mag=     0.0000
 writing wavefunctions
