 vasp.6.4.2 20Jul23 (build Oct 12 2023 10:31:02) complex                         
 executed on              LinuxNV date 2025.05.18  09:13:13
 running  160 mpi-ranks, with    1 threads/rank, on   10 nodes
 distrk:  each k-point on   80 cores,    2 groups
 distr:  one band on NCORE=   5 cores,   16 groups


--------------------------------------------------------------------------------------------------------


 INCAR:
   ENCUT = 520.000000
   SIGMA = 0.050000
   EDIFF = 1.00e-06
   ALGO = Normal
   GGA = PE
   PREC = Normal
   SYSTEM = ./
   ICHARG = 2
   ISMEAR = 0
   ISPIN = 1
   ISTART = 0
   ISYM = 0
   KPAR = 2
   LMAXMIX = 4
   NELM = 100
   NPAR = 16
   LASPH = .TRUE.
   LCHARG = .FALSE.
   LWAVE = .FALSE.

 POTCAR:    PAW_PBE Ge 05Jan2001                  
 POTCAR:    PAW_PBE Se 06Sep2000                  
 POTCAR:    PAW_PBE Ge 05Jan2001                  
   VRHFIN =Ge: s2p2                                                                                 
   LEXCH  = PE                                                                                      
   EATOM  =   104.9960 eV,    7.7170 Ry                                                             
                                                                                                    
   TITEL  = PAW_PBE Ge 05Jan2001                                                                    
   LULTRA =        F    use ultrasoft PP ?                                                          
   IUNSCR =        1    unscreen: 0-lin 1-nonlin 2-no                                               
   RPACOR =    2.170    partial core radius                                                         
   POMASS =   72.610; ZVAL   =    4.000    mass and valenz                                          
   RCORE  =    2.300    outmost cutoff radius                                                       
   RWIGS  =    2.300; RWIGS  =    1.217    wigner-seitz radius (au A)                               
   ENMAX  =  173.807; ENMIN  =  130.355 eV                                                          
   ICORE  =        3    local potential                                                             
   LCOR   =        T    correct aug charges                                                         
   LPAW   =        T    paw PP                                                                      
   EAUG   =  385.843                                                                                
   DEXC   =    0.000                                                                                
   RMAX   =    2.342    core radius for proj-oper                                                   
   RAUG   =    1.300    factor for augmentation sphere                                              
   RDEP   =    2.318    radius for radial grids                                                     
   RDEPT  =    2.103    core radius for aug-charge                                                  
                                                                                                    
   Atomic configuration                                                                             
   10 entries                                                                                       
     n  l   j            E        occ.                                                              
     1  0  0.50    -10959.8463   2.0000                                                             
     2  0  0.50     -1371.6056   2.0000                                                             
     2  1  1.50     -1198.4791   6.0000                                                             
     3  0  0.50      -168.4733   2.0000                                                             
     3  1  1.50      -115.6019   6.0000                                                             
     3  2  2.50       -29.3106  10.0000                                                             
     4  0  0.50       -11.7309   2.0000                                                             
     4  1  0.50        -3.8952   2.0000                                                             
     4  2  1.50        -4.0817   0.0000                                                             
     4  3  2.50        -4.0817   0.0000                                                             
   Description                                                                                      
     l       E           TYP  RCUT    TYP  RCUT                                                     
     0    -11.7309493     23  2.300                                                                 
     0     -7.4578696     23  2.300                                                                 
     1     -3.8952261     23  2.300                                                                 
     1      6.1178114     23  2.300                                                                 
     2     -4.0817478     23  2.300                                                                 
     3     -1.3605826      7  2.300                                                                 
  local pseudopotential read in
  partial core-charges read in
  partial kinetic energy density read in
  atomic valenz-charges read in
  non local Contribution for L=            0  read in
    real space projection operators read in
  non local Contribution for L=            0  read in
    real space projection operators read in
  non local Contribution for L=            1  read in
    real space projection operators read in
  non local Contribution for L=            1  read in
    real space projection operators read in
  non local Contribution for L=            2  read in
    real space projection operators read in
    PAW grid and wavefunctions read in
 
   number of l-projection  operators is LMAX  =            5
   number of lm-projection operators is LMMAX =           13
 
 POTCAR:    PAW_PBE Se 06Sep2000                  
   VRHFIN =Se: s2p4                                                                                 
   LEXCH  = PE                                                                                      
   EATOM  =   257.1286 eV,   18.8984 Ry                                                             
                                                                                                    
   TITEL  = PAW_PBE Se 06Sep2000                                                                    
   LULTRA =        F    use ultrasoft PP ?                                                          
   IUNSCR =        1    unscreen: 0-lin 1-nonlin 2-no                                               
   RPACOR =    1.900    partial core radius                                                         
   POMASS =   78.960; ZVAL   =    6.000    mass and valenz                                          
   RCORE  =    2.100    outmost cutoff radius                                                       
   RWIGS  =    2.200; RWIGS  =    1.164    wigner-seitz radius (au A)                               
   ENMAX  =  211.555; ENMIN  =  158.666 eV                                                          
   ICORE  =        3    local potential                                                             
   LCOR   =        T    correct aug charges                                                         
   LPAW   =        T    paw PP                                                                      
   EAUG   =  446.842                                                                                
   DEXC   =    0.000                                                                                
   RMAX   =    2.147    core radius for proj-oper                                                   
   RAUG   =    1.300    factor for augmentation sphere                                              
   RDEP   =    2.177    radius for radial grids                                                     
   RDEPT  =    1.928    core radius for aug-charge                                                  
                                                                                                    
   Atomic configuration                                                                             
   10 entries                                                                                       
     n  l   j            E        occ.                                                              
     1  0  0.50    -12503.4787   2.0000                                                             
     2  0  0.50     -1606.9547   2.0000                                                             
     2  1  1.50     -1413.3140   6.0000                                                             
     3  0  0.50      -213.4885   2.0000                                                             
     3  1  1.50      -152.9538   6.0000                                                             
     3  2  2.50       -53.1221  10.0000                                                             
     4  0  0.50       -17.2865   2.0000                                                             
     4  1  0.50        -6.5110   4.0000                                                             
     4  2  2.50        -6.8029   0.0000                                                             
     4  3  2.50        -6.8029   0.0000                                                             
   Description                                                                                      
     l       E           TYP  RCUT    TYP  RCUT                                                     
     0    -17.2865377     23  2.100                                                                 
     0    -15.3094411     23  2.100                                                                 
     1     -6.5110275     23  2.100                                                                 
     1     -0.0695192     23  2.100                                                                 
     2     -6.8029130     23  2.100                                                                 
     3     -1.3605826      7  2.100                                                                 
  local pseudopotential read in
  partial core-charges read in
  partial kinetic energy density read in
  atomic valenz-charges read in
  non local Contribution for L=            0  read in
    real space projection operators read in
  non local Contribution for L=            0  read in
    real space projection operators read in
  non local Contribution for L=            1  read in
    real space projection operators read in
  non local Contribution for L=            1  read in
    real space projection operators read in
  non local Contribution for L=            2  read in
    real space projection operators read in
    PAW grid and wavefunctions read in
 
   number of l-projection  operators is LMAX  =            5
   number of lm-projection operators is LMMAX =           13
 
  PAW_PBE Ge 05Jan2001                  :
 energy of atom  1       EATOM= -104.9960
 kinetic energy error for atom=    0.0002 (will be added to EATOM!!)
  PAW_PBE Se 06Sep2000                  :
 energy of atom  2       EATOM= -257.1286
 kinetic energy error for atom=    0.0007 (will be added to EATOM!!)
 
 
 POSCAR: Ge Se
  positions in cartesian coordinates
  No initial velocities read in
 exchange correlation table for  LEXCH =        8
   RHO(1)=    0.500       N(1)  =     2000
   RHO(2)=  100.500       N(2)  =     4000
 


--------------------------------------------------------------------------------------------------------


 ion  position               nearest neighbor table
   1  0.670  0.694  0.123-   6 2.60   6 2.60   5 2.60   3 2.88
   2  0.170  0.194  0.377-   5 2.60   5 2.60   6 2.60   4 2.88
   3  0.750  0.886  0.877-   8 2.60   8 2.60   7 2.60   1 2.88
   4  0.250  0.386  0.623-   7 2.60   7 2.60   8 2.60   2 2.88
   5  0.670  0.573  0.352-   2 2.60   2 2.60   1 2.60
   6  0.170  0.073  0.148-   1 2.60   1 2.60   2 2.60
   7  0.750  0.007  0.648-   4 2.60   4 2.60   3 2.60
   8  0.250  0.507  0.852-   3 2.60   3 2.60   4 2.60
 

IMPORTANT INFORMATION: All symmetrisations will be switched off!
NOSYMM: (Re-)initialisation of all symmetry stuff for point group C_1.


----------------------------------------------------------------------------------------

                                     Primitive cell                                     

  volume of cell :     193.5913

  direct lattice vectors                    reciprocal lattice vectors
     3.858100176  0.000000000  0.000000000     0.259194929  0.000000000  0.000000000
     0.000000000  4.526575088  0.000000000     0.000000000  0.220917577  0.000000000
     0.000000000  0.000000000 11.085176468     0.000000000  0.000000000  0.090210562

  length of vectors
     3.858100176  4.526575088 11.085176468     0.259194929  0.220917577  0.090210562

  position of ions in fractional coordinates (direct lattice)
     0.670289855  0.693830579  0.122982664
     0.170289855  0.193830579  0.377017336
     0.750000000  0.885879566  0.877017336
     0.250000000  0.385879566  0.622982664
     0.670289855  0.573020034  0.352381810
     0.170289855  0.073020034  0.147618190
     0.750000000  0.006690111  0.647618190
     0.250000000  0.506690111  0.852381810

  ion indices of the primitive-cell ions
   primitive index   ion index
                 1           1
                 2           2
                 3           3
                 4           4
                 5           5
                 6           6
                 7           7
                 8           8

----------------------------------------------------------------------------------------

 
 
 KPOINTS: KPOINTS created by Atomic Simulation Env

Automatic generation of k-mesh.
 Grid dimensions read from file:
 generate k-points for:    6    6    2

 Generating k-lattice:

  Cartesian coordinates                     Fractional coordinates (reciprocal lattice)
     0.043199155  0.000000000  0.000000000     0.166666667  0.000000000  0.000000000
     0.000000000  0.036819596  0.000000000     0.000000000  0.166666667  0.000000000
     0.000000000  0.000000000  0.045105281     0.000000000  0.000000000  0.500000000

  Length of vectors
     0.043199155  0.036819596  0.045105281

  Shift w.r.t. Gamma in fractional coordinates (k-lattice)
     0.000000000  0.000000000  0.000000000

 
 Subroutine IBZKPT returns following result:
 ===========================================
 
 Found     40 irreducible k-points:
 
 Following reciprocal coordinates:
            Coordinates               Weight
  0.000000  0.000000  0.000000      1.000000
  0.166667  0.000000  0.000000      2.000000
  0.333333  0.000000  0.000000      2.000000
  0.500000  0.000000  0.000000      1.000000
  0.000000  0.166667  0.000000      2.000000
  0.166667  0.166667  0.000000      2.000000
  0.166667 -0.166667  0.000000      2.000000
  0.333333  0.166667  0.000000      2.000000
  0.333333 -0.166667  0.000000      2.000000
  0.500000  0.166667  0.000000      2.000000
  0.000000  0.333333  0.000000      2.000000
  0.166667  0.333333  0.000000      2.000000
  0.166667 -0.333333  0.000000      2.000000
  0.333333  0.333333  0.000000      2.000000
  0.333333 -0.333333  0.000000      2.000000
  0.500000  0.333333  0.000000      2.000000
  0.000000  0.500000  0.000000      1.000000
  0.166667  0.500000  0.000000      2.000000
  0.333333  0.500000  0.000000      2.000000
  0.500000  0.500000  0.000000      1.000000
  0.000000  0.000000  0.500000      1.000000
  0.166667  0.000000  0.500000      2.000000
  0.333333  0.000000  0.500000      2.000000
  0.500000  0.000000  0.500000      1.000000
  0.000000  0.166667  0.500000      2.000000
  0.166667  0.166667  0.500000      2.000000
  0.166667 -0.166667  0.500000      2.000000
  0.333333  0.166667  0.500000      2.000000
  0.333333 -0.166667  0.500000      2.000000
  0.500000  0.166667  0.500000      2.000000
  0.000000  0.333333  0.500000      2.000000
  0.166667  0.333333  0.500000      2.000000
  0.166667 -0.333333  0.500000      2.000000
  0.333333  0.333333  0.500000      2.000000
  0.333333 -0.333333  0.500000      2.000000
  0.500000  0.333333  0.500000      2.000000
  0.000000  0.500000  0.500000      1.000000
  0.166667  0.500000  0.500000      2.000000
  0.333333  0.500000  0.500000      2.000000
  0.500000  0.500000  0.500000      1.000000
 
 Following cartesian coordinates:
            Coordinates               Weight
  0.000000  0.000000  0.000000      1.000000
  0.043199  0.000000  0.000000      2.000000
  0.086398  0.000000  0.000000      2.000000
  0.129597  0.000000  0.000000      1.000000
  0.000000  0.036820  0.000000      2.000000
  0.043199  0.036820  0.000000      2.000000
  0.043199 -0.036820  0.000000      2.000000
  0.086398  0.036820  0.000000      2.000000
  0.086398 -0.036820  0.000000      2.000000
  0.129597  0.036820  0.000000      2.000000
  0.000000  0.073639  0.000000      2.000000
  0.043199  0.073639  0.000000      2.000000
  0.043199 -0.073639  0.000000      2.000000
  0.086398  0.073639  0.000000      2.000000
  0.086398 -0.073639  0.000000      2.000000
  0.129597  0.073639  0.000000      2.000000
  0.000000  0.110459  0.000000      1.000000
  0.043199  0.110459  0.000000      2.000000
  0.086398  0.110459  0.000000      2.000000
  0.129597  0.110459  0.000000      1.000000
  0.000000  0.000000  0.045105      1.000000
  0.043199  0.000000  0.045105      2.000000
  0.086398  0.000000  0.045105      2.000000
  0.129597  0.000000  0.045105      1.000000
  0.000000  0.036820  0.045105      2.000000
  0.043199  0.036820  0.045105      2.000000
  0.043199 -0.036820  0.045105      2.000000
  0.086398  0.036820  0.045105      2.000000
  0.086398 -0.036820  0.045105      2.000000
  0.129597  0.036820  0.045105      2.000000
  0.000000  0.073639  0.045105      2.000000
  0.043199  0.073639  0.045105      2.000000
  0.043199 -0.073639  0.045105      2.000000
  0.086398  0.073639  0.045105      2.000000
  0.086398 -0.073639  0.045105      2.000000
  0.129597  0.073639  0.045105      2.000000
  0.000000  0.110459  0.045105      1.000000
  0.043199  0.110459  0.045105      2.000000
  0.086398  0.110459  0.045105      2.000000
  0.129597  0.110459  0.045105      1.000000
 


--------------------------------------------------------------------------------------------------------




 Dimension of arrays:
   k-points           NKPTS =     40   k-points in BZ     NKDIM =     40   number of bands    NBANDS=     32
   number of dos      NEDOS =    301   number of ions     NIONS =      8
   non local maximal  LDIM  =      5   non local SUM 2l+1 LMDIM =     13
   total plane-waves  NPLWV =  43008
   max r-space proj   IRMAX =      1   max aug-charges    IRDMAX=  12272
   dimension x,y,z NGX =    24 NGY =   28 NGZ =   64
   dimension x,y,z NGXF=    48 NGYF=   56 NGZF=  128
   support grid    NGXF=    48 NGYF=   56 NGZF=  128
   ions per type =               4   4
   NGX,Y,Z   is equivalent  to a cutoff of  10.34, 10.28,  9.60 a.u.
   NGXF,Y,Z  is equivalent  to a cutoff of  20.68, 20.57, 19.20 a.u.

 SYSTEM =  ./                                      
 POSCAR =  Ge Se                                   

 Startparameter for this run:
   NWRITE =      2    write-flag & timer
   PREC   = normal    normal or accurate (medium, high low for compatibility)
   ISTART =      0    job   : 0-new  1-cont  2-samecut
   ICHARG =      2    charge: 1-file 2-atom 10-const
   ISPIN  =      1    spin polarized calculation?
   LNONCOLLINEAR =      F non collinear calculations
   LSORBIT =      F    spin-orbit coupling
   INIWAV =      1    electr: 0-lowe 1-rand  2-diag
   LASPH  =      T    aspherical Exc in radial PAW
 Electronic Relaxation 1
   ENCUT  =  520.0 eV  38.22 Ry    6.18 a.u.   7.17  8.42 20.61*2*pi/ulx,y,z
   ENINI  =  520.0     initial cutoff
   ENAUG  =  446.8 eV  augmentation charge cutoff
   NELM   =    100;   NELMIN=  2; NELMDL= -5     # of ELM steps 
   EDIFF  = 0.1E-05   stopping-criterion for ELM
   LREAL  =      F    real-space projection
   NLSPLINE    = F    spline interpolate recip. space projectors
   LCOMPAT=      F    compatible to vasp.4.4
   GGA_COMPAT  = T    GGA compatible to vasp.4.4-vasp.4.6
   LMAXPAW     = -100 max onsite density
   LMAXMIX     =    4 max onsite mixed and CHGCAR
   VOSKOWN=      0    Vosko Wilk Nusair interpolation
   ROPT   =    0.00000   0.00000
 Ionic relaxation
   EDIFFG = 0.1E-04   stopping-criterion for IOM
   NSW    =      0    number of steps for IOM
   NBLOCK =      1;   KBLOCK =      1    inner block; outer block 
   IBRION =     -1    ionic relax: 0-MD 1-quasi-New 2-CG
   NFREE  =      0    steps in history (QN), initial steepest desc. (CG)
   ISIF   =      2    stress and relaxation
   IWAVPR =     10    prediction:  0-non 1-charg 2-wave 3-comb
   ISYM   =      0    0-nonsym 1-usesym 2-fastsym
   LCORR  =      T    Harris-Foulkes like correction to forces

   POTIM  = 0.5000    time-step for ionic-motion
   TEIN   =    0.0    initial temperature
   TEBEG  =    0.0;   TEEND  =   0.0 temperature during run
   SMASS  =  -3.00    Nose mass-parameter (am)
   estimated Nose-frequenzy (Omega)   =  0.10E-29 period in steps = 0.13E+47 mass=  -0.340E-27a.u.
   SCALEE = 1.0000    scale energy and forces
   NPACO  =    256;   APACO  = 10.0  distance and # of slots for P.C.
   PSTRESS=    0.0 pullay stress

  Mass of Ions in am
   POMASS =  72.61 78.96
  Ionic Valenz
   ZVAL   =   4.00  6.00
  Atomic Wigner-Seitz radii
   RWIGS  =  -1.00 -1.00
  virtual crystal weights 
   VCA    =   1.00  1.00
   NELECT =      40.0000    total number of electrons
   NUPDOWN=      -1.0000    fix difference up-down

 DOS related values:
   EMIN   =  10.00;   EMAX   =-10.00  energy-range for DOS
   EFERMI =   0.00;   METHOD = LEGACY      
   ISMEAR =     0;   SIGMA  =   0.05  broadening in eV -4-tet -1-fermi 0-gaus

 Electronic relaxation 2 (details)
   IALGO  =     38    algorithm
   LDIAG  =      T    sub-space diagonalisation (order eigenvalues)
   LSUBROT=      F    optimize rotation matrix (better conditioning)
   TURBO    =      0    0=normal 1=particle mesh
   IRESTART =      0    0=no restart 2=restart with 2 vectors
   NREBOOT  =      0    no. of reboots
   NMIN     =      0    reboot dimension
   EREF     =   0.00    reference energy to select bands
   IMIX   =      4    mixing-type and parameters
     AMIX     =   0.40;   BMIX     =  1.00
     AMIX_MAG =   1.60;   BMIX_MAG =  1.00
     AMIN     =   0.10
     WC   =   100.;   INIMIX=   1;  MIXPRE=   1;  MAXMIX= -45

 Intra band minimization:
   WEIMIN = 0.0000     energy-eigenvalue tresh-hold
   EBREAK =  0.78E-08  absolut break condition
   DEPER  =   0.30     relativ break condition  

   TIME   =   0.40     timestep for ELM

  volume/ion in A,a.u.               =      24.20       163.30
  Fermi-wavevector in a.u.,A,eV,Ry     =   0.967831  1.828935 12.744535  0.936697
  Thomas-Fermi vector in A             =   2.097750
 
 Write flags
   LWAVE        =      F    write WAVECAR
   LDOWNSAMPLE  =      F    k-point downsampling of WAVECAR
   LCHARG       =      F    write CHGCAR
   LVTOT        =      F    write LOCPOT, total local potential
   LVHAR        =      F    write LOCPOT, Hartree potential only
   LELF         =      F    write electronic localiz. function (ELF)
   LORBIT       =      0    0 simple, 1 ext, 2 COOP (PROOUT), +10 PAW based schemes


 Dipole corrections
   LMONO  =      F    monopole corrections only (constant potential shift)
   LDIPOL =      F    correct potential (dipole corrections)
   IDIPOL =      0    1-x, 2-y, 3-z, 4-all directions 
   EPSILON=  1.0000000 bulk dielectric constant

 Exchange correlation treatment:
   GGA     =    PE    GGA type
   LEXCH   =     8    internal setting for exchange type
   LIBXC   =     F    Libxc                    
   VOSKOWN =     0    Vosko Wilk Nusair interpolation
   LHFCALC =     F    Hartree Fock is set to
   LHFONE  =     F    Hartree Fock one center treatment
   AEXX    =    0.0000 exact exchange contribution

 Linear response parameters
   LEPSILON=     F    determine dielectric tensor
   LRPA    =     F    only Hartree local field effects (RPA)
   LNABLA  =     F    use nabla operator in PAW spheres
   LVEL    =     F    velocity operator in full k-point grid
   CSHIFT  =0.1000    complex shift for real part using Kramers Kronig
   OMEGAMAX=  -1.0    maximum frequency
   DEG_THRESHOLD= 0.2000000E-02 threshold for treating states as degnerate
   RTIME   =   -0.100 relaxation time in fs
  (WPLASMAI=    0.000 imaginary part of plasma frequency in eV, 0.658/RTIME)
   DFIELD  = 0.0000000 0.0000000 0.0000000 field for delta impulse in time
 
  Optional k-point grid parameters
   LKPOINTS_OPT  =     F    use optional k-point grid
   KPOINTS_OPT_MODE=     1    mode for optional k-point grid
 
 Orbital magnetization related:
   ORBITALMAG=     F  switch on orbital magnetization
   LCHIMAG   =     F  perturbation theory with respect to B field
   DQ        =  0.001000  dq finite difference perturbation B field
   LLRAUG    =     F  two centre corrections for induced B field
   LBONE     =     F  B-component reconstruction in AE one-centre
   LVGVCALC  =     T  calculate vGv susceptibility
   LVGVAPPL  =     F  apply vGv susceptibility instead of pGv for G=0

 Random number generation:
   RANDOM_GENERATOR = DEFAULT
   PCG_SEED         = not used


--------------------------------------------------------------------------------------------------------


 Static calculation
 charge density and potential will be updated during run
 non-spin polarized calculation
 Variant of blocked Davidson
 Davidson routine will perform the subspace rotation
 perform sub-space diagonalisation
    after iterative eigenvector-optimisation
 modified Broyden-mixing scheme, WC =      100.0
 initial mixing is a Kerker type mixing with AMIX =  0.4000 and BMIX =      1.0000
 Hartree-type preconditioning will be used
 using additional bands            12
 reciprocal scheme for non local part
 use partial core corrections
 calculate Harris-corrections to forces 
   (improved forces if not selfconsistent)
 use gradient corrections 
 use of overlap-Matrix (Vanderbilt PP)
 Gauss-broadening in eV      SIGMA  =   0.05


--------------------------------------------------------------------------------------------------------


  energy-cutoff  :      520.00
  volume of cell :      193.59
      direct lattice vectors                 reciprocal lattice vectors
     3.858100176  0.000000000  0.000000000     0.259194929  0.000000000  0.000000000
     0.000000000  4.526575088  0.000000000     0.000000000  0.220917577  0.000000000
     0.000000000  0.000000000 11.085176468     0.000000000  0.000000000  0.090210562

  length of vectors
     3.858100176  4.526575088 11.085176468     0.259194929  0.220917577  0.090210562


 
 k-points in units of 2pi/SCALE and weight: KPOINTS created by Atomic Simulation Env
   0.00000000  0.00000000  0.00000000       0.014
   0.04319915  0.00000000  0.00000000       0.028
   0.08639831  0.00000000  0.00000000       0.028
   0.12959746  0.00000000  0.00000000       0.014
   0.00000000  0.03681960  0.00000000       0.028
   0.04319915  0.03681960  0.00000000       0.028
   0.04319915 -0.03681960  0.00000000       0.028
   0.08639831  0.03681960  0.00000000       0.028
   0.08639831 -0.03681960  0.00000000       0.028
   0.12959746  0.03681960  0.00000000       0.028
   0.00000000  0.07363919  0.00000000       0.028
   0.04319915  0.07363919  0.00000000       0.028
   0.04319915 -0.07363919  0.00000000       0.028
   0.08639831  0.07363919  0.00000000       0.028
   0.08639831 -0.07363919  0.00000000       0.028
   0.12959746  0.07363919  0.00000000       0.028
   0.00000000  0.11045879  0.00000000       0.014
   0.04319915  0.11045879  0.00000000       0.028
   0.08639831  0.11045879  0.00000000       0.028
   0.12959746  0.11045879  0.00000000       0.014
   0.00000000  0.00000000  0.04510528       0.014
   0.04319915  0.00000000  0.04510528       0.028
   0.08639831  0.00000000  0.04510528       0.028
   0.12959746  0.00000000  0.04510528       0.014
   0.00000000  0.03681960  0.04510528       0.028
   0.04319915  0.03681960  0.04510528       0.028
   0.04319915 -0.03681960  0.04510528       0.028
   0.08639831  0.03681960  0.04510528       0.028
   0.08639831 -0.03681960  0.04510528       0.028
   0.12959746  0.03681960  0.04510528       0.028
   0.00000000  0.07363919  0.04510528       0.028
   0.04319915  0.07363919  0.04510528       0.028
   0.04319915 -0.07363919  0.04510528       0.028
   0.08639831  0.07363919  0.04510528       0.028
   0.08639831 -0.07363919  0.04510528       0.028
   0.12959746  0.07363919  0.04510528       0.028
   0.00000000  0.11045879  0.04510528       0.014
   0.04319915  0.11045879  0.04510528       0.028
   0.08639831  0.11045879  0.04510528       0.028
   0.12959746  0.11045879  0.04510528       0.014
 
 k-points in reciprocal lattice and weights: KPOINTS created by Atomic Simulation Env
   0.00000000  0.00000000  0.00000000       0.014
   0.16666667  0.00000000  0.00000000       0.028
   0.33333333  0.00000000  0.00000000       0.028
   0.50000000  0.00000000  0.00000000       0.014
   0.00000000  0.16666667  0.00000000       0.028
   0.16666667  0.16666667  0.00000000       0.028
   0.16666667 -0.16666667  0.00000000       0.028
   0.33333333  0.16666667  0.00000000       0.028
   0.33333333 -0.16666667  0.00000000       0.028
   0.50000000  0.16666667  0.00000000       0.028
   0.00000000  0.33333333  0.00000000       0.028
   0.16666667  0.33333333  0.00000000       0.028
   0.16666667 -0.33333333  0.00000000       0.028
   0.33333333  0.33333333  0.00000000       0.028
   0.33333333 -0.33333333  0.00000000       0.028
   0.50000000  0.33333333  0.00000000       0.028
   0.00000000  0.50000000  0.00000000       0.014
   0.16666667  0.50000000  0.00000000       0.028
   0.33333333  0.50000000  0.00000000       0.028
   0.50000000  0.50000000  0.00000000       0.014
   0.00000000  0.00000000  0.50000000       0.014
   0.16666667  0.00000000  0.50000000       0.028
   0.33333333  0.00000000  0.50000000       0.028
   0.50000000  0.00000000  0.50000000       0.014
   0.00000000  0.16666667  0.50000000       0.028
   0.16666667  0.16666667  0.50000000       0.028
   0.16666667 -0.16666667  0.50000000       0.028
   0.33333333  0.16666667  0.50000000       0.028
   0.33333333 -0.16666667  0.50000000       0.028
   0.50000000  0.16666667  0.50000000       0.028
   0.00000000  0.33333333  0.50000000       0.028
   0.16666667  0.33333333  0.50000000       0.028
   0.16666667 -0.33333333  0.50000000       0.028
   0.33333333  0.33333333  0.50000000       0.028
   0.33333333 -0.33333333  0.50000000       0.028
   0.50000000  0.33333333  0.50000000       0.028
   0.00000000  0.50000000  0.50000000       0.014
   0.16666667  0.50000000  0.50000000       0.028
   0.33333333  0.50000000  0.50000000       0.028
   0.50000000  0.50000000  0.50000000       0.014
 
 position of ions in fractional coordinates (direct lattice) 
   0.67028986  0.69383058  0.12298266
   0.17028986  0.19383058  0.37701734
   0.75000000  0.88587957  0.87701734
   0.25000000  0.38587957  0.62298266
   0.67028986  0.57302003  0.35238181
   0.17028986  0.07302003  0.14761819
   0.75000000  0.00669011  0.64761819
   0.25000000  0.50669011  0.85238181
 
 position of ions in cartesian coordinates  (Angst):
   2.58604541  3.14067622  1.36328454
   0.65699532  0.87738867  4.17930370
   2.89357513  4.01000037  9.72189193
   0.96452504  1.74671283  6.90587277
   2.58604541  2.59381821  3.90621455
   0.65699532  0.33053067  1.63637368
   2.89357513  0.03028329  7.17896192
   0.96452504  2.29357083  9.44880278
 


--------------------------------------------------------------------------------------------------------


 k-point   1 :   0.0000 0.0000 0.0000  plane waves:    5211
 k-point   2 :   0.1667 0.0000 0.0000  plane waves:    5225
 k-point   3 :   0.3333 0.0000 0.0000  plane waves:    5224
 k-point   4 :   0.5000 0.0000 0.0000  plane waves:    5258
 k-point   5 :   0.0000 0.1667 0.0000  plane waves:    5209
 k-point   6 :   0.1667 0.1667 0.0000  plane waves:    5201
 k-point   7 :   0.1667-0.1667 0.0000  plane waves:    5201
 k-point   8 :   0.3333 0.1667 0.0000  plane waves:    5230
 k-point   9 :   0.3333-0.1667 0.0000  plane waves:    5230
 k-point  10 :   0.5000 0.1667 0.0000  plane waves:    5236
 k-point  11 :   0.0000 0.3333 0.0000  plane waves:    5213
 k-point  12 :   0.1667 0.3333 0.0000  plane waves:    5199
 k-point  13 :   0.1667-0.3333 0.0000  plane waves:    5199
 k-point  14 :   0.3333 0.3333 0.0000  plane waves:    5211
 k-point  15 :   0.3333-0.3333 0.0000  plane waves:    5211
 k-point  16 :   0.5000 0.3333 0.0000  plane waves:    5230
 k-point  17 :   0.0000 0.5000 0.0000  plane waves:    5220
 k-point  18 :   0.1667 0.5000 0.0000  plane waves:    5208
 k-point  19 :   0.3333 0.5000 0.0000  plane waves:    5230
 k-point  20 :   0.5000 0.5000 0.0000  plane waves:    5180
 k-point  21 :   0.0000 0.0000 0.5000  plane waves:    5210
 k-point  22 :   0.1667 0.0000 0.5000  plane waves:    5178
 k-point  23 :   0.3333 0.0000 0.5000  plane waves:    5214
 k-point  24 :   0.5000 0.0000 0.5000  plane waves:    5232
 k-point  25 :   0.0000 0.1667 0.5000  plane waves:    5224
 k-point  26 :   0.1667 0.1667 0.5000  plane waves:    5210
 k-point  27 :   0.1667-0.1667 0.5000  plane waves:    5210
 k-point  28 :   0.3333 0.1667 0.5000  plane waves:    5196
 k-point  29 :   0.3333-0.1667 0.5000  plane waves:    5196
 k-point  30 :   0.5000 0.1667 0.5000  plane waves:    5224
 k-point  31 :   0.0000 0.3333 0.5000  plane waves:    5202
 k-point  32 :   0.1667 0.3333 0.5000  plane waves:    5214
 k-point  33 :   0.1667-0.3333 0.5000  plane waves:    5214
 k-point  34 :   0.3333 0.3333 0.5000  plane waves:    5216
 k-point  35 :   0.3333-0.3333 0.5000  plane waves:    5216
 k-point  36 :   0.5000 0.3333 0.5000  plane waves:    5216
 k-point  37 :   0.0000 0.5000 0.5000  plane waves:    5212
 k-point  38 :   0.1667 0.5000 0.5000  plane waves:    5192
 k-point  39 :   0.3333 0.5000 0.5000  plane waves:    5208
 k-point  40 :   0.5000 0.5000 0.5000  plane waves:    5208

 maximum and minimum number of plane-waves per node :      1076     1017

 maximum number of plane-waves:      5258
 maximum index in each direction: 
   IXMAX=    7   IYMAX=    8   IZMAX=   20
   IXMIN=   -7   IYMIN=   -8   IZMIN=  -21


 parallel 3D FFT for wavefunctions:
    minimum data exchange during FFTs selected (reduces bandwidth)
 parallel 3D FFT for charge:
    minimum data exchange during FFTs selected (reduces bandwidth)


 total amount of memory used by VASP MPI-rank0    41770. kBytes
=======================================================================

   base      :      30000. kBytes
   nonl-proj :       9056. kBytes
   fftplans  :        519. kBytes
   grid      :        766. kBytes
   one-center:         16. kBytes
   wavefun   :       1413. kBytes
 
     INWAV:  cpu time      0.0000: real time      0.0001
 Broyden mixing: mesh for mixing (old mesh)
   NGX = 15   NGY = 17   NGZ = 41
  (NGX  = 48   NGY  = 56   NGZ  =128)
  gives a total of  10455 points

 initial charge density was supplied:
 charge density of overlapping atoms calculated
 number of electron      40.0000000 magnetization 
 keeping initial charge density in first step


--------------------------------------------------------------------------------------------------------


 Maximum index for augmentation-charges           413 (set IRDMAX)


--------------------------------------------------------------------------------------------------------


 First call to EWALD:  gamma=   0.306
 Maximum number of real-space cells 4x 3x 2
 Maximum number of reciprocal cells 2x 2x 5

    FEWALD:  cpu time      0.0016: real time      0.0016


--------------------------------------- Ionic step        1  -------------------------------------------




--------------------------------------- Iteration      1(   1)  ---------------------------------------


    POTLOK:  cpu time      0.0109: real time      0.0110
    SETDIJ:  cpu time      0.2186: real time      0.2191
     EDDAV:  cpu time      0.3484: real time      0.3508
       DOS:  cpu time      0.0017: real time      0.0017
    --------------------------------------------
      LOOP:  cpu time      0.5796: real time      0.5826

 eigenvalue-minimisations  :  2560
 total energy-change (2. order) : 0.1630946E+03  (-0.1589469E+04)
 number of electron      40.0000000 magnetization 
 augmentation part       40.0000000 magnetization 

 Free energy of the ion-electron system (eV)
  ---------------------------------------------------
  alpha Z        PSCENC =        87.52689448
  Ewald energy   TEWEN  =     -1416.42607069
  -Hartree energ DENC   =      -129.38309510
  -exchange      EXHF   =         0.00000000
  -V(xc)+E(xc)   XCENC  =       -33.27694442
  PAW double counting   =      1193.78262552    -1080.73714043
  entropy T*S    EENTRO =        -0.00294044
  eigenvalues    EBANDS =        93.11662910
  atomic energy  EATOM  =      1448.49460871
  Solvation  Ediel_sol  =         0.00000000
  ---------------------------------------------------
  free energy    TOTEN  =       163.09456673 eV

  energy without entropy =      163.09750718  energy(sigma->0) =      163.09603695


--------------------------------------------------------------------------------------------------------




--------------------------------------- Iteration      1(   2)  ---------------------------------------


     EDDAV:  cpu time      0.4845: real time      0.4888
       DOS:  cpu time      0.0010: real time      0.0010
    --------------------------------------------
      LOOP:  cpu time      0.4855: real time      0.4898

 eigenvalue-minimisations  :  3648
 total energy-change (2. order) :-0.1857587E+03  (-0.1800774E+03)
 number of electron      40.0000000 magnetization 
 augmentation part       40.0000000 magnetization 

 Free energy of the ion-electron system (eV)
  ---------------------------------------------------
  alpha Z        PSCENC =        87.52689448
  Ewald energy   TEWEN  =     -1416.42607069
  -Hartree energ DENC   =      -129.38309510
  -exchange      EXHF   =         0.00000000
  -V(xc)+E(xc)   XCENC  =       -33.27694442
  PAW double counting   =      1193.78262552    -1080.73714043
  entropy T*S    EENTRO =        -0.00002051
  eigenvalues    EBANDS =       -92.64498089
  atomic energy  EATOM  =      1448.49460871
  Solvation  Ediel_sol  =         0.00000000
  ---------------------------------------------------
  free energy    TOTEN  =       -22.66412333 eV

  energy without entropy =      -22.66410281  energy(sigma->0) =      -22.66411307


--------------------------------------------------------------------------------------------------------




--------------------------------------- Iteration      1(   3)  ---------------------------------------


     EDDAV:  cpu time      0.5234: real time      0.5261
       DOS:  cpu time      0.0008: real time      0.0008
    --------------------------------------------
      LOOP:  cpu time      0.5242: real time      0.5269

 eigenvalue-minimisations  :  3248
 total energy-change (2. order) :-0.1126196E+02  (-0.1122900E+02)
 number of electron      40.0000000 magnetization 
 augmentation part       40.0000000 magnetization 

 Free energy of the ion-electron system (eV)
  ---------------------------------------------------
  alpha Z        PSCENC =        87.52689448
  Ewald energy   TEWEN  =     -1416.42607069
  -Hartree energ DENC   =      -129.38309510
  -exchange      EXHF   =         0.00000000
  -V(xc)+E(xc)   XCENC  =       -33.27694442
  PAW double counting   =      1193.78262552    -1080.73714043
  entropy T*S    EENTRO =        -0.00000005
  eigenvalues    EBANDS =      -103.90696362
  atomic energy  EATOM  =      1448.49460871
  Solvation  Ediel_sol  =         0.00000000
  ---------------------------------------------------
  free energy    TOTEN  =       -33.92608559 eV

  energy without entropy =      -33.92608554  energy(sigma->0) =      -33.92608557


--------------------------------------------------------------------------------------------------------




--------------------------------------- Iteration      1(   4)  ---------------------------------------


     EDDAV:  cpu time      0.4621: real time      0.4648
       DOS:  cpu time      0.0098: real time      0.0098
    --------------------------------------------
      LOOP:  cpu time      0.4719: real time      0.4746

 eigenvalue-minimisations  :  3328
 total energy-change (2. order) :-0.8904922E-01  (-0.8902918E-01)
 number of electron      40.0000000 magnetization 
 augmentation part       40.0000000 magnetization 

 Free energy of the ion-electron system (eV)
  ---------------------------------------------------
  alpha Z        PSCENC =        87.52689448
  Ewald energy   TEWEN  =     -1416.42607069
  -Hartree energ DENC   =      -129.38309510
  -exchange      EXHF   =         0.00000000
  -V(xc)+E(xc)   XCENC  =       -33.27694442
  PAW double counting   =      1193.78262552    -1080.73714043
  entropy T*S    EENTRO =        -0.00000005
  eigenvalues    EBANDS =      -103.99601284
  atomic energy  EATOM  =      1448.49460871
  Solvation  Ediel_sol  =         0.00000000
  ---------------------------------------------------
  free energy    TOTEN  =       -34.01513481 eV

  energy without entropy =      -34.01513477  energy(sigma->0) =      -34.01513479


--------------------------------------------------------------------------------------------------------




--------------------------------------- Iteration      1(   5)  ---------------------------------------


     EDDAV:  cpu time      0.4453: real time      0.4475
       DOS:  cpu time      0.0007: real time      0.0007
    CHARGE:  cpu time      0.0090: real time      0.0090
    MIXING:  cpu time      0.0007: real time      0.0007
    --------------------------------------------
      LOOP:  cpu time      0.4558: real time      0.4580

 eigenvalue-minimisations  :  3264
 total energy-change (2. order) :-0.5963493E-03  (-0.5963385E-03)
 number of electron      39.9999994 magnetization 
 augmentation part       -7.3886006 magnetization 

 Broyden mixing:
  rms(total) = 0.64150E+00    rms(broyden)= 0.64149E+00
  rms(prec ) = 0.72029E+00
  weight for this iteration     100.00

 Free energy of the ion-electron system (eV)
  ---------------------------------------------------
  alpha Z        PSCENC =        87.52689448
  Ewald energy   TEWEN  =     -1416.42607069
  -Hartree energ DENC   =      -129.38309510
  -exchange      EXHF   =         0.00000000
  -V(xc)+E(xc)   XCENC  =       -33.27694442
  PAW double counting   =      1193.78262552    -1080.73714043
  entropy T*S    EENTRO =        -0.00000005
  eigenvalues    EBANDS =      -103.99660919
  atomic energy  EATOM  =      1448.49460871
  Solvation  Ediel_sol  =         0.00000000
  ---------------------------------------------------
  free energy    TOTEN  =       -34.01573116 eV

  energy without entropy =      -34.01573111  energy(sigma->0) =      -34.01573114


--------------------------------------------------------------------------------------------------------




--------------------------------------- Iteration      1(   6)  ---------------------------------------


    POTLOK:  cpu time      0.0102: real time      0.0103
    SETDIJ:  cpu time      0.2171: real time      0.2178
     EDDAV:  cpu time      0.4467: real time      0.4496
       DOS:  cpu time      0.0009: real time      0.0009
    CHARGE:  cpu time      0.0087: real time      0.0088
    MIXING:  cpu time      0.0006: real time      0.0006
    --------------------------------------------
      LOOP:  cpu time      0.6842: real time      0.6880

 eigenvalue-minimisations  :  3376
 total energy-change (2. order) : 0.3468339E+00  (-0.6949378E-01)
 number of electron      39.9999994 magnetization 
 augmentation part       -7.3390451 magnetization 

 Broyden mixing:
  rms(total) = 0.40451E+00    rms(broyden)= 0.40451E+00
  rms(prec ) = 0.42570E+00
  weight for this iteration     100.00

 eigenvalues of (default mixing * dielectric matrix)
  average eigenvalue GAMMA=   2.2308
  2.2308

 Free energy of the ion-electron system (eV)
  ---------------------------------------------------
  alpha Z        PSCENC =        87.52689448
  Ewald energy   TEWEN  =     -1416.42607069
  -Hartree energ DENC   =      -134.84717659
  -exchange      EXHF   =         0.00000000
  -V(xc)+E(xc)   XCENC  =       -32.67988570
  PAW double counting   =      1459.27340023    -1346.55391281
  entropy T*S    EENTRO =        -0.00000279
  eigenvalues    EBANDS =       -98.45675212
  atomic energy  EATOM  =      1448.49460871
  Solvation  Ediel_sol  =         0.00000000
  ---------------------------------------------------
  free energy    TOTEN  =       -33.66889728 eV

  energy without entropy =      -33.66889449  energy(sigma->0) =      -33.66889589


--------------------------------------------------------------------------------------------------------




--------------------------------------- Iteration      1(   7)  ---------------------------------------


    POTLOK:  cpu time      0.0102: real time      0.0103
    SETDIJ:  cpu time      0.2183: real time      0.2187
     EDDAV:  cpu time      0.4014: real time      0.4033
       DOS:  cpu time      0.0009: real time      0.0009
    CHARGE:  cpu time      0.0088: real time      0.0088
    MIXING:  cpu time      0.0006: real time      0.0006
    --------------------------------------------
      LOOP:  cpu time      0.6402: real time      0.6427

 eigenvalue-minimisations  :  2864
 total energy-change (2. order) : 0.1335006E-01  (-0.2109762E-01)
 number of electron      39.9999994 magnetization 
 augmentation part       -7.3254393 magnetization 

 Broyden mixing:
  rms(total) = 0.12080E+00    rms(broyden)= 0.12080E+00
  rms(prec ) = 0.12922E+00
  weight for this iteration     100.00

 eigenvalues of (default mixing * dielectric matrix)
  average eigenvalue GAMMA=   1.7824
  1.1885  2.3763

 Free energy of the ion-electron system (eV)
  ---------------------------------------------------
  alpha Z        PSCENC =        87.52689448
  Ewald energy   TEWEN  =     -1416.42607069
  -Hartree energ DENC   =      -137.53325379
  -exchange      EXHF   =         0.00000000
  -V(xc)+E(xc)   XCENC  =       -32.19362012
  PAW double counting   =      1795.36199840    -1682.89969389
  entropy T*S    EENTRO =        -0.00000983
  eigenvalues    EBANDS =       -95.98640048
  atomic energy  EATOM  =      1448.49460871
  Solvation  Ediel_sol  =         0.00000000
  ---------------------------------------------------
  free energy    TOTEN  =       -33.65554722 eV

  energy without entropy =      -33.65553739  energy(sigma->0) =      -33.65554230


--------------------------------------------------------------------------------------------------------




--------------------------------------- Iteration      1(   8)  ---------------------------------------


    POTLOK:  cpu time      0.0101: real time      0.0103
    SETDIJ:  cpu time      0.2188: real time      0.2193
     EDDAV:  cpu time      0.4952: real time      0.4972
       DOS:  cpu time      0.0009: real time      0.0009
    CHARGE:  cpu time      0.0088: real time      0.0088
    MIXING:  cpu time      0.0006: real time      0.0006
    --------------------------------------------
      LOOP:  cpu time      0.7344: real time      0.7371

 eigenvalue-minimisations  :  3200
 total energy-change (2. order) : 0.1435182E-02  (-0.1956829E-02)
 number of electron      39.9999994 magnetization 
 augmentation part       -7.3325551 magnetization 

 Broyden mixing:
  rms(total) = 0.17806E-01    rms(broyden)= 0.17806E-01
  rms(prec ) = 0.21207E-01
  weight for this iteration     100.00

 eigenvalues of (default mixing * dielectric matrix)
  average eigenvalue GAMMA=   1.7087
  2.5150  1.3056  1.3056

 Free energy of the ion-electron system (eV)
  ---------------------------------------------------
  alpha Z        PSCENC =        87.52689448
  Ewald energy   TEWEN  =     -1416.42607069
  -Hartree energ DENC   =      -137.65006794
  -exchange      EXHF   =         0.00000000
  -V(xc)+E(xc)   XCENC  =       -32.06101970
  PAW double counting   =      1925.01143020    -1812.61106812
  entropy T*S    EENTRO =        -0.00001053
  eigenvalues    EBANDS =       -95.93880845
  atomic energy  EATOM  =      1448.49460871
  Solvation  Ediel_sol  =         0.00000000
  ---------------------------------------------------
  free energy    TOTEN  =       -33.65411204 eV

  energy without entropy =      -33.65410151  energy(sigma->0) =      -33.65410677


--------------------------------------------------------------------------------------------------------




--------------------------------------- Iteration      1(   9)  ---------------------------------------


    POTLOK:  cpu time      0.0102: real time      0.0104
    SETDIJ:  cpu time      0.2179: real time      0.2186
     EDDAV:  cpu time      0.4597: real time      0.4616
       DOS:  cpu time      0.0009: real time      0.0009
    CHARGE:  cpu time      0.0333: real time      0.0334
    MIXING:  cpu time      0.0006: real time      0.0006
    --------------------------------------------
      LOOP:  cpu time      0.7226: real time      0.7255

 eigenvalue-minimisations  :  3392
 total energy-change (2. order) :-0.3792977E-03  (-0.2833541E-03)
 number of electron      39.9999994 magnetization 
 augmentation part       -7.3317294 magnetization 

 Broyden mixing:
  rms(total) = 0.66362E-02    rms(broyden)= 0.66362E-02
  rms(prec ) = 0.73014E-02
  weight for this iteration     100.00

 eigenvalues of (default mixing * dielectric matrix)
  average eigenvalue GAMMA=   1.7255
  2.2718  2.2718  1.1792  1.1792

 Free energy of the ion-electron system (eV)
  ---------------------------------------------------
  alpha Z        PSCENC =        87.52689448
  Ewald energy   TEWEN  =     -1416.42607069
  -Hartree energ DENC   =      -137.94560367
  -exchange      EXHF   =         0.00000000
  -V(xc)+E(xc)   XCENC  =       -32.02068679
  PAW double counting   =      1940.09052851    -1827.70021706
  entropy T*S    EENTRO =        -0.00001037
  eigenvalues    EBANDS =       -95.67393446
  atomic energy  EATOM  =      1448.49460871
  Solvation  Ediel_sol  =         0.00000000
  ---------------------------------------------------
  free energy    TOTEN  =       -33.65449134 eV

  energy without entropy =      -33.65448097  energy(sigma->0) =      -33.65448615


--------------------------------------------------------------------------------------------------------




--------------------------------------- Iteration      1(  10)  ---------------------------------------


    POTLOK:  cpu time      0.0100: real time      0.0101
    SETDIJ:  cpu time      0.2188: real time      0.2192
     EDDAV:  cpu time      0.5269: real time      0.5295
       DOS:  cpu time      0.0010: real time      0.0010
    CHARGE:  cpu time      0.0081: real time      0.0083
    MIXING:  cpu time      0.0006: real time      0.0006
    --------------------------------------------
      LOOP:  cpu time      0.7654: real time      0.7686

 eigenvalue-minimisations  :  3344
 total energy-change (2. order) :-0.9128692E-04  (-0.2162481E-04)
 number of electron      39.9999994 magnetization 
 augmentation part       -7.3316326 magnetization 

 Broyden mixing:
  rms(total) = 0.24087E-02    rms(broyden)= 0.24087E-02
  rms(prec ) = 0.29285E-02
  weight for this iteration     100.00

 eigenvalues of (default mixing * dielectric matrix)
  average eigenvalue GAMMA=   1.7373
  2.6903  2.3122  1.1708  1.2566  1.2566

 Free energy of the ion-electron system (eV)
  ---------------------------------------------------
  alpha Z        PSCENC =        87.52689448
  Ewald energy   TEWEN  =     -1416.42607069
  -Hartree energ DENC   =      -137.98092772
  -exchange      EXHF   =         0.00000000
  -V(xc)+E(xc)   XCENC  =       -32.01768776
  PAW double counting   =      1933.15275827    -1820.75731556
  entropy T*S    EENTRO =        -0.00000976
  eigenvalues    EBANDS =       -95.64683259
  atomic energy  EATOM  =      1448.49460871
  Solvation  Ediel_sol  =         0.00000000
  ---------------------------------------------------
  free energy    TOTEN  =       -33.65458262 eV

  energy without entropy =      -33.65457286  energy(sigma->0) =      -33.65457774


--------------------------------------------------------------------------------------------------------




--------------------------------------- Iteration      1(  11)  ---------------------------------------


    POTLOK:  cpu time      0.0102: real time      0.0103
    SETDIJ:  cpu time      0.2194: real time      0.2197
     EDDAV:  cpu time      0.4271: real time      0.4288
       DOS:  cpu time      0.0009: real time      0.0009
    CHARGE:  cpu time      0.0084: real time      0.0086
    MIXING:  cpu time      0.0007: real time      0.0007
    --------------------------------------------
      LOOP:  cpu time      0.6666: real time      0.6690

 eigenvalue-minimisations  :  3072
 total energy-change (2. order) :-0.2730836E-04  (-0.3628671E-05)
 number of electron      39.9999994 magnetization 
 augmentation part       -7.3317632 magnetization 

 Broyden mixing:
  rms(total) = 0.11692E-02    rms(broyden)= 0.11692E-02
  rms(prec ) = 0.12714E-02
  weight for this iteration     100.00

 eigenvalues of (default mixing * dielectric matrix)
  average eigenvalue GAMMA=   1.7120
  2.5670  2.2089  2.2089  1.1981  1.1981  0.8909

 Free energy of the ion-electron system (eV)
  ---------------------------------------------------
  alpha Z        PSCENC =        87.52689448
  Ewald energy   TEWEN  =     -1416.42607069
  -Hartree energ DENC   =      -138.01106748
  -exchange      EXHF   =         0.00000000
  -V(xc)+E(xc)   XCENC  =       -32.01100263
  PAW double counting   =      1935.05617863    -1822.66137402
  entropy T*S    EENTRO =        -0.00000971
  eigenvalues    EBANDS =       -95.62276722
  atomic energy  EATOM  =      1448.49460871
  Solvation  Ediel_sol  =         0.00000000
  ---------------------------------------------------
  free energy    TOTEN  =       -33.65460993 eV

  energy without entropy =      -33.65460022  energy(sigma->0) =      -33.65460508


--------------------------------------------------------------------------------------------------------




--------------------------------------- Iteration      1(  12)  ---------------------------------------


    POTLOK:  cpu time      0.0103: real time      0.0104
    SETDIJ:  cpu time      0.2190: real time      0.2195
     EDDAV:  cpu time      0.4680: real time      0.4705
       DOS:  cpu time      0.0009: real time      0.0009
    CHARGE:  cpu time      0.0104: real time      0.0104
    MIXING:  cpu time      0.0008: real time      0.0008
    --------------------------------------------
      LOOP:  cpu time      0.7094: real time      0.7125

 eigenvalue-minimisations  :  3472
 total energy-change (2. order) :-0.1005456E-05  (-0.4501622E-06)
 number of electron      39.9999994 magnetization 
 augmentation part       -7.3316651 magnetization 

 Broyden mixing:
  rms(total) = 0.34854E-03    rms(broyden)= 0.34854E-03
  rms(prec ) = 0.39628E-03
  weight for this iteration     100.00

 eigenvalues of (default mixing * dielectric matrix)
  average eigenvalue GAMMA=   1.7040
  2.9055  2.4434  1.9153  0.9767  1.3389  1.1742  1.1742

 Free energy of the ion-electron system (eV)
  ---------------------------------------------------
  alpha Z        PSCENC =        87.52689448
  Ewald energy   TEWEN  =     -1416.42607069
  -Hartree energ DENC   =      -138.02383254
  -exchange      EXHF   =         0.00000000
  -V(xc)+E(xc)   XCENC  =       -32.01016123
  PAW double counting   =      1934.38428363    -1821.98925443
  entropy T*S    EENTRO =        -0.00000978
  eigenvalues    EBANDS =       -95.61106909
  atomic energy  EATOM  =      1448.49460871
  Solvation  Ediel_sol  =         0.00000000
  ---------------------------------------------------
  free energy    TOTEN  =       -33.65461094 eV

  energy without entropy =      -33.65460116  energy(sigma->0) =      -33.65460605


--------------------------------------------------------------------------------------------------------




--------------------------------------- Iteration      1(  13)  ---------------------------------------


    POTLOK:  cpu time      0.0178: real time      0.0179
    SETDIJ:  cpu time      0.2122: real time      0.2128
     EDDAV:  cpu time      0.3298: real time      0.3314
       DOS:  cpu time      0.0009: real time      0.0009
    --------------------------------------------
      LOOP:  cpu time      0.5607: real time      0.5630

 eigenvalue-minimisations  :  1968
 total energy-change (2. order) :-0.2575509E-06  (-0.9569322E-07)
 number of electron      39.9999994 magnetization 
 augmentation part       -7.3316651 magnetization 

 Free energy of the ion-electron system (eV)
  ---------------------------------------------------
  alpha Z        PSCENC =        87.52689448
  Ewald energy   TEWEN  =     -1416.42607069
  -Hartree energ DENC   =      -138.02808596
  -exchange      EXHF   =         0.00000000
  -V(xc)+E(xc)   XCENC  =       -32.00967760
  PAW double counting   =      1934.13808608    -1821.74283647
  entropy T*S    EENTRO =        -0.00000977
  eigenvalues    EBANDS =       -95.60751997
  atomic energy  EATOM  =      1448.49460871
  Solvation  Ediel_sol  =         0.00000000
  ---------------------------------------------------
  free energy    TOTEN  =       -33.65461119 eV

  energy without entropy =      -33.65460142  energy(sigma->0) =      -33.65460631


--------------------------------------------------------------------------------------------------------




 average (electrostatic) potential at core
  the test charge radii are     1.1631  1.0808
  (the norm of the test charge is              1.0000)
       1 -33.4983       2 -33.4983       3 -33.4983       4 -33.4983       5 -54.9987
       6 -54.9987       7 -54.9987       8 -54.9987
 
 
 
 E-fermi :   3.3977     XC(G=0):  -9.2749     alpha+bet : -8.7197

 Fermi energy:         3.3976630626

 k-point     1 :       0.0000    0.0000    0.0000
  band No.  band energies     occupation 
      1     -10.9941      2.00000
      2     -10.6660      2.00000
      3      -9.7263      2.00000
      4      -9.2650      2.00000
      5      -5.0190      2.00000
      6      -3.9868      2.00000
      7      -3.1848      2.00000
      8      -2.2708      2.00000
      9      -1.7090      2.00000
     10      -0.4613      2.00000
     11       0.0849      2.00000
     12       0.1388      2.00000
     13       0.2474      2.00000
     14       0.4835      2.00000
     15       1.2339      2.00000
     16       1.3338      2.00000
     17       1.8617      2.00000
     18       2.3607      2.00000
     19       2.5697      2.00000
     20       2.6227      2.00000
     21       3.5027      0.00297
     22       5.8146      0.00000
     23       5.8250      0.00000
     24       5.9001      0.00000
     25       5.9997      0.00000
     26       6.8258      0.00000
     27       7.2916      0.00000
     28       7.8814      0.00000
     29       8.1980      0.00000
     30       8.5394      0.00000
     31       8.7163      0.00000
     32       9.3972      0.00000

 k-point     2 :       0.1667    0.0000    0.0000
  band No.  band energies     occupation 
      1     -10.8031      2.00000
      2     -10.4885      2.00000
      3      -9.6091      2.00000
      4      -9.1993      2.00000
      5      -5.2807      2.00000
      6      -4.1816      2.00000
      7      -3.5546      2.00000
      8      -2.6050      2.00000
      9      -1.7485      2.00000
     10      -0.3985      2.00000
     11      -0.0404      2.00000
     12       0.0750      2.00000
     13       0.3434      2.00000
     14       0.4157      2.00000
     15       0.9400      2.00000
     16       1.4799      2.00000
     17       1.8410      2.00000
     18       2.2650      2.00000
     19       2.4762      2.00000
     20       2.6945      2.00000
     21       3.7010      0.00000
     22       5.2048      0.00000
     23       5.9111      0.00000
     24       6.4847      0.00000
     25       6.5708      0.00000
     26       6.5759      0.00000
     27       6.7662      0.00000
     28       7.4888      0.00000
     29       7.6465      0.00000
     30       7.7545      0.00000
     31       8.5819      0.00000
     32       9.1062      0.00000

 k-point     3 :       0.3333    0.0000    0.0000
  band No.  band energies     occupation 
      1     -10.2837      2.00000
      2     -10.0122      2.00000
      3      -9.4304      2.00000
      4      -9.1560      2.00000
      5      -5.7789      2.00000
      6      -4.6604      2.00000
      7      -4.5466      2.00000
      8      -3.5270      2.00000
      9      -1.3288      2.00000
     10      -0.3900      2.00000
     11       0.0861      2.00000
     12       0.4221      2.00000
     13       0.6057      2.00000
     14       0.8792      2.00000
     15       0.9734      2.00000
     16       1.3307      2.00000
     17       1.5226      2.00000
     18       2.1466      2.00000
     19       2.5270      2.00000
     20       2.5852      2.00000
     21       4.0671      0.00000
     22       4.1881      0.00000
     23       4.7990      0.00000
     24       5.2697      0.00000
     25       5.6754      0.00000
     26       5.8024      0.00000
     27       5.9502      0.00000
     28       6.7021      0.00000
     29       6.8254      0.00000
     30       6.9554      0.00000
     31       8.7687      0.00000
     32       9.3989      0.00000

 k-point     4 :       0.5000    0.0000    0.0000
  band No.  band energies     occupation 
      1      -9.6655      2.00000
      2      -9.6655      2.00000
      3      -9.4488      2.00000
      4      -9.4488      2.00000
      5      -5.6463      2.00000
      6      -5.6463      2.00000
      7      -4.3866      2.00000
      8      -4.3866      2.00000
      9      -0.5696      2.00000
     10      -0.5696      2.00000
     11       0.5723      2.00000
     12       0.5723      2.00000
     13       0.7668      2.00000
     14       0.7668      2.00000
     15       1.2609      2.00000
     16       1.2609      2.00000
     17       1.6241      2.00000
     18       1.6241      2.00000
     19       2.4009      2.00000
     20       2.4009      2.00000
     21       4.2098      0.00000
     22       4.2098      0.00000
     23       4.7978      0.00000
     24       4.7978      0.00000
     25       5.0368      0.00000
     26       5.0368      0.00000
     27       5.7747      0.00000
     28       5.7747      0.00000
     29       6.0352      0.00000
     30       6.0352      0.00000
     31       9.0779      0.00000
     32       9.0779      0.00000

 k-point     5 :       0.0000    0.1667    0.0000
  band No.  band energies     occupation 
      1     -10.8755      2.00000
      2     -10.5637      2.00000
      3      -9.7248      2.00000
      4      -9.3417      2.00000
      5      -5.1947      2.00000
      6      -4.2386      2.00000
      7      -3.6867      2.00000
      8      -2.6449      2.00000
      9      -1.7028      2.00000
     10      -0.0063      2.00000
     11       0.2523      2.00000
     12       0.4869      2.00000
     13       0.5750      2.00000
     14       0.6251      2.00000
     15       1.3610      2.00000
     16       1.6922      2.00000
     17       1.8130      2.00000
     18       1.9841      2.00000
     19       2.6129      2.00000
     20       2.9776      2.00000
     21       3.8555      0.00000
     22       5.0734      0.00000
     23       5.7883      0.00000
     24       5.8370      0.00000
     25       6.1104      0.00000
     26       6.4461      0.00000
     27       6.8250      0.00000
     28       7.5828      0.00000
     29       7.6429      0.00000
     30       8.2159      0.00000
     31       8.3441      0.00000
     32       9.2294      0.00000

 k-point     6 :       0.1667    0.1667    0.0000
  band No.  band energies     occupation 
      1     -10.6886      2.00000
      2     -10.3929      2.00000
      3      -9.6066      2.00000
      4      -9.2726      2.00000
      5      -5.3354      2.00000
      6      -4.3105      2.00000
      7      -3.9239      2.00000
      8      -2.8444      2.00000
      9      -1.5766      2.00000
     10      -0.7764      2.00000
     11      -0.4782      2.00000
     12       0.2024      2.00000
     13       0.8621      2.00000
     14       0.9443      2.00000
     15       1.1629      2.00000
     16       1.2310      2.00000
     17       1.6360      2.00000
     18       2.3678      2.00000
     19       2.5973      2.00000
     20       2.9579      2.00000
     21       4.0299      0.00000
     22       5.0514      0.00000
     23       5.3789      0.00000
     24       5.8736      0.00000
     25       6.4809      0.00000
     26       6.5820      0.00000
     27       7.1602      0.00000
     28       7.3904      0.00000
     29       7.3973      0.00000
     30       7.6777      0.00000
     31       8.3887      0.00000
     32       9.2017      0.00000

 k-point     7 :       0.1667   -0.1667    0.0000
  band No.  band energies     occupation 
      1     -10.6905      2.00000
      2     -10.3913      2.00000
      3      -9.6107      2.00000
      4      -9.2670      2.00000
      5      -5.3603      2.00000
      6      -4.2817      2.00000
      7      -3.8190      2.00000
      8      -3.0045      2.00000
      9      -1.5755      2.00000
     10      -0.6999      2.00000
     11      -0.5961      2.00000
     12       0.2799      2.00000
     13       0.8540      2.00000
     14       0.9950      2.00000
     15       1.1829      2.00000
     16       1.2379      2.00000
     17       1.8004      2.00000
     18       2.2450      2.00000
     19       2.6815      2.00000
     20       2.6929      2.00000
     21       4.0433      0.00000
     22       5.1477      0.00000
     23       5.4637      0.00000
     24       5.7460      0.00000
     25       6.4361      0.00000
     26       6.6751      0.00000
     27       6.6997      0.00000
     28       7.4906      0.00000
     29       7.6477      0.00000
     30       7.8357      0.00000
     31       8.5707      0.00000
     32       9.2338      0.00000

 k-point     8 :       0.3333    0.1667    0.0000
  band No.  band energies     occupation 
      1     -10.1877      2.00000
      2      -9.9396      2.00000
      3      -9.4186      2.00000
      4      -9.2008      2.00000
      5      -5.6765      2.00000
      6      -4.7300      2.00000
      7      -4.5055      2.00000
      8      -3.5627      2.00000
      9      -1.1832      2.00000
     10      -0.9878      2.00000
     11      -0.7928      2.00000
     12       0.1005      2.00000
     13       0.6135      2.00000
     14       0.7556      2.00000
     15       0.8422      2.00000
     16       1.2634      2.00000
     17       1.6504      2.00000
     18       1.8698      2.00000
     19       2.2648      2.00000
     20       2.7663      2.00000
     21       4.1399      0.00000
     22       4.8883      0.00000
     23       4.9360      0.00000
     24       5.4296      0.00000
     25       5.7753      0.00000
     26       6.3527      0.00000
     27       6.6742      0.00000
     28       6.8573      0.00000
     29       7.3790      0.00000
     30       8.0191      0.00000
     31       8.4459      0.00000
     32       9.2925      0.00000

 k-point     9 :       0.3333   -0.1667    0.0000
  band No.  band energies     occupation 
      1     -10.1918      2.00000
      2      -9.9363      2.00000
      3      -9.4266      2.00000
      4      -9.1894      2.00000
      5      -5.7185      2.00000
      6      -4.6449      2.00000
      7      -4.4571      2.00000
      8      -3.6757      2.00000
      9      -1.1986      2.00000
     10      -0.9550      2.00000
     11      -0.8789      2.00000
     12       0.1331      2.00000
     13       0.5379      2.00000
     14       0.8464      2.00000
     15       1.0547      2.00000
     16       1.2229      2.00000
     17       1.6721      2.00000
     18       1.9378      2.00000
     19       2.3369      2.00000
     20       2.3772      2.00000
     21       4.2173      0.00000
     22       4.9179      0.00000
     23       5.0052      0.00000
     24       5.3818      0.00000
     25       5.5620      0.00000
     26       6.3661      0.00000
     27       6.3945      0.00000
     28       7.2601      0.00000
     29       7.6347      0.00000
     30       8.1482      0.00000
     31       8.7167      0.00000
     32       8.8698      0.00000

 k-point    10 :       0.5000    0.1667    0.0000
  band No.  band energies     occupation 
      1      -9.6159      2.00000
      2      -9.6148      2.00000
      3      -9.4244      2.00000
      4      -9.4231      2.00000
      5      -5.5881      2.00000
      6      -5.5370      2.00000
      7      -4.3612      2.00000
      8      -4.3021      2.00000
      9      -0.7007      2.00000
     10      -0.6451      2.00000
     11      -0.1999      2.00000
     12      -0.1888      2.00000
     13       0.1655      2.00000
     14       0.3791      2.00000
     15       0.7117      2.00000
     16       0.7133      2.00000
     17       1.6717      2.00000
     18       1.7606      2.00000
     19       2.3710      2.00000
     20       2.5830      2.00000
     21       4.3047      0.00000
     22       4.3272      0.00000
     23       5.1155      0.00000
     24       5.1689      0.00000
     25       6.0350      0.00000
     26       6.3297      0.00000
     27       6.3868      0.00000
     28       6.4019      0.00000
     29       6.9412      0.00000
     30       7.0759      0.00000
     31       8.3880      0.00000
     32       8.9673      0.00000

 k-point    11 :       0.0000    0.3333    0.0000
  band No.  band energies     occupation 
      1     -10.5461      2.00000
      2     -10.2900      2.00000
      3      -9.7950      2.00000
      4      -9.5957      2.00000
      5      -5.4125      2.00000
      6      -4.5796      2.00000
      7      -4.4793      2.00000
      8      -3.5210      2.00000
      9      -1.2853      2.00000
     10       0.3513      2.00000
     11       0.6365      2.00000
     12       0.8949      2.00000
     13       1.0524      2.00000
     14       1.2349      2.00000
     15       1.3692      2.00000
     16       1.6984      2.00000
     17       1.7375      2.00000
     18       2.6782      2.00000
     19       2.8171      2.00000
     20       3.2853      1.99852
     21       4.1615      0.00000
     22       4.6566      0.00000
     23       4.9949      0.00000
     24       5.4210      0.00000
     25       5.8966      0.00000
     26       6.0505      0.00000
     27       6.2633      0.00000
     28       6.6738      0.00000
     29       6.7853      0.00000
     30       7.2640      0.00000
     31       8.4639      0.00000
     32       9.0958      0.00000

 k-point    12 :       0.1667    0.3333    0.0000
  band No.  band energies     occupation 
      1     -10.3742      2.00000
      2     -10.1383      2.00000
      3      -9.6702      2.00000
      4      -9.5066      2.00000
      5      -5.3829      2.00000
      6      -4.6124      2.00000
      7      -4.4243      2.00000
      8      -3.5264      2.00000
      9      -1.0887      2.00000
     10      -0.7794      2.00000
     11      -0.4653      2.00000
     12       0.1169      2.00000
     13       0.4662      2.00000
     14       0.6012      2.00000
     15       1.3533      2.00000
     16       1.7099      2.00000
     17       2.1475      2.00000
     18       2.2664      2.00000
     19       2.7060      2.00000
     20       3.0199      2.00000
     21       4.5120      0.00000
     22       5.2129      0.00000
     23       5.3703      0.00000
     24       5.7639      0.00000
     25       5.9268      0.00000
     26       6.3940      0.00000
     27       6.7586      0.00000
     28       7.1460      0.00000
     29       7.3062      0.00000
     30       7.9641      0.00000
     31       8.3689      0.00000
     32       9.1526      0.00000

 k-point    13 :       0.1667   -0.3333    0.0000
  band No.  band energies     occupation 
      1     -10.3781      2.00000
      2     -10.1351      2.00000
      3      -9.6761      2.00000
      4      -9.4988      2.00000
      5      -5.4233      2.00000
      6      -4.5278      2.00000
      7      -4.3816      2.00000
      8      -3.6311      2.00000
      9      -1.1449      2.00000
     10      -0.6908      2.00000
     11      -0.5793      2.00000
     12       0.2468      2.00000
     13       0.3770      2.00000
     14       0.7494      2.00000
     15       1.3093      2.00000
     16       1.8270      2.00000
     17       1.9286      2.00000
     18       2.4059      2.00000
     19       2.6930      2.00000
     20       2.9086      2.00000
     21       4.5434      0.00000
     22       5.1772      0.00000
     23       5.5340      0.00000
     24       5.7454      0.00000
     25       5.7743      0.00000
     26       6.2723      0.00000
     27       6.7024      0.00000
     28       7.2729      0.00000
     29       7.5336      0.00000
     30       7.8428      0.00000
     31       8.6617      0.00000
     32       8.8368      0.00000

 k-point    14 :       0.3333    0.3333    0.0000
  band No.  band energies     occupation 
      1      -9.9339      2.00000
      2      -9.7533      2.00000
      3      -9.4348      2.00000
      4      -9.3471      2.00000
      5      -5.4320      2.00000
      6      -4.9087      2.00000
      7      -4.3730      2.00000
      8      -3.7738      2.00000
      9      -1.5329      2.00000
     10      -1.2569      2.00000
     11      -0.8300      2.00000
     12      -0.5713      2.00000
     13      -0.4185      2.00000
     14       0.3654      2.00000
     15       0.4337      2.00000
     16       0.8097      2.00000
     17       1.1570      2.00000
     18       1.9872      2.00000
     19       2.1951      2.00000
     20       2.7421      2.00000
     21       4.4447      0.00000
     22       5.6459      0.00000
     23       5.7289      0.00000
     24       6.4640      0.00000
     25       6.8783      0.00000
     26       7.0354      0.00000
     27       7.3760      0.00000
     28       7.7508      0.00000
     29       7.9373      0.00000
     30       8.7197      0.00000
     31       8.8170      0.00000
     32       9.2516      0.00000

 k-point    15 :       0.3333   -0.3333    0.0000
  band No.  band energies     occupation 
      1      -9.9420      2.00000
      2      -9.7472      2.00000
      3      -9.4494      2.00000
      4      -9.3283      2.00000
      5      -5.5149      2.00000
      6      -4.7705      2.00000
      7      -4.2767      2.00000
      8      -3.9441      2.00000
      9      -1.4441      2.00000
     10      -1.3938      2.00000
     11      -0.9237      2.00000
     12      -0.5505      2.00000
     13      -0.3304      2.00000
     14       0.2290      2.00000
     15       0.6935      2.00000
     16       0.8991      2.00000
     17       1.1998      2.00000
     18       1.8886      2.00000
     19       2.3289      2.00000
     20       2.4052      2.00000
     21       4.3922      0.00000
     22       5.8241      0.00000
     23       5.9781      0.00000
     24       6.1565      0.00000
     25       6.6440      0.00000
     26       7.0824      0.00000
     27       7.5977      0.00000
     28       7.8914      0.00000
     29       8.2191      0.00000
     30       8.4922      0.00000
     31       8.9903      0.00000
     32       9.1592      0.00000

 k-point    16 :       0.5000    0.3333    0.0000
  band No.  band energies     occupation 
      1      -9.5010      2.00000
      2      -9.4985      2.00000
      3      -9.3839      2.00000
      4      -9.3822      2.00000
      5      -5.4292      2.00000
      6      -5.3210      2.00000
      7      -4.2898      2.00000
      8      -4.1629      2.00000
      9      -1.0742      2.00000
     10      -1.0498      2.00000
     11      -0.9615      2.00000
     12      -0.9258      2.00000
     13      -0.5440      2.00000
     14      -0.4461      2.00000
     15       0.1087      2.00000
     16       0.2298      2.00000
     17       1.1477      2.00000
     18       1.2446      2.00000
     19       2.0881      2.00000
     20       2.5447      2.00000
     21       4.9248      0.00000
     22       5.0941      0.00000
     23       6.6719      0.00000
     24       6.7821      0.00000
     25       6.9527      0.00000
     26       7.0752      0.00000
     27       7.4103      0.00000
     28       7.9918      0.00000
     29       8.4445      0.00000
     30       8.4616      0.00000
     31       8.7582      0.00000
     32       9.0754      0.00000

 k-point    17 :       0.0000    0.5000    0.0000
  band No.  band energies     occupation 
      1     -10.1033      2.00000
      2     -10.1033      2.00000
      3      -9.9449      2.00000
      4      -9.9449      2.00000
      5      -5.2376      2.00000
      6      -5.2376      2.00000
      7      -4.2315      2.00000
      8      -4.2315      2.00000
      9      -0.5433      2.00000
     10      -0.5433      2.00000
     11       1.1026      2.00000
     12       1.1026      2.00000
     13       1.3624      2.00000
     14       1.3624      2.00000
     15       1.7805      2.00000
     16       1.7805      2.00000
     17       2.2643      2.00000
     18       2.2643      2.00000
     19       2.9588      2.00000
     20       2.9588      2.00000
     21       4.6053      0.00000
     22       4.6053      0.00000
     23       5.1994      0.00000
     24       5.1994      0.00000
     25       5.6225      0.00000
     26       5.6225      0.00000
     27       6.0145      0.00000
     28       6.0145      0.00000
     29       6.4945      0.00000
     30       6.4945      0.00000
     31       8.8553      0.00000
     32       8.8553      0.00000

 k-point    18 :       0.1667    0.5000    0.0000
  band No.  band energies     occupation 
      1      -9.9601      2.00000
      2      -9.9571      2.00000
      3      -9.8219      2.00000
      4      -9.8201      2.00000
      5      -5.1950      2.00000
      6      -5.1396      2.00000
      7      -4.1931      2.00000
      8      -4.1336      2.00000
      9      -0.5589      2.00000
     10      -0.4870      2.00000
     11      -0.2601      2.00000
     12      -0.2077      2.00000
     13       0.0633      2.00000
     14       0.1469      2.00000
     15       1.4852      2.00000
     16       1.6287      2.00000
     17       2.1773      2.00000
     18       2.4584      2.00000
     19       2.9460      2.00000
     20       2.9469      2.00000
     21       4.7605      0.00000
     22       4.7901      0.00000
     23       5.6757      0.00000
     24       5.8867      0.00000
     25       6.1243      0.00000
     26       6.4218      0.00000
     27       6.8272      0.00000
     28       6.9383      0.00000
     29       7.3605      0.00000
     30       7.4855      0.00000
     31       8.4678      0.00000
[...]
     32       8.5159      0.00000

 k-point    32 :       0.1667    0.3333    0.5000
  band No.  band energies     occupation 
      1     -10.2742      2.00000
      2     -10.2742      2.00000
      3      -9.5697      2.00000
      4      -9.5697      2.00000
      5      -5.1162      2.00000
      6      -5.1162      2.00000
      7      -3.9069      2.00000
      8      -3.9069      2.00000
      9      -0.8273      2.00000
     10      -0.8273      2.00000
     11      -0.0648      2.00000
     12      -0.0648      2.00000
     13       0.4239      2.00000
     14       0.4239      2.00000
     15       1.4871      2.00000
     16       1.4871      2.00000
     17       2.2501      2.00000
     18       2.2501      2.00000
     19       2.5498      2.00000
     20       2.5498      2.00000
     21       5.1642      0.00000
     22       5.1642      0.00000
     23       5.6063      0.00000
     24       5.6063      0.00000
     25       6.1835      0.00000
     26       6.1835      0.00000
     27       6.8340      0.00000
     28       6.8340      0.00000
     29       7.8015      0.00000
     30       7.8015      0.00000
     31       8.6574      0.00000
     32       8.6574      0.00000

 k-point    33 :       0.1667   -0.3333    0.5000
  band No.  band energies     occupation 
      1     -10.2758      2.00000
      2     -10.2758      2.00000
      3      -9.5676      2.00000
      4      -9.5676      2.00000
      5      -5.1166      2.00000
      6      -5.1166      2.00000
      7      -3.9034      2.00000
      8      -3.9034      2.00000
      9      -0.8128      2.00000
     10      -0.8128      2.00000
     11      -0.1284      2.00000
     12      -0.1284      2.00000
     13       0.4284      2.00000
     14       0.4284      2.00000
     15       1.5561      2.00000
     16       1.5561      2.00000
     17       2.1779      2.00000
     18       2.1780      2.00000
     19       2.6046      2.00000
     20       2.6046      2.00000
     21       5.2255      0.00000
     22       5.2255      0.00000
     23       5.6412      0.00000
     24       5.6412      0.00000
     25       6.1286      0.00000
     26       6.1286      0.00000
     27       6.8046      0.00000
     28       6.8046      0.00000
     29       7.6260      0.00000
     30       7.6260      0.00000
     31       8.6796      0.00000
     32       8.6796      0.00000

 k-point    34 :       0.3333    0.3333    0.5000
  band No.  band energies     occupation 
      1      -9.8560      2.00000
      2      -9.8560      2.00000
      3      -9.3787      2.00000
      4      -9.3787      2.00000
      5      -5.2252      2.00000
      6      -5.2252      2.00000
      7      -4.0202      2.00000
      8      -4.0202      2.00000
      9      -1.5207      2.00000
     10      -1.5207      2.00000
     11      -0.7340      2.00000
     12      -0.7340      2.00000
     13       0.1240      2.00000
     14       0.1240      2.00000
     15       0.8936      2.00000
     16       0.8936      2.00000
     17       1.4634      2.00000
     18       1.4634      2.00000
     19       2.1029      2.00000
     20       2.1029      2.00000
     21       5.2625      0.00000
     22       5.2625      0.00000
     23       5.8518      0.00000
     24       5.8518      0.00000
     25       7.2756      0.00000
     26       7.2756      0.00000
     27       7.5021      0.00000
     28       7.5021      0.00000
     29       8.6147      0.00000
     30       8.6147      0.00000
     31       9.1650      0.00000
     32       9.1650      0.00000

 k-point    35 :       0.3333   -0.3333    0.5000
  band No.  band energies     occupation 
      1      -9.8597      2.00000
      2      -9.8597      2.00000
      3      -9.3741      2.00000
      4      -9.3741      2.00000
      5      -5.2286      2.00000
      6      -5.2286      2.00000
      7      -4.0138      2.00000
      8      -4.0138      2.00000
      9      -1.4902      2.00000
     10      -1.4902      2.00000
     11      -0.8053      2.00000
     12      -0.8053      2.00000
     13       0.1235      2.00000
     14       0.1235      2.00000
     15       0.9591      2.00000
     16       0.9591      2.00000
     17       1.3521      2.00000
     18       1.3521      2.00000
     19       2.2334      2.00000
     20       2.2334      2.00000
     21       5.1899      0.00000
     22       5.1899      0.00000
     23       5.8778      0.00000
     24       5.8778      0.00000
     25       7.1145      0.00000
     26       7.1145      0.00000
     27       7.6937      0.00000
     28       7.6937      0.00000
     29       8.3595      0.00000
     30       8.3595      0.00000
     31       9.4712      0.00000
     32       9.4712      0.00000

 k-point    36 :       0.5000    0.3333    0.5000
  band No.  band energies     occupation 
      1      -9.4940      2.00000
      2      -9.4940      2.00000
      3      -9.3895      2.00000
      4      -9.3895      2.00000
      5      -5.3752      2.00000
      6      -5.3752      2.00000
      7      -4.2129      2.00000
      8      -4.2129      2.00000
      9      -1.2721      2.00000
     10      -1.2721      2.00000
     11      -0.9694      2.00000
     12      -0.9694      2.00000
     13      -0.2997      2.00000
     14      -0.2997      2.00000
     15       0.2497      2.00000
     16       0.2497      2.00000
     17       1.5976      2.00000
     18       1.5976      2.00000
     19       1.7823      2.00000
     20       1.7823      2.00000
     21       4.9891      0.00000
     22       4.9891      0.00000
     23       6.7967      0.00000
     24       6.7967      0.00000
     25       6.9033      0.00000
     26       6.9033      0.00000
     27       7.9708      0.00000
     28       7.9708      0.00000
     29       8.4017      0.00000
     30       8.4017      0.00000
     31       9.2464      0.00000
     32       9.2464      0.00000

 k-point    37 :       0.0000    0.5000    0.5000
  band No.  band energies     occupation 
      1     -10.0917      2.00000
      2     -10.0917      2.00000
      3      -9.9585      2.00000
      4      -9.9585      2.00000
      5      -5.1198      2.00000
      6      -5.1198      2.00000
      7      -4.4260      2.00000
      8      -4.4260      2.00000
      9       0.1073      2.00000
     10       0.1073      2.00000
     11       0.7407      2.00000
     12       0.7407      2.00000
     13       1.1120      2.00000
     14       1.1120      2.00000
     15       1.3652      2.00000
     16       1.3652      2.00000
     17       2.5381      2.00000
     18       2.5381      2.00000
     19       3.0301      2.00000
     20       3.0301      2.00000
     21       4.6630      0.00000
     22       4.6630      0.00000
     23       4.8103      0.00000
     24       4.8103      0.00000
     25       6.0529      0.00000
     26       6.0529      0.00000
     27       6.2835      0.00000
     28       6.2835      0.00000
     29       6.7361      0.00000
     30       6.7361      0.00000
     31       8.2944      0.00000
     32       8.2944      0.00000

 k-point    38 :       0.1667    0.5000    0.5000
  band No.  band energies     occupation 
      1      -9.9468      2.00000
      2      -9.9468      2.00000
      3      -9.8345      2.00000
      4      -9.8345      2.00000
      5      -5.0846      2.00000
      6      -5.0846      2.00000
      7      -4.2991      2.00000
      8      -4.2991      2.00000
      9      -0.4963      2.00000
     10      -0.4963      2.00000
     11      -0.1971      2.00000
     12      -0.1971      2.00000
     13       0.5740      2.00000
     14       0.5740      2.00000
     15       1.0816      2.00000
     16       1.0816      2.00000
     17       2.3128      2.00000
     18       2.3128      2.00000
     19       2.5697      2.00000
     20       2.5697      2.00000
     21       5.5248      0.00000
     22       5.5248      0.00000
     23       5.7211      0.00000
     24       5.7211      0.00000
     25       5.9159      0.00000
     26       5.9159      0.00000
     27       7.2352      0.00000
     28       7.2352      0.00000
     29       7.3829      0.00000
     30       7.3829      0.00000
     31       8.5284      0.00000
     32       8.5284      0.00000

 k-point    39 :       0.3333    0.5000    0.5000
  band No.  band energies     occupation 
      1      -9.6095      2.00000
      2      -9.6095      2.00000
      3      -9.5552      2.00000
      4      -9.5552      2.00000
      5      -5.1495      2.00000
      6      -5.1495      2.00000
      7      -4.1039      2.00000
      8      -4.1039      2.00000
      9      -1.3934      2.00000
     10      -1.3934      2.00000
     11      -1.3358      2.00000
     12      -1.3358      2.00000
     13       0.1616      2.00000
     14       0.1616      2.00000
     15       0.5953      2.00000
     16       0.5953      2.00000
     17       1.5657      2.00000
     18       1.5657      2.00000
     19       1.7801      2.00000
     20       1.7801      2.00000
     21       5.2046      0.00000
     22       5.2046      0.00000
     23       7.1142      0.00000
     24       7.1142      0.00000
     25       7.2873      0.00000
     26       7.2873      0.00000
     27       8.2181      0.00000
     28       8.2181      0.00000
     29       8.7445      0.00000
     30       8.7445      0.00000
     31       9.0934      0.00000
     32       9.0934      0.00000

 k-point    40 :       0.5000    0.5000    0.5000
  band No.  band energies     occupation 
      1      -9.4043      2.00000
      2      -9.4043      2.00000
      3      -9.3971      2.00000
      4      -9.3971      2.00000
      5      -5.2959      2.00000
      6      -5.2959      2.00000
      7      -4.1073      2.00000
      8      -4.1073      2.00000
      9      -1.4796      2.00000
     10      -1.4796      2.00000
     11      -1.3104      2.00000
     12      -1.3104      2.00000
     13      -0.5878      2.00000
     14      -0.5878      2.00000
     15      -0.1843      2.00000
     16      -0.1843      2.00000
     17       1.6569      2.00000
     18       1.6569      2.00000
     19       1.8246      2.00000
     20       1.8246      2.00000
     21       4.7604      0.00000
     22       4.7604      0.00000
     23       7.5218      0.00000
     24       7.5218      0.00000
     25       7.9260      0.00000
     26       7.9260      0.00000
     27       8.2826      0.00000
     28       8.2826      0.00000
     29       8.9539      0.00000
     30       8.9539      0.00000
     31       9.6407      0.00000
     32       9.6407      0.00000


--------------------------------------------------------------------------------------------------------


 soft charge-density along one line, spin component            1
         0         1         2         3         4         5         6         7         8         9
 total charge-density along one line
 
 pseudopotential strength for first ion, spin component:            1
 14.531  18.130   0.040   0.040  -0.001   0.072   0.073  -0.002
 18.130  22.635   0.050   0.051  -0.001   0.091   0.092  -0.002
  0.040   0.050   3.228  -0.002   0.000   5.495  -0.003   0.000
  0.040   0.051  -0.002   3.225   0.000  -0.003   5.490   0.000
 -0.001  -0.001   0.000   0.000   3.229   0.000   0.000   5.497
  0.072   0.091   5.495  -0.003   0.000   9.412  -0.006   0.000
  0.073   0.092  -0.003   5.490   0.000  -0.006   9.404   0.000
 -0.002  -0.002   0.000   0.000   5.497   0.000   0.000   9.416
  0.000   0.000  -0.000   0.000   0.006  -0.000   0.000   0.013
 -0.004  -0.005   0.010   0.012   0.000   0.018   0.022   0.000
 -0.004  -0.005  -0.003   0.011   0.000  -0.007   0.019   0.000
  0.000   0.000   0.000  -0.000   0.010   0.000  -0.001   0.018
  0.001   0.002  -0.012  -0.000  -0.000  -0.021  -0.000  -0.000
 total augmentation occupancy for first ion, spin component:            1
  2.804  -0.750   0.375   0.266   0.007  -0.076  -0.040  -0.003   0.002  -0.021   0.012  -0.002   0.008
 -0.750   0.682  -0.452  -0.394  -0.000   0.074   0.057   0.001  -0.002   0.013  -0.003  -0.000  -0.004
  0.375  -0.452   1.241   0.018  -0.000  -0.203   0.011  -0.001  -0.000   0.039  -0.094  -0.001  -0.001
  0.266  -0.394   0.018   1.436  -0.013   0.011  -0.241   0.003  -0.001   0.003   0.064   0.006   0.000
  0.007  -0.000  -0.000  -0.013   1.257  -0.001   0.003  -0.217   0.147  -0.002   0.002   0.036  -0.000
 -0.076   0.074  -0.203   0.011  -0.001   0.037  -0.004   0.000  -0.000  -0.007   0.016   0.000   0.001
 -0.040   0.057   0.011  -0.241   0.003  -0.004   0.046  -0.001   0.000  -0.001  -0.011  -0.001   0.000
 -0.003   0.001  -0.001   0.003  -0.217   0.000  -0.001   0.042  -0.026   0.000  -0.000  -0.006   0.000
  0.002  -0.002  -0.000  -0.001   0.147  -0.000   0.000  -0.026   0.031   0.000   0.000   0.003   0.000
 -0.021   0.013   0.039   0.003  -0.002  -0.007  -0.001   0.000   0.000   0.014  -0.011   0.001   0.002
  0.012  -0.003  -0.094   0.064   0.002   0.016  -0.011  -0.000   0.000  -0.011   0.035  -0.001  -0.003
 -0.002  -0.000  -0.001   0.006   0.036   0.000  -0.001  -0.006   0.003   0.001  -0.001   0.011   0.000
  0.008  -0.004  -0.001   0.000  -0.000   0.001   0.000   0.000   0.000   0.002  -0.003   0.000   0.009


------------------------ aborting loop because EDIFF is reached ----------------------------------------


    CHARGE:  cpu time      0.0084: real time      0.0085
    FORLOC:  cpu time      0.0004: real time      0.0004
    FORNL :  cpu time      0.0519: real time      0.0522
    STRESS:  cpu time      0.4427: real time      0.4449
    FORCOR:  cpu time      0.0089: real time      0.0091
    FORHAR:  cpu time      0.0022: real time      0.0023
    MIXING:  cpu time      0.0022: real time      0.0022
    OFIELD:  cpu time      0.0000: real time      0.0000

  FORCE on cell =-STRESS in cart. coord.  units (eV):
  Direction    XX          YY          ZZ          XY          YZ          ZX
  --------------------------------------------------------------------------------------
  Alpha Z    87.52689    87.52689    87.52689
  Ewald    -435.31276  -495.28269  -485.83217     4.46701    -0.00000    -0.00000
  Hartree    64.45952    41.52096    32.05056     1.70601    -0.00000    -0.00000
  E(xc)    -141.34380  -141.40987  -141.64420     0.02098     0.00000     0.00000
  Local    -194.44827  -118.16856  -119.53371    -6.37628     0.00000     0.00000
  n-local   240.47873   239.94241   242.70255     0.06633    -0.00000    -0.00000
  augment   -11.43815   -11.87266   -12.14729    -0.03405    -0.00000    -0.00000
  Kinetic   390.96663   397.90869   399.58412     0.71419     0.00000     0.00000
  Fock        0.00000     0.00000     0.00000     0.00000     0.00000     0.00000
  -------------------------------------------------------------------------------------
  Total       0.88879     0.16518     2.70675     0.56421     0.00000     0.00000
  in kB       7.35567     1.36704    22.40131     4.66943     0.00001     0.00000
  external pressure =       10.37 kB  Pullay stress =        0.00 kB


 VOLUME and BASIS-vectors are now :
 -----------------------------------------------------------------------------
  energy-cutoff  :      520.00
  volume of cell :      193.59
      direct lattice vectors                 reciprocal lattice vectors
     3.858100176  0.000000000  0.000000000     0.259194929  0.000000000  0.000000000
     0.000000000  4.526575088  0.000000000     0.000000000  0.220917577  0.000000000
     0.000000000  0.000000000 11.085176468     0.000000000  0.000000000  0.090210562

  length of vectors
     3.858100176  4.526575088 11.085176468     0.259194929  0.220917577  0.090210562


 FORCES acting on ions
    electron-ion (+dipol)            ewald-force                    non-local-force                 convergence-correction
 -----------------------------------------------------------------------------------------------
   0.217E+00 0.173E+02 0.202E+02   -.951E-01 -.196E+02 -.229E+02   -.106E+00 0.229E+01 0.298E+01   0.416E-04 0.110E-03 -.581E-03
   0.217E+00 0.173E+02 -.202E+02   -.951E-01 -.196E+02 0.229E+02   -.106E+00 0.229E+01 -.298E+01   0.413E-04 0.110E-03 0.584E-03
   -.217E+00 -.173E+02 -.202E+02   0.951E-01 0.196E+02 0.229E+02   0.106E+00 -.229E+01 -.298E+01   -.417E-04 -.110E-03 0.580E-03
   -.217E+00 -.173E+02 0.202E+02   0.951E-01 0.196E+02 -.229E+02   0.106E+00 -.229E+01 0.298E+01   -.412E-04 -.110E-03 -.584E-03
   -.447E+00 -.182E+02 -.271E+02   0.365E+00 0.199E+02 0.286E+02   0.174E+00 -.167E+01 -.153E+01   -.951E-04 -.285E-03 0.851E-03
   -.447E+00 -.182E+02 0.271E+02   0.365E+00 0.199E+02 -.286E+02   0.174E+00 -.167E+01 0.153E+01   -.965E-04 -.285E-03 -.842E-03
   0.447E+00 0.182E+02 0.271E+02   -.365E+00 -.199E+02 -.286E+02   -.174E+00 0.167E+01 0.153E+01   0.949E-04 0.285E-03 -.850E-03
   0.447E+00 0.182E+02 -.271E+02   -.365E+00 -.199E+02 0.286E+02   -.174E+00 0.167E+01 -.153E+01   0.962E-04 0.285E-03 0.841E-03
 -----------------------------------------------------------------------------------------------
   0.127E-04 0.621E-05 -.943E-06   -.316E-14 0.000E+00 0.000E+00   0.137E-03 0.336E-03 -.301E-06   -.558E-06 0.665E-07 -.467E-06
 
 
 POSITION                                       TOTAL-FORCE (eV/Angst)
 -----------------------------------------------------------------------------------
      2.58605      3.14068      1.36328         0.016562      0.023362      0.259202
      0.65700      0.87739      4.17930         0.016562      0.023362     -0.259202
      2.89358      4.01000      9.72189        -0.016571     -0.023520     -0.259194
      0.96453      1.74671      6.90587        -0.016571     -0.023520      0.259195
      2.58605      2.59382      3.90621         0.091863      0.016008     -0.023414
      0.65700      0.33053      1.63637         0.091863      0.016008      0.023414
      2.89358      0.03028      7.17896        -0.091853     -0.015849      0.023457
      0.96453      2.29357      9.44880        -0.091854     -0.015849     -0.023457
 -----------------------------------------------------------------------------------
    total drift:                                0.000149      0.000342     -0.000002


--------------------------------------------------------------------------------------------------------



  FREE ENERGIE OF THE ION-ELECTRON SYSTEM (eV)
  ---------------------------------------------------
  free  energy   TOTEN  =       -33.65461119 eV

  energy  without entropy=      -33.65460142  energy(sigma->0) =      -33.65460631
 


--------------------------------------------------------------------------------------------------------


    POTLOK:  cpu time      0.2296: real time      0.2301


--------------------------------------------------------------------------------------------------------


     LOOP+:  cpu time      8.9614: real time      9.0053
    4ORBIT:  cpu time      0.0000: real time      0.0000

 total amount of memory used by VASP MPI-rank0    41770. kBytes
=======================================================================

   base      :      30000. kBytes
   nonl-proj :       9056. kBytes
   fftplans  :        519. kBytes
   grid      :        766. kBytes
   one-center:         16. kBytes
   wavefun   :       1413. kBytes
 
  
  
 General timing and accounting informations for this job:
 ========================================================
  
                  Total CPU time used (sec):       10.746
                            User time (sec):       10.411
                          System time (sec):        0.335
                         Elapsed time (sec):       11.090
  
                   Maximum memory used (kb):      180064.
                   Average memory used (kb):          N/A
  
                          Minor page faults:        23148
                          Major page faults:           44
                 Voluntary context switches:         2216
