 vasp.6.4.2 20Jul23 (build Oct 12 2023 10:31:02) complex                         
 executed on              LinuxNV date 2025.05.28  05:25:58
 running  128 mpi-ranks, with    1 threads/rank, on    2 nodes
 distrk:  each k-point on   64 cores,    2 groups
 distr:  one band on NCORE=   4 cores,   16 groups


--------------------------------------------------------------------------------------------------------


 INCAR:
   ENCUT = 360.000000
   SIGMA = 0.050000
   EDIFF = 1.00e-06
   ALGO = Normal
   GGA = PE
   PREC = Normal
   SYSTEM = ./
   ICHARG = 2
   ISMEAR = 0
   ISPIN = 1
   ISTART = 0
   ISYM = 0
   KPAR = 2
   LMAXMIX = 4
   NELM = 100
   NPAR = 16
   LASPH = .TRUE.
   LCHARG = .FALSE.
   LWAVE = .FALSE.

 POTCAR:    PAW_PBE Ge 05Jan2001                  
 POTCAR:    PAW_PBE Se 06Sep2000                  
 POTCAR:    PAW_PBE Ge 05Jan2001                  
   VRHFIN =Ge: s2p2                                                                                 
   LEXCH  = PE                                                                                      
   EATOM  =   104.9960 eV,    7.7170 Ry                                                             
                                                                                                    
   TITEL  = PAW_PBE Ge 05Jan2001                                                                    
   LULTRA =        F    use ultrasoft PP ?                                                          
   IUNSCR =        1    unscreen: 0-lin 1-nonlin 2-no                                               
   RPACOR =    2.170    partial core radius                                                         
   POMASS =   72.610; ZVAL   =    4.000    mass and valenz                                          
   RCORE  =    2.300    outmost cutoff radius                                                       
   RWIGS  =    2.300; RWIGS  =    1.217    wigner-seitz radius (au A)                               
   ENMAX  =  173.807; ENMIN  =  130.355 eV                                                          
   ICORE  =        3    local potential                                                             
   LCOR   =        T    correct aug charges                                                         
   LPAW   =        T    paw PP                                                                      
   EAUG   =  385.843                                                                                
   DEXC   =    0.000                                                                                
   RMAX   =    2.342    core radius for proj-oper                                                   
   RAUG   =    1.300    factor for augmentation sphere                                              
   RDEP   =    2.318    radius for radial grids                                                     
   RDEPT  =    2.103    core radius for aug-charge                                                  
                                                                                                    
   Atomic configuration                                                                             
   10 entries                                                                                       
     n  l   j            E        occ.                                                              
     1  0  0.50    -10959.8463   2.0000                                                             
     2  0  0.50     -1371.6056   2.0000                                                             
     2  1  1.50     -1198.4791   6.0000                                                             
     3  0  0.50      -168.4733   2.0000                                                             
     3  1  1.50      -115.6019   6.0000                                                             
     3  2  2.50       -29.3106  10.0000                                                             
     4  0  0.50       -11.7309   2.0000                                                             
     4  1  0.50        -3.8952   2.0000                                                             
     4  2  1.50        -4.0817   0.0000                                                             
     4  3  2.50        -4.0817   0.0000                                                             
   Description                                                                                      
     l       E           TYP  RCUT    TYP  RCUT                                                     
     0    -11.7309493     23  2.300                                                                 
     0     -7.4578696     23  2.300                                                                 
     1     -3.8952261     23  2.300                                                                 
     1      6.1178114     23  2.300                                                                 
     2     -4.0817478     23  2.300                                                                 
     3     -1.3605826      7  2.300                                                                 
  local pseudopotential read in
  partial core-charges read in
  partial kinetic energy density read in
  atomic valenz-charges read in
  non local Contribution for L=            0  read in
    real space projection operators read in
  non local Contribution for L=            0  read in
    real space projection operators read in
  non local Contribution for L=            1  read in
    real space projection operators read in
  non local Contribution for L=            1  read in
    real space projection operators read in
  non local Contribution for L=            2  read in
    real space projection operators read in
    PAW grid and wavefunctions read in
 
   number of l-projection  operators is LMAX  =            5
   number of lm-projection operators is LMMAX =           13
 
 POTCAR:    PAW_PBE Se 06Sep2000                  
   VRHFIN =Se: s2p4                                                                                 
   LEXCH  = PE                                                                                      
   EATOM  =   257.1286 eV,   18.8984 Ry                                                             
                                                                                                    
   TITEL  = PAW_PBE Se 06Sep2000                                                                    
   LULTRA =        F    use ultrasoft PP ?                                                          
   IUNSCR =        1    unscreen: 0-lin 1-nonlin 2-no                                               
   RPACOR =    1.900    partial core radius                                                         
   POMASS =   78.960; ZVAL   =    6.000    mass and valenz                                          
   RCORE  =    2.100    outmost cutoff radius                                                       
   RWIGS  =    2.200; RWIGS  =    1.164    wigner-seitz radius (au A)                               
   ENMAX  =  211.555; ENMIN  =  158.666 eV                                                          
   ICORE  =        3    local potential                                                             
   LCOR   =        T    correct aug charges                                                         
   LPAW   =        T    paw PP                                                                      
   EAUG   =  446.842                                                                                
   DEXC   =    0.000                                                                                
   RMAX   =    2.147    core radius for proj-oper                                                   
   RAUG   =    1.300    factor for augmentation sphere                                              
   RDEP   =    2.177    radius for radial grids                                                     
   RDEPT  =    1.928    core radius for aug-charge                                                  
                                                                                                    
   Atomic configuration                                                                             
   10 entries                                                                                       
     n  l   j            E        occ.                                                              
     1  0  0.50    -12503.4787   2.0000                                                             
     2  0  0.50     -1606.9547   2.0000                                                             
     2  1  1.50     -1413.3140   6.0000                                                             
     3  0  0.50      -213.4885   2.0000                                                             
     3  1  1.50      -152.9538   6.0000                                                             
     3  2  2.50       -53.1221  10.0000                                                             
     4  0  0.50       -17.2865   2.0000                                                             
     4  1  0.50        -6.5110   4.0000                                                             
     4  2  2.50        -6.8029   0.0000                                                             
     4  3  2.50        -6.8029   0.0000                                                             
   Description                                                                                      
     l       E           TYP  RCUT    TYP  RCUT                                                     
     0    -17.2865377     23  2.100                                                                 
     0    -15.3094411     23  2.100                                                                 
     1     -6.5110275     23  2.100                                                                 
     1     -0.0695192     23  2.100                                                                 
     2     -6.8029130     23  2.100                                                                 
     3     -1.3605826      7  2.100                                                                 
  local pseudopotential read in
  partial core-charges read in
  partial kinetic energy density read in
  atomic valenz-charges read in
  non local Contribution for L=            0  read in
    real space projection operators read in
  non local Contribution for L=            0  read in
    real space projection operators read in
  non local Contribution for L=            1  read in
    real space projection operators read in
  non local Contribution for L=            1  read in
    real space projection operators read in
  non local Contribution for L=            2  read in
    real space projection operators read in
    PAW grid and wavefunctions read in
 
   number of l-projection  operators is LMAX  =            5
   number of lm-projection operators is LMMAX =           13
 
  PAW_PBE Ge 05Jan2001                  :
 energy of atom  1       EATOM= -104.9960
 kinetic energy error for atom=    0.0005 (will be added to EATOM!!)
  PAW_PBE Se 06Sep2000                  :
 energy of atom  2       EATOM= -257.1286
 kinetic energy error for atom=    0.0030 (will be added to EATOM!!)
 
 
 POSCAR: Ge Se
  positions in cartesian coordinates
  No initial velocities read in
 exchange correlation table for  LEXCH =        8
   RHO(1)=    0.500       N(1)  =     2000
   RHO(2)=  100.500       N(2)  =     4000
 


--------------------------------------------------------------------------------------------------------


 ion  position               nearest neighbor table
   1  0.250  0.106  0.129-   5 2.57   6 2.67   6 2.67
   2  0.750  0.606  0.371-   6 2.57   5 2.67   5 2.67
   3  0.750  0.894  0.871-   7 2.57   8 2.67   8 2.67
   4  0.250  0.394  0.629-   8 2.57   7 2.67   7 2.67
   5  0.250  0.980  0.354-   1 2.57   2 2.67   2 2.67
   6  0.750  0.480  0.146-   2 2.57   1 2.67   1 2.67
   7  0.750  0.020  0.646-   3 2.57   4 2.67   4 2.67
   8  0.250  0.520  0.854-   4 2.57   3 2.67   3 2.67
 

IMPORTANT INFORMATION: All symmetrisations will be switched off!
NOSYMM: (Re-)initialisation of all symmetry stuff for point group C_1.


----------------------------------------------------------------------------------------

                                     Primitive cell                                     

  volume of cell :     205.7690

  direct lattice vectors                    reciprocal lattice vectors
     4.150000000  0.000000000  0.000000000     0.240963855  0.000000000  0.000000000
     0.000000000  4.450000000  0.000000000     0.000000000  0.224719101  0.000000000
     0.000000000  0.000000000 11.142221000     0.000000000  0.000000000  0.089748713

  length of vectors
     4.150000000  4.450000000 11.142221000     0.240963855  0.224719101  0.089748713

  position of ions in fractional coordinates (direct lattice)
     0.250000000  0.106447083  0.129166837
     0.750000000  0.606447083  0.370833163
     0.750000000  0.893552917  0.870833163
     0.250000000  0.393552917  0.629166837
     0.250000000  0.980331962  0.353869381
     0.750000000  0.480331962  0.146130619
     0.750000000  0.019668038  0.646130619
     0.250000000  0.519668038  0.853869381

  ion indices of the primitive-cell ions
   primitive index   ion index
                 1           1
                 2           2
                 3           3
                 4           4
                 5           5
                 6           6
                 7           7
                 8           8

----------------------------------------------------------------------------------------

 
 
 KPOINTS: KPOINTS created by Atomic Simulation Env

Automatic generation of k-mesh.
 Grid dimensions read from file:
 generate k-points for:    6    6    2

 Generating k-lattice:

  Cartesian coordinates                     Fractional coordinates (reciprocal lattice)
     0.040160643  0.000000000  0.000000000     0.166666667  0.000000000  0.000000000
     0.000000000  0.037453184  0.000000000     0.000000000  0.166666667  0.000000000
     0.000000000  0.000000000  0.044874357     0.000000000  0.000000000  0.500000000

  Length of vectors
     0.040160643  0.037453184  0.044874357

  Shift w.r.t. Gamma in fractional coordinates (k-lattice)
     0.000000000  0.000000000  0.000000000

 
 Subroutine IBZKPT returns following result:
 ===========================================
 
 Found     40 irreducible k-points:
 
 Following reciprocal coordinates:
            Coordinates               Weight
  0.000000  0.000000  0.000000      1.000000
  0.166667  0.000000  0.000000      2.000000
  0.333333  0.000000  0.000000      2.000000
  0.500000  0.000000  0.000000      1.000000
  0.000000  0.166667  0.000000      2.000000
  0.166667  0.166667  0.000000      2.000000
  0.166667 -0.166667  0.000000      2.000000
  0.333333  0.166667  0.000000      2.000000
  0.333333 -0.166667  0.000000      2.000000
  0.500000  0.166667  0.000000      2.000000
  0.000000  0.333333  0.000000      2.000000
  0.166667  0.333333  0.000000      2.000000
  0.166667 -0.333333  0.000000      2.000000
  0.333333  0.333333  0.000000      2.000000
  0.333333 -0.333333  0.000000      2.000000
  0.500000  0.333333  0.000000      2.000000
  0.000000  0.500000  0.000000      1.000000
  0.166667  0.500000  0.000000      2.000000
  0.333333  0.500000  0.000000      2.000000
  0.500000  0.500000  0.000000      1.000000
  0.000000  0.000000  0.500000      1.000000
  0.166667  0.000000  0.500000      2.000000
  0.333333  0.000000  0.500000      2.000000
  0.500000  0.000000  0.500000      1.000000
  0.000000  0.166667  0.500000      2.000000
  0.166667  0.166667  0.500000      2.000000
  0.166667 -0.166667  0.500000      2.000000
  0.333333  0.166667  0.500000      2.000000
  0.333333 -0.166667  0.500000      2.000000
  0.500000  0.166667  0.500000      2.000000
  0.000000  0.333333  0.500000      2.000000
  0.166667  0.333333  0.500000      2.000000
  0.166667 -0.333333  0.500000      2.000000
  0.333333  0.333333  0.500000      2.000000
  0.333333 -0.333333  0.500000      2.000000
  0.500000  0.333333  0.500000      2.000000
  0.000000  0.500000  0.500000      1.000000
  0.166667  0.500000  0.500000      2.000000
  0.333333  0.500000  0.500000      2.000000
  0.500000  0.500000  0.500000      1.000000
 
 Following cartesian coordinates:
            Coordinates               Weight
  0.000000  0.000000  0.000000      1.000000
  0.040161  0.000000  0.000000      2.000000
  0.080321  0.000000  0.000000      2.000000
  0.120482  0.000000  0.000000      1.000000
  0.000000  0.037453  0.000000      2.000000
  0.040161  0.037453  0.000000      2.000000
  0.040161 -0.037453  0.000000      2.000000
  0.080321  0.037453  0.000000      2.000000
  0.080321 -0.037453  0.000000      2.000000
  0.120482  0.037453  0.000000      2.000000
  0.000000  0.074906  0.000000      2.000000
  0.040161  0.074906  0.000000      2.000000
  0.040161 -0.074906  0.000000      2.000000
  0.080321  0.074906  0.000000      2.000000
  0.080321 -0.074906  0.000000      2.000000
  0.120482  0.074906  0.000000      2.000000
  0.000000  0.112360  0.000000      1.000000
  0.040161  0.112360  0.000000      2.000000
  0.080321  0.112360  0.000000      2.000000
  0.120482  0.112360  0.000000      1.000000
  0.000000  0.000000  0.044874      1.000000
  0.040161  0.000000  0.044874      2.000000
  0.080321  0.000000  0.044874      2.000000
  0.120482  0.000000  0.044874      1.000000
  0.000000  0.037453  0.044874      2.000000
  0.040161  0.037453  0.044874      2.000000
  0.040161 -0.037453  0.044874      2.000000
  0.080321  0.037453  0.044874      2.000000
  0.080321 -0.037453  0.044874      2.000000
  0.120482  0.037453  0.044874      2.000000
  0.000000  0.074906  0.044874      2.000000
  0.040161  0.074906  0.044874      2.000000
  0.040161 -0.074906  0.044874      2.000000
  0.080321  0.074906  0.044874      2.000000
  0.080321 -0.074906  0.044874      2.000000
  0.120482  0.074906  0.044874      2.000000
  0.000000  0.112360  0.044874      1.000000
  0.040161  0.112360  0.044874      2.000000
  0.080321  0.112360  0.044874      2.000000
  0.120482  0.112360  0.044874      1.000000
 


--------------------------------------------------------------------------------------------------------




 Dimension of arrays:
   k-points           NKPTS =     40   k-points in BZ     NKDIM =     40   number of bands    NBANDS=     32
   number of dos      NEDOS =    301   number of ions     NIONS =      8
   non local maximal  LDIM  =      5   non local SUM 2l+1 LMDIM =     13
   total plane-waves  NPLWV =  25920
   max r-space proj   IRMAX =      1   max aug-charges    IRDMAX=   7045
   dimension x,y,z NGX =    20 NGY =   24 NGZ =   54
   dimension x,y,z NGXF=    40 NGYF=   48 NGZF=  108
   support grid    NGXF=    40 NGYF=   48 NGZF=  108
   ions per type =               4   4
   NGX,Y,Z   is equivalent  to a cutoff of   8.01,  8.97,  8.06 a.u.
   NGXF,Y,Z  is equivalent  to a cutoff of  16.02, 17.93, 16.11 a.u.

 SYSTEM =  ./                                      
 POSCAR =  Ge Se                                   

 Startparameter for this run:
   NWRITE =      2    write-flag & timer
   PREC   = normal    normal or accurate (medium, high low for compatibility)
   ISTART =      0    job   : 0-new  1-cont  2-samecut
   ICHARG =      2    charge: 1-file 2-atom 10-const
   ISPIN  =      1    spin polarized calculation?
   LNONCOLLINEAR =      F non collinear calculations
   LSORBIT =      F    spin-orbit coupling
   INIWAV =      1    electr: 0-lowe 1-rand  2-diag
   LASPH  =      T    aspherical Exc in radial PAW
 Electronic Relaxation 1
   ENCUT  =  360.0 eV  26.46 Ry    5.14 a.u.   6.42  6.88 17.24*2*pi/ulx,y,z
   ENINI  =  360.0     initial cutoff
   ENAUG  =  446.8 eV  augmentation charge cutoff
   NELM   =    100;   NELMIN=  2; NELMDL= -5     # of ELM steps 
   EDIFF  = 0.1E-05   stopping-criterion for ELM
   LREAL  =      F    real-space projection
   NLSPLINE    = F    spline interpolate recip. space projectors
   LCOMPAT=      F    compatible to vasp.4.4
   GGA_COMPAT  = T    GGA compatible to vasp.4.4-vasp.4.6
   LMAXPAW     = -100 max onsite density
   LMAXMIX     =    4 max onsite mixed and CHGCAR
   VOSKOWN=      0    Vosko Wilk Nusair interpolation
   ROPT   =    0.00000   0.00000
 Ionic relaxation
   EDIFFG = 0.1E-04   stopping-criterion for IOM
   NSW    =      0    number of steps for IOM
   NBLOCK =      1;   KBLOCK =      1    inner block; outer block 
   IBRION =     -1    ionic relax: 0-MD 1-quasi-New 2-CG
   NFREE  =      0    steps in history (QN), initial steepest desc. (CG)
   ISIF   =      2    stress and relaxation
   IWAVPR =     10    prediction:  0-non 1-charg 2-wave 3-comb
   ISYM   =      0    0-nonsym 1-usesym 2-fastsym
   LCORR  =      T    Harris-Foulkes like correction to forces

   POTIM  = 0.5000    time-step for ionic-motion
   TEIN   =    0.0    initial temperature
   TEBEG  =    0.0;   TEEND  =   0.0 temperature during run
   SMASS  =  -3.00    Nose mass-parameter (am)
   estimated Nose-frequenzy (Omega)   =  0.10E-29 period in steps = 0.13E+47 mass=  -0.394E-27a.u.
   SCALEE = 1.0000    scale energy and forces
   NPACO  =    256;   APACO  = 10.0  distance and # of slots for P.C.
   PSTRESS=    0.0 pullay stress

  Mass of Ions in am
   POMASS =  72.61 78.96
  Ionic Valenz
   ZVAL   =   4.00  6.00
  Atomic Wigner-Seitz radii
   RWIGS  =  -1.00 -1.00
  virtual crystal weights 
   VCA    =   1.00  1.00
   NELECT =      40.0000    total number of electrons
   NUPDOWN=      -1.0000    fix difference up-down

 DOS related values:
   EMIN   =  10.00;   EMAX   =-10.00  energy-range for DOS
   EFERMI =   0.00;   METHOD = LEGACY      
   ISMEAR =     0;   SIGMA  =   0.05  broadening in eV -4-tet -1-fermi 0-gaus

 Electronic relaxation 2 (details)
   IALGO  =     38    algorithm
   LDIAG  =      T    sub-space diagonalisation (order eigenvalues)
   LSUBROT=      F    optimize rotation matrix (better conditioning)
   TURBO    =      0    0=normal 1=particle mesh
   IRESTART =      0    0=no restart 2=restart with 2 vectors
   NREBOOT  =      0    no. of reboots
   NMIN     =      0    reboot dimension
   EREF     =   0.00    reference energy to select bands
   IMIX   =      4    mixing-type and parameters
     AMIX     =   0.40;   BMIX     =  1.00
     AMIX_MAG =   1.60;   BMIX_MAG =  1.00
     AMIN     =   0.10
     WC   =   100.;   INIMIX=   1;  MIXPRE=   1;  MAXMIX= -45

 Intra band minimization:
   WEIMIN = 0.0000     energy-eigenvalue tresh-hold
   EBREAK =  0.78E-08  absolut break condition
   DEPER  =   0.30     relativ break condition  

   TIME   =   0.40     timestep for ELM

  volume/ion in A,a.u.               =      25.72       173.57
  Fermi-wavevector in a.u.,A,eV,Ry     =   0.948349  1.792120 12.236616  0.899366
  Thomas-Fermi vector in A             =   2.076529
 
 Write flags
   LWAVE        =      F    write WAVECAR
   LDOWNSAMPLE  =      F    k-point downsampling of WAVECAR
   LCHARG       =      F    write CHGCAR
   LVTOT        =      F    write LOCPOT, total local potential
   LVHAR        =      F    write LOCPOT, Hartree potential only
   LELF         =      F    write electronic localiz. function (ELF)
   LORBIT       =      0    0 simple, 1 ext, 2 COOP (PROOUT), +10 PAW based schemes


 Dipole corrections
   LMONO  =      F    monopole corrections only (constant potential shift)
   LDIPOL =      F    correct potential (dipole corrections)
   IDIPOL =      0    1-x, 2-y, 3-z, 4-all directions 
   EPSILON=  1.0000000 bulk dielectric constant

 Exchange correlation treatment:
   GGA     =    PE    GGA type
   LEXCH   =     8    internal setting for exchange type
   LIBXC   =     F    Libxc                    
   VOSKOWN =     0    Vosko Wilk Nusair interpolation
   LHFCALC =     F    Hartree Fock is set to
   LHFONE  =     F    Hartree Fock one center treatment
   AEXX    =    0.0000 exact exchange contribution

 Linear response parameters
   LEPSILON=     F    determine dielectric tensor
   LRPA    =     F    only Hartree local field effects (RPA)
   LNABLA  =     F    use nabla operator in PAW spheres
   LVEL    =     F    velocity operator in full k-point grid
   CSHIFT  =0.1000    complex shift for real part using Kramers Kronig
   OMEGAMAX=  -1.0    maximum frequency
   DEG_THRESHOLD= 0.2000000E-02 threshold for treating states as degnerate
   RTIME   =   -0.100 relaxation time in fs
  (WPLASMAI=    0.000 imaginary part of plasma frequency in eV, 0.658/RTIME)
   DFIELD  = 0.0000000 0.0000000 0.0000000 field for delta impulse in time
 
  Optional k-point grid parameters
   LKPOINTS_OPT  =     F    use optional k-point grid
   KPOINTS_OPT_MODE=     1    mode for optional k-point grid
 
 Orbital magnetization related:
   ORBITALMAG=     F  switch on orbital magnetization
   LCHIMAG   =     F  perturbation theory with respect to B field
   DQ        =  0.001000  dq finite difference perturbation B field
   LLRAUG    =     F  two centre corrections for induced B field
   LBONE     =     F  B-component reconstruction in AE one-centre
   LVGVCALC  =     T  calculate vGv susceptibility
   LVGVAPPL  =     F  apply vGv susceptibility instead of pGv for G=0

 Random number generation:
   RANDOM_GENERATOR = DEFAULT
   PCG_SEED         = not used


--------------------------------------------------------------------------------------------------------


 Static calculation
 charge density and potential will be updated during run
 non-spin polarized calculation
 Variant of blocked Davidson
 Davidson routine will perform the subspace rotation
 perform sub-space diagonalisation
    after iterative eigenvector-optimisation
 modified Broyden-mixing scheme, WC =      100.0
 initial mixing is a Kerker type mixing with AMIX =  0.4000 and BMIX =      1.0000
 Hartree-type preconditioning will be used
 using additional bands            12
 reciprocal scheme for non local part
 use partial core corrections
 calculate Harris-corrections to forces 
   (improved forces if not selfconsistent)
 use gradient corrections 
 use of overlap-Matrix (Vanderbilt PP)
 Gauss-broadening in eV      SIGMA  =   0.05


--------------------------------------------------------------------------------------------------------


  energy-cutoff  :      360.00
  volume of cell :      205.77
      direct lattice vectors                 reciprocal lattice vectors
     4.150000000  0.000000000  0.000000000     0.240963855  0.000000000  0.000000000
     0.000000000  4.450000000  0.000000000     0.000000000  0.224719101  0.000000000
     0.000000000  0.000000000 11.142221000     0.000000000  0.000000000  0.089748713

  length of vectors
     4.150000000  4.450000000 11.142221000     0.240963855  0.224719101  0.089748713


 
 k-points in units of 2pi/SCALE and weight: KPOINTS created by Atomic Simulation Env
   0.00000000  0.00000000  0.00000000       0.014
   0.04016064  0.00000000  0.00000000       0.028
   0.08032129  0.00000000  0.00000000       0.028
   0.12048193  0.00000000  0.00000000       0.014
   0.00000000  0.03745318  0.00000000       0.028
   0.04016064  0.03745318  0.00000000       0.028
   0.04016064 -0.03745318  0.00000000       0.028
   0.08032129  0.03745318  0.00000000       0.028
   0.08032129 -0.03745318  0.00000000       0.028
   0.12048193  0.03745318  0.00000000       0.028
   0.00000000  0.07490637  0.00000000       0.028
   0.04016064  0.07490637  0.00000000       0.028
   0.04016064 -0.07490637  0.00000000       0.028
   0.08032129  0.07490637  0.00000000       0.028
   0.08032129 -0.07490637  0.00000000       0.028
   0.12048193  0.07490637  0.00000000       0.028
   0.00000000  0.11235955  0.00000000       0.014
   0.04016064  0.11235955  0.00000000       0.028
   0.08032129  0.11235955  0.00000000       0.028
   0.12048193  0.11235955  0.00000000       0.014
   0.00000000  0.00000000  0.04487436       0.014
   0.04016064  0.00000000  0.04487436       0.028
   0.08032129  0.00000000  0.04487436       0.028
   0.12048193  0.00000000  0.04487436       0.014
   0.00000000  0.03745318  0.04487436       0.028
   0.04016064  0.03745318  0.04487436       0.028
   0.04016064 -0.03745318  0.04487436       0.028
   0.08032129  0.03745318  0.04487436       0.028
   0.08032129 -0.03745318  0.04487436       0.028
   0.12048193  0.03745318  0.04487436       0.028
   0.00000000  0.07490637  0.04487436       0.028
   0.04016064  0.07490637  0.04487436       0.028
   0.04016064 -0.07490637  0.04487436       0.028
   0.08032129  0.07490637  0.04487436       0.028
   0.08032129 -0.07490637  0.04487436       0.028
   0.12048193  0.07490637  0.04487436       0.028
   0.00000000  0.11235955  0.04487436       0.014
   0.04016064  0.11235955  0.04487436       0.028
   0.08032129  0.11235955  0.04487436       0.028
   0.12048193  0.11235955  0.04487436       0.014
 
 k-points in reciprocal lattice and weights: KPOINTS created by Atomic Simulation Env
   0.00000000  0.00000000  0.00000000       0.014
   0.16666667  0.00000000  0.00000000       0.028
   0.33333333  0.00000000  0.00000000       0.028
   0.50000000  0.00000000  0.00000000       0.014
   0.00000000  0.16666667  0.00000000       0.028
   0.16666667  0.16666667  0.00000000       0.028
   0.16666667 -0.16666667  0.00000000       0.028
   0.33333333  0.16666667  0.00000000       0.028
   0.33333333 -0.16666667  0.00000000       0.028
   0.50000000  0.16666667  0.00000000       0.028
   0.00000000  0.33333333  0.00000000       0.028
   0.16666667  0.33333333  0.00000000       0.028
   0.16666667 -0.33333333  0.00000000       0.028
   0.33333333  0.33333333  0.00000000       0.028
   0.33333333 -0.33333333  0.00000000       0.028
   0.50000000  0.33333333  0.00000000       0.028
   0.00000000  0.50000000  0.00000000       0.014
   0.16666667  0.50000000  0.00000000       0.028
   0.33333333  0.50000000  0.00000000       0.028
   0.50000000  0.50000000  0.00000000       0.014
   0.00000000  0.00000000  0.50000000       0.014
   0.16666667  0.00000000  0.50000000       0.028
   0.33333333  0.00000000  0.50000000       0.028
   0.50000000  0.00000000  0.50000000       0.014
   0.00000000  0.16666667  0.50000000       0.028
   0.16666667  0.16666667  0.50000000       0.028
   0.16666667 -0.16666667  0.50000000       0.028
   0.33333333  0.16666667  0.50000000       0.028
   0.33333333 -0.16666667  0.50000000       0.028
   0.50000000  0.16666667  0.50000000       0.028
   0.00000000  0.33333333  0.50000000       0.028
   0.16666667  0.33333333  0.50000000       0.028
   0.16666667 -0.33333333  0.50000000       0.028
   0.33333333  0.33333333  0.50000000       0.028
   0.33333333 -0.33333333  0.50000000       0.028
   0.50000000  0.33333333  0.50000000       0.028
   0.00000000  0.50000000  0.50000000       0.014
   0.16666667  0.50000000  0.50000000       0.028
   0.33333333  0.50000000  0.50000000       0.028
   0.50000000  0.50000000  0.50000000       0.014
 
 position of ions in fractional coordinates (direct lattice) 
   0.25000000  0.10644708  0.12916684
   0.75000000  0.60644708  0.37083316
   0.75000000  0.89355292  0.87083316
   0.25000000  0.39355292  0.62916684
   0.25000000  0.98033196  0.35386938
   0.75000000  0.48033196  0.14613062
   0.75000000  0.01966804  0.64613062
   0.25000000  0.51966804  0.85386938
 
 position of ions in cartesian coordinates  (Angst):
   1.03750000  0.47368952  1.43920545
   3.11250000  2.69868952  4.13190505
   3.11250000  3.97631048  9.70301555
   1.03750000  1.75131048  7.01031595
   1.03750000  4.36247723  3.94289085
   3.11250000  2.13747723  1.62821965
   3.11250000  0.08752277  7.19933015
   1.03750000  2.31252277  9.51400135
 


--------------------------------------------------------------------------------------------------------


 k-point   1 :   0.0000 0.0000 0.0000  plane waves:    3231
 k-point   2 :   0.1667 0.0000 0.0000  plane waves:    3187
 k-point   3 :   0.3333 0.0000 0.0000  plane waves:    3175
 k-point   4 :   0.5000 0.0000 0.0000  plane waves:    3172
 k-point   5 :   0.0000 0.1667 0.0000  plane waves:    3220
 k-point   6 :   0.1667 0.1667 0.0000  plane waves:    3188
 k-point   7 :   0.1667-0.1667 0.0000  plane waves:    3188
 k-point   8 :   0.3333 0.1667 0.0000  plane waves:    3166
 k-point   9 :   0.3333-0.1667 0.0000  plane waves:    3166
 k-point  10 :   0.5000 0.1667 0.0000  plane waves:    3184
 k-point  11 :   0.0000 0.3333 0.0000  plane waves:    3200
 k-point  12 :   0.1667 0.3333 0.0000  plane waves:    3206
 k-point  13 :   0.1667-0.3333 0.0000  plane waves:    3206
 k-point  14 :   0.3333 0.3333 0.0000  plane waves:    3183
 k-point  15 :   0.3333-0.3333 0.0000  plane waves:    3183
 k-point  16 :   0.5000 0.3333 0.0000  plane waves:    3184
 k-point  17 :   0.0000 0.5000 0.0000  plane waves:    3174
 k-point  18 :   0.1667 0.5000 0.0000  plane waves:    3210
 k-point  19 :   0.3333 0.5000 0.0000  plane waves:    3216
 k-point  20 :   0.5000 0.5000 0.0000  plane waves:    3204
 k-point  21 :   0.0000 0.0000 0.5000  plane waves:    3230
 k-point  22 :   0.1667 0.0000 0.5000  plane waves:    3188
 k-point  23 :   0.3333 0.0000 0.5000  plane waves:    3174
 k-point  24 :   0.5000 0.0000 0.5000  plane waves:    3148
 k-point  25 :   0.0000 0.1667 0.5000  plane waves:    3178
 k-point  26 :   0.1667 0.1667 0.5000  plane waves:    3188
 k-point  27 :   0.1667-0.1667 0.5000  plane waves:    3188
 k-point  28 :   0.3333 0.1667 0.5000  plane waves:    3186
 k-point  29 :   0.3333-0.1667 0.5000  plane waves:    3186
 k-point  30 :   0.5000 0.1667 0.5000  plane waves:    3184
 k-point  31 :   0.0000 0.3333 0.5000  plane waves:    3200
 k-point  32 :   0.1667 0.3333 0.5000  plane waves:    3192
 k-point  33 :   0.1667-0.3333 0.5000  plane waves:    3192
 k-point  34 :   0.3333 0.3333 0.5000  plane waves:    3210
 k-point  35 :   0.3333-0.3333 0.5000  plane waves:    3210
 k-point  36 :   0.5000 0.3333 0.5000  plane waves:    3212
 k-point  37 :   0.0000 0.5000 0.5000  plane waves:    3192
 k-point  38 :   0.1667 0.5000 0.5000  plane waves:    3220
 k-point  39 :   0.3333 0.5000 0.5000  plane waves:    3196
 k-point  40 :   0.5000 0.5000 0.5000  plane waves:    3200

 maximum and minimum number of plane-waves per node :       847      758

 maximum number of plane-waves:      3231
 maximum index in each direction: 
   IXMAX=    6   IYMAX=    7   IZMAX=   17
   IXMIN=   -6   IYMIN=   -7   IZMIN=  -17


 parallel 3D FFT for wavefunctions:
    minimum data exchange during FFTs selected (reduces bandwidth)
 parallel 3D FFT for charge:
    minimum data exchange during FFTs selected (reduces bandwidth)


 total amount of memory used by VASP MPI-rank0    38922. kBytes
=======================================================================

   base      :      30000. kBytes
   nonl-proj :       6893. kBytes
   fftplans  :        373. kBytes
   grid      :        555. kBytes
   one-center:         16. kBytes
   wavefun   :       1085. kBytes
 
     INWAV:  cpu time      0.0000: real time      0.0001
 Broyden mixing: mesh for mixing (old mesh)
   NGX = 13   NGY = 13   NGZ = 35
  (NGX  = 40   NGY  = 48   NGZ  =108)
  gives a total of   5915 points

 initial charge density was supplied:
 charge density of overlapping atoms calculated
 number of electron      40.0000000 magnetization 
 keeping initial charge density in first step


--------------------------------------------------------------------------------------------------------


 Maximum index for augmentation-charges            91 (set IRDMAX)


--------------------------------------------------------------------------------------------------------


 First call to EWALD:  gamma=   0.300
 Maximum number of real-space cells 4x 3x 2
 Maximum number of reciprocal cells 2x 2x 5

    FEWALD:  cpu time      0.0026: real time      0.0027


--------------------------------------- Ionic step        1  -------------------------------------------




--------------------------------------- Iteration      1(   1)  ---------------------------------------


    POTLOK:  cpu time      0.0064: real time      0.0068
    SETDIJ:  cpu time      0.1426: real time      0.1432
     EDDAV:  cpu time      0.2643: real time      0.2672
       DOS:  cpu time      0.0017: real time      0.0017
    --------------------------------------------
      LOOP:  cpu time      0.4150: real time      0.4189

 eigenvalue-minimisations  :  2560
 total energy-change (2. order) : 0.1294584E+03  (-0.1280186E+04)
 number of electron      40.0000000 magnetization 
 augmentation part       40.0000000 magnetization 

 Free energy of the ion-electron system (eV)
  ---------------------------------------------------
  alpha Z        PSCENC =        82.34694348
  Ewald energy   TEWEN  =     -1388.09613754
  -Hartree energ DENC   =      -137.64135909
  -exchange      EXHF   =         0.00000000
  -V(xc)+E(xc)   XCENC  =       -34.20398060
  PAW double counting   =      1193.78262552    -1080.73714043
  entropy T*S    EENTRO =        -0.00502519
  eigenvalues    EBANDS =        45.52787606
  atomic energy  EATOM  =      1448.48460880
  Solvation  Ediel_sol  =         0.00000000
  ---------------------------------------------------
  free energy    TOTEN  =       129.45841101 eV

  energy without entropy =      129.46343621  energy(sigma->0) =      129.46092361


--------------------------------------------------------------------------------------------------------




--------------------------------------- Iteration      1(   2)  ---------------------------------------


     EDDAV:  cpu time      0.3410: real time      0.3445
       DOS:  cpu time      0.0006: real time      0.0006
    --------------------------------------------
      LOOP:  cpu time      0.3416: real time      0.3451

 eigenvalue-minimisations  :  3728
 total energy-change (2. order) :-0.1547417E+03  (-0.1501042E+03)
 number of electron      40.0000000 magnetization 
 augmentation part       40.0000000 magnetization 

 Free energy of the ion-electron system (eV)
  ---------------------------------------------------
  alpha Z        PSCENC =        82.34694348
  Ewald energy   TEWEN  =     -1388.09613754
  -Hartree energ DENC   =      -137.64135909
  -exchange      EXHF   =         0.00000000
  -V(xc)+E(xc)   XCENC  =       -34.20398060
  PAW double counting   =      1193.78262552    -1080.73714043
  entropy T*S    EENTRO =        -0.00000000
  eigenvalues    EBANDS =      -109.21889592
  atomic energy  EATOM  =      1448.48460880
  Solvation  Ediel_sol  =         0.00000000
  ---------------------------------------------------
  free energy    TOTEN  =       -25.28333578 eV

  energy without entropy =      -25.28333578  energy(sigma->0) =      -25.28333578


--------------------------------------------------------------------------------------------------------




--------------------------------------- Iteration      1(   3)  ---------------------------------------


     EDDAV:  cpu time      0.3053: real time      0.3090
       DOS:  cpu time      0.0005: real time      0.0005
    --------------------------------------------
      LOOP:  cpu time      0.3058: real time      0.3095

 eigenvalue-minimisations  :  3152
 total energy-change (2. order) :-0.8811633E+01  (-0.8791646E+01)
 number of electron      40.0000000 magnetization 
 augmentation part       40.0000000 magnetization 

 Free energy of the ion-electron system (eV)
  ---------------------------------------------------
  alpha Z        PSCENC =        82.34694348
  Ewald energy   TEWEN  =     -1388.09613754
  -Hartree energ DENC   =      -137.64135909
  -exchange      EXHF   =         0.00000000
  -V(xc)+E(xc)   XCENC  =       -34.20398060
  PAW double counting   =      1193.78262552    -1080.73714043
  entropy T*S    EENTRO =        -0.00000000
  eigenvalues    EBANDS =      -118.03052912
  atomic energy  EATOM  =      1448.48460880
  Solvation  Ediel_sol  =         0.00000000
  ---------------------------------------------------
  free energy    TOTEN  =       -34.09496898 eV

  energy without entropy =      -34.09496898  energy(sigma->0) =      -34.09496898


--------------------------------------------------------------------------------------------------------




--------------------------------------- Iteration      1(   4)  ---------------------------------------


     EDDAV:  cpu time      0.3115: real time      0.3150
       DOS:  cpu time      0.0005: real time      0.0005
    --------------------------------------------
      LOOP:  cpu time      0.3121: real time      0.3155

 eigenvalue-minimisations  :  3280
 total energy-change (2. order) :-0.6202279E-01  (-0.6201612E-01)
 number of electron      40.0000000 magnetization 
 augmentation part       40.0000000 magnetization 

 Free energy of the ion-electron system (eV)
  ---------------------------------------------------
  alpha Z        PSCENC =        82.34694348
  Ewald energy   TEWEN  =     -1388.09613754
  -Hartree energ DENC   =      -137.64135909
  -exchange      EXHF   =         0.00000000
  -V(xc)+E(xc)   XCENC  =       -34.20398060
  PAW double counting   =      1193.78262552    -1080.73714043
  entropy T*S    EENTRO =        -0.00000000
  eigenvalues    EBANDS =      -118.09255191
  atomic energy  EATOM  =      1448.48460880
  Solvation  Ediel_sol  =         0.00000000
  ---------------------------------------------------
  free energy    TOTEN  =       -34.15699177 eV

  energy without entropy =      -34.15699177  energy(sigma->0) =      -34.15699177


--------------------------------------------------------------------------------------------------------




--------------------------------------- Iteration      1(   5)  ---------------------------------------


     EDDAV:  cpu time      0.3142: real time      0.3176
       DOS:  cpu time      0.0006: real time      0.0006
    CHARGE:  cpu time      0.0053: real time      0.0054
    MIXING:  cpu time      0.0008: real time      0.0008
    --------------------------------------------
      LOOP:  cpu time      0.3209: real time      0.3244

 eigenvalue-minimisations  :  3152
 total energy-change (2. order) :-0.3762742E-03  (-0.3762718E-03)
 number of electron      39.9999991 magnetization 
 augmentation part       -7.4092094 magnetization 

 Broyden mixing:
  rms(total) = 0.61663E+00    rms(broyden)= 0.61662E+00
  rms(prec ) = 0.71802E+00
  weight for this iteration     100.00

 Free energy of the ion-electron system (eV)
  ---------------------------------------------------
  alpha Z        PSCENC =        82.34694348
  Ewald energy   TEWEN  =     -1388.09613754
  -Hartree energ DENC   =      -137.64135909
  -exchange      EXHF   =         0.00000000
  -V(xc)+E(xc)   XCENC  =       -34.20398060
  PAW double counting   =      1193.78262552    -1080.73714043
  entropy T*S    EENTRO =        -0.00000000
  eigenvalues    EBANDS =      -118.09292819
  atomic energy  EATOM  =      1448.48460880
  Solvation  Ediel_sol  =         0.00000000
  ---------------------------------------------------
  free energy    TOTEN  =       -34.15736805 eV

  energy without entropy =      -34.15736805  energy(sigma->0) =      -34.15736805


--------------------------------------------------------------------------------------------------------




--------------------------------------- Iteration      1(   6)  ---------------------------------------


    POTLOK:  cpu time      0.0058: real time      0.0060
    SETDIJ:  cpu time      0.1371: real time      0.1381
     EDDAV:  cpu time      0.3220: real time      0.3254
       DOS:  cpu time      0.0006: real time      0.0006
    CHARGE:  cpu time      0.0047: real time      0.0048
    MIXING:  cpu time      0.0006: real time      0.0006
    --------------------------------------------
      LOOP:  cpu time      0.4707: real time      0.4754

 eigenvalue-minimisations  :  3024
 total energy-change (2. order) : 0.4712061E+00  (-0.9976303E-01)
 number of electron      39.9999990 magnetization 
 augmentation part       -7.3457613 magnetization 

 Broyden mixing:
  rms(total) = 0.38378E+00    rms(broyden)= 0.38378E+00
  rms(prec ) = 0.40696E+00
  weight for this iteration     100.00

 eigenvalues of (default mixing * dielectric matrix)
  average eigenvalue GAMMA=   2.0164
  2.0164

 Free energy of the ion-electron system (eV)
  ---------------------------------------------------
  alpha Z        PSCENC =        82.34694348
  Ewald energy   TEWEN  =     -1388.09613754
  -Hartree energ DENC   =      -144.02466309
  -exchange      EXHF   =         0.00000000
  -V(xc)+E(xc)   XCENC  =       -33.58181933
  PAW double counting   =      1434.68444411    -1321.93015389
  entropy T*S    EENTRO =        -0.00000000
  eigenvalues    EBANDS =      -111.56938445
  atomic energy  EATOM  =      1448.48460880
  Solvation  Ediel_sol  =         0.00000000
  ---------------------------------------------------
  free energy    TOTEN  =       -33.68616191 eV

  energy without entropy =      -33.68616191  energy(sigma->0) =      -33.68616191


--------------------------------------------------------------------------------------------------------




--------------------------------------- Iteration      1(   7)  ---------------------------------------


    POTLOK:  cpu time      0.0060: real time      0.0062
    SETDIJ:  cpu time      0.1374: real time      0.1382
     EDDAV:  cpu time      0.3009: real time      0.3042
       DOS:  cpu time      0.0006: real time      0.0006
    CHARGE:  cpu time      0.0044: real time      0.0044
    MIXING:  cpu time      0.0005: real time      0.0005
    --------------------------------------------
      LOOP:  cpu time      0.4498: real time      0.4541

 eigenvalue-minimisations  :  3104
 total energy-change (2. order) : 0.9346743E-02  (-0.2530896E-01)
 number of electron      39.9999990 magnetization 
 augmentation part       -7.3377353 magnetization 

 Broyden mixing:
  rms(total) = 0.14580E+00    rms(broyden)= 0.14580E+00
  rms(prec ) = 0.15519E+00
  weight for this iteration     100.00

 eigenvalues of (default mixing * dielectric matrix)
  average eigenvalue GAMMA=   1.7825
  1.1876  2.3775

 Free energy of the ion-electron system (eV)
  ---------------------------------------------------
  alpha Z        PSCENC =        82.34694348
  Ewald energy   TEWEN  =     -1388.09613754
  -Hartree energ DENC   =      -146.24293297
  -exchange      EXHF   =         0.00000000
  -V(xc)+E(xc)   XCENC  =       -33.17609599
  PAW double counting   =      1702.10950867    -1589.53212360
  entropy T*S    EENTRO =        -0.00000000
  eigenvalues    EBANDS =      -109.57058601
  atomic energy  EATOM  =      1448.48460880
  Solvation  Ediel_sol  =         0.00000000
  ---------------------------------------------------
  free energy    TOTEN  =       -33.67681516 eV

  energy without entropy =      -33.67681516  energy(sigma->0) =      -33.67681516


--------------------------------------------------------------------------------------------------------




--------------------------------------- Iteration      1(   8)  ---------------------------------------


    POTLOK:  cpu time      0.0056: real time      0.0058
    SETDIJ:  cpu time      0.1369: real time      0.1379
     EDDAV:  cpu time      0.2855: real time      0.2886
       DOS:  cpu time      0.0006: real time      0.0006
    CHARGE:  cpu time      0.0044: real time      0.0044
    MIXING:  cpu time      0.0005: real time      0.0006
    --------------------------------------------
      LOOP:  cpu time      0.4335: real time      0.4379

 eigenvalue-minimisations  :  2976
 total energy-change (2. order) : 0.7473285E-03  (-0.2536503E-02)
 number of electron      39.9999990 magnetization 
 augmentation part       -7.3483774 magnetization 

 Broyden mixing:
  rms(total) = 0.17566E-01    rms(broyden)= 0.17566E-01
  rms(prec ) = 0.22623E-01
  weight for this iteration     100.00

 eigenvalues of (default mixing * dielectric matrix)
  average eigenvalue GAMMA=   1.6489
  2.4669  1.2399  1.2399

 Free energy of the ion-electron system (eV)
  ---------------------------------------------------
  alpha Z        PSCENC =        82.34694348
  Ewald energy   TEWEN  =     -1388.09613754
  -Hartree energ DENC   =      -146.33496619
  -exchange      EXHF   =         0.00000000
  -V(xc)+E(xc)   XCENC  =       -33.02111978
  PAW double counting   =      1851.39914157    -1738.87957647
  entropy T*S    EENTRO =        -0.00000000
  eigenvalues    EBANDS =      -109.57496171
  atomic energy  EATOM  =      1448.48460880
  Solvation  Ediel_sol  =         0.00000000
  ---------------------------------------------------
  free energy    TOTEN  =       -33.67606783 eV

  energy without entropy =      -33.67606783  energy(sigma->0) =      -33.67606783


--------------------------------------------------------------------------------------------------------




--------------------------------------- Iteration      1(   9)  ---------------------------------------


    POTLOK:  cpu time      0.0056: real time      0.0058
    SETDIJ:  cpu time      0.1371: real time      0.1378
     EDDAV:  cpu time      0.2859: real time      0.2890
       DOS:  cpu time      0.0005: real time      0.0005
    CHARGE:  cpu time      0.0042: real time      0.0042
    MIXING:  cpu time      0.0005: real time      0.0005
    --------------------------------------------
      LOOP:  cpu time      0.4338: real time      0.4378

 eigenvalue-minimisations  :  3072
 total energy-change (2. order) :-0.6282534E-04  (-0.4105191E-03)
 number of electron      39.9999990 magnetization 
 augmentation part       -7.3455570 magnetization 

 Broyden mixing:
  rms(total) = 0.68447E-02    rms(broyden)= 0.68447E-02
  rms(prec ) = 0.79159E-02
  weight for this iteration     100.00

 eigenvalues of (default mixing * dielectric matrix)
  average eigenvalue GAMMA=   1.7678
  2.3859  2.3859  1.1497  1.1497

 Free energy of the ion-electron system (eV)
  ---------------------------------------------------
  alpha Z        PSCENC =        82.34694348
  Ewald energy   TEWEN  =     -1388.09613754
  -Hartree energ DENC   =      -146.75873638
  -exchange      EXHF   =         0.00000000
  -V(xc)+E(xc)   XCENC  =       -32.98107779
  PAW double counting   =      1862.23490153    -1749.72477300
  entropy T*S    EENTRO =        -0.00000000
  eigenvalues    EBANDS =      -109.18185977
  atomic energy  EATOM  =      1448.48460880
  Solvation  Ediel_sol  =         0.00000000
  ---------------------------------------------------
  free energy    TOTEN  =       -33.67613066 eV

  energy without entropy =      -33.67613066  energy(sigma->0) =      -33.67613066


--------------------------------------------------------------------------------------------------------




--------------------------------------- Iteration      1(  10)  ---------------------------------------


    POTLOK:  cpu time      0.0046: real time      0.0059
    SETDIJ:  cpu time      0.1387: real time      0.1390
     EDDAV:  cpu time      0.2094: real time      0.2106
       DOS:  cpu time      0.0003: real time      0.0003
    CHARGE:  cpu time      0.0034: real time      0.0035
    MIXING:  cpu time      0.0003: real time      0.0003
    --------------------------------------------
      LOOP:  cpu time      0.3569: real time      0.3597

 eigenvalue-minimisations  :  3040
 total energy-change (2. order) :-0.1020703E-03  (-0.4037179E-04)
 number of electron      39.9999990 magnetization 
 augmentation part       -7.3454188 magnetization 

 Broyden mixing:
  rms(total) = 0.23628E-02    rms(broyden)= 0.23628E-02
  rms(prec ) = 0.28782E-02
  weight for this iteration     100.00

 eigenvalues of (default mixing * dielectric matrix)
  average eigenvalue GAMMA=   1.7444
  2.7411  2.5270  1.1807  1.1807  1.0925

 Free energy of the ion-electron system (eV)
  ---------------------------------------------------
  alpha Z        PSCENC =        82.34694348
  Ewald energy   TEWEN  =     -1388.09613754
  -Hartree energ DENC   =      -146.80085222
  -exchange      EXHF   =         0.00000000
  -V(xc)+E(xc)   XCENC  =       -32.97739880
  PAW double counting   =      1856.26126481    -1743.74665530
  entropy T*S    EENTRO =        -0.00000000
  eigenvalues    EBANDS =      -109.14800596
  atomic energy  EATOM  =      1448.48460880
  Solvation  Ediel_sol  =         0.00000000
  ---------------------------------------------------
  free energy    TOTEN  =       -33.67623273 eV

  energy without entropy =      -33.67623273  energy(sigma->0) =      -33.67623273


--------------------------------------------------------------------------------------------------------




--------------------------------------- Iteration      1(  11)  ---------------------------------------


    POTLOK:  cpu time      0.0040: real time      0.0041
    SETDIJ:  cpu time      0.1374: real time      0.1377
     EDDAV:  cpu time      0.1764: real time      0.1773
       DOS:  cpu time      0.0003: real time      0.0003
    CHARGE:  cpu time      0.0035: real time      0.0035
    MIXING:  cpu time      0.0003: real time      0.0003
    --------------------------------------------
      LOOP:  cpu time      0.3219: real time      0.3233

 eigenvalue-minimisations  :  2832
 total energy-change (2. order) :-0.2005415E-04  (-0.3896113E-05)
 number of electron      39.9999990 magnetization 
 augmentation part       -7.3457140 magnetization 

 Broyden mixing:
  rms(total) = 0.13040E-02    rms(broyden)= 0.13040E-02
  rms(prec ) = 0.14746E-02
  weight for this iteration     100.00

 eigenvalues of (default mixing * dielectric matrix)
  average eigenvalue GAMMA=   1.7576
  2.7039  2.7039  1.8546  1.1202  1.1202  1.0426

 Free energy of the ion-electron system (eV)
  ---------------------------------------------------
  alpha Z        PSCENC =        82.34694348
  Ewald energy   TEWEN  =     -1388.09613754
  -Hartree energ DENC   =      -146.81967484
  -exchange      EXHF   =         0.00000000
  -V(xc)+E(xc)   XCENC  =       -32.97236307
  PAW double counting   =      1857.57379816    -1745.05938311
  entropy T*S    EENTRO =        -0.00000000
  eigenvalues    EBANDS =      -109.13404468
  atomic energy  EATOM  =      1448.48460880
  Solvation  Ediel_sol  =         0.00000000
  ---------------------------------------------------
  free energy    TOTEN  =       -33.67625278 eV

  energy without entropy =      -33.67625278  energy(sigma->0) =      -33.67625278


--------------------------------------------------------------------------------------------------------




--------------------------------------- Iteration      1(  12)  ---------------------------------------


    POTLOK:  cpu time      0.0038: real time      0.0039
    SETDIJ:  cpu time      0.1095: real time      0.1098
     EDDAV:  cpu time      0.2008: real time      0.2018
       DOS:  cpu time      0.0003: real time      0.0003
    --------------------------------------------
      LOOP:  cpu time      0.3144: real time      0.3158

 eigenvalue-minimisations  :  3280
 total energy-change (2. order) : 0.1290821E-06  (-0.7085101E-06)
 number of electron      39.9999990 magnetization 
 augmentation part       -7.3457140 magnetization 

 Free energy of the ion-electron system (eV)
  ---------------------------------------------------
  alpha Z        PSCENC =        82.34694348
  Ewald energy   TEWEN  =     -1388.09613754
  -Hartree energ DENC   =      -146.83189581
  -exchange      EXHF   =         0.00000000
  -V(xc)+E(xc)   XCENC  =       -32.97124958
  PAW double counting   =      1856.62754537    -1744.11269253
  entropy T*S    EENTRO =        -0.00000000
  eigenvalues    EBANDS =      -109.12337485
  atomic energy  EATOM  =      1448.48460880
  Solvation  Ediel_sol  =         0.00000000
  ---------------------------------------------------
  free energy    TOTEN  =       -33.67625266 eV

  energy without entropy =      -33.67625265  energy(sigma->0) =      -33.67625266


--------------------------------------------------------------------------------------------------------




 average (electrostatic) potential at core
  the test charge radii are     1.1631  1.0808
  (the norm of the test charge is              1.0000)
       1 -34.0433       2 -34.0433       3 -34.0433       4 -34.0433       5 -55.3901
       6 -55.3901       7 -55.3901       8 -55.3901
 
 
 
 E-fermi :   2.7540     XC(G=0):  -9.0362     alpha+bet : -8.2036

 Fermi energy:         2.7539893097

 k-point     1 :       0.0000    0.0000    0.0000
  band No.  band energies     occupation 
      1     -11.1452      2.00000
      2     -10.8636      2.00000
      3      -9.9000      2.00000
      4      -9.4986      2.00000
      5      -5.1519      2.00000
      6      -4.6385      2.00000
      7      -3.0446      2.00000
      8      -2.9495      2.00000
      9      -2.0452      2.00000
     10      -0.7492      2.00000
     11      -0.3745      2.00000
     12      -0.3660      2.00000
     13      -0.3073      2.00000
     14      -0.1735      2.00000
     15       0.5514      2.00000
     16       1.1333      2.00000
     17       1.4580      2.00000
     18       1.9635      2.00000
     19       2.1671      2.00000
     20       2.3421      2.00000
     21       3.8390      0.00000
     22       4.9263      0.00000
     23       4.9458      0.00000
     24       5.2166      0.00000
     25       5.4272      0.00000
     26       5.9861      0.00000
     27       6.2205      0.00000
     28       6.5368      0.00000
     29       7.4804      0.00000
     30       7.5248      0.00000
     31       8.2356      0.00000
     32       8.2778      0.00000

 k-point     2 :       0.1667    0.0000    0.0000
  band No.  band energies     occupation 
      1     -10.9912      2.00000
      2     -10.7245      2.00000
      3      -9.8361      2.00000
      4      -9.4960      2.00000
      5      -5.3671      2.00000
      6      -4.9043      2.00000
      7      -3.5850      2.00000
      8      -3.4265      2.00000
      9      -1.8620      2.00000
     10      -0.7410      2.00000
     11      -0.4330      2.00000
     12      -0.1637      2.00000
     13      -0.1468      2.00000
     14       0.0268      2.00000
     15       0.8328      2.00000
     16       0.9736      2.00000
     17       1.5476      2.00000
     18       2.1244      2.00000
     19       2.1294      2.00000
     20       2.1545      2.00000
     21       3.9918      0.00000
     22       4.8964      0.00000
     23       5.1631      0.00000
     24       5.4468      0.00000
     25       5.4782      0.00000
     26       5.7239      0.00000
     27       5.8952      0.00000
     28       6.2255      0.00000
     29       6.7542      0.00000
     30       7.2655      0.00000
     31       7.5942      0.00000
     32       8.0205      0.00000

 k-point     3 :       0.3333    0.0000    0.0000
  band No.  band energies     occupation 
      1     -10.5680      2.00000
      2     -10.3572      2.00000
      3      -9.7633      2.00000
      4      -9.6120      2.00000
      5      -5.7129      2.00000
      6      -5.2577      2.00000
      7      -4.7276      2.00000
      8      -4.2931      2.00000
      9      -1.3460      2.00000
     10      -0.5200      2.00000
     11      -0.2165      2.00000
     12       0.1738      2.00000
     13       0.2938      2.00000
     14       0.3934      2.00000
     15       0.8794      2.00000
     16       1.1664      2.00000
     17       1.5871      2.00000
     18       1.6586      2.00000
     19       1.9227      2.00000
     20       2.1222      2.00000
     21       3.8915      0.00000
     22       4.2345      0.00000
     23       4.5843      0.00000
     24       4.8918      0.00000
     25       5.0995      0.00000
     26       5.3194      0.00000
     27       5.4424      0.00000
     28       6.1307      0.00000
     29       6.5492      0.00000
     30       6.8312      0.00000
     31       6.8638      0.00000
     32       7.8915      0.00000

 k-point     4 :       0.5000    0.0000    0.0000
  band No.  band energies     occupation 
      1     -10.0190      2.00000
      2     -10.0190      2.00000
      3      -9.9427      2.00000
      4      -9.9427      2.00000
      5      -5.5637      2.00000
      6      -5.5637      2.00000
      7      -5.0567      2.00000
      8      -5.0567      2.00000
      9      -0.6755      2.00000
     10      -0.6755      2.00000
     11       0.2259      2.00000
     12       0.2259      2.00000
     13       0.5548      2.00000
     14       0.5548      2.00000
     15       1.0607      2.00000
     16       1.0607      2.00000
     17       1.5573      2.00000
     18       1.5573      2.00000
     19       1.6785      2.00000
     20       1.6785      2.00000
     21       4.0211      0.00000
     22       4.0211      0.00000
     23       4.4045      0.00000
     24       4.4045      0.00000
     25       4.9306      0.00000
     26       4.9306      0.00000
     27       5.3557      0.00000
     28       5.3557      0.00000
     29       6.2020      0.00000
     30       6.2020      0.00000
     31       7.4344      0.00000
     32       7.4344      0.00000

 k-point     5 :       0.0000    0.1667    0.0000
  band No.  band energies     occupation 
      1     -11.0323      2.00000
      2     -10.7579      2.00000
      3      -9.9160      2.00000
      4      -9.5528      2.00000
      5      -5.3586      2.00000
      6      -4.6914      2.00000
      7      -3.6456      2.00000
      8      -3.2455      2.00000
      9      -1.8376      2.00000
     10      -0.5996      2.00000
     11      -0.2371      2.00000
     12      -0.2349      2.00000
     13       0.1361      2.00000
     14       0.1426      2.00000
     15       0.6005      2.00000
     16       1.1204      2.00000
     17       1.6167      2.00000
     18       1.8158      2.00000
     19       2.2154      2.00000
     20       2.2671      2.00000
     21       3.9321      0.00000
     22       4.3963      0.00000
     23       4.9174      0.00000
     24       4.9425      0.00000
     25       5.4397      0.00000
     26       5.4522      0.00000
     27       6.1264      0.00000
     28       6.5746      0.00000
     29       6.7758      0.00000
     30       7.4618      0.00000
     31       7.6704      0.00000
     32       7.9565      0.00000

 k-point     6 :       0.1667    0.1667    0.0000
  band No.  band energies     occupation 
      1     -10.8840      2.00000
      2     -10.6253      2.00000
      3      -9.8518      2.00000
      4      -9.5416      2.00000
      5      -5.4638      2.00000
      6      -4.8669      2.00000
      7      -3.8712      2.00000
      8      -3.6583      2.00000
      9      -1.6903      2.00000
     10      -1.1779      2.00000
     11      -0.8904      2.00000
     12      -0.1210      2.00000
     13       0.4223      2.00000
     14       0.5578      2.00000
     15       0.6945      2.00000
     16       0.8926      2.00000
     17       1.7831      2.00000
     18       1.8654      2.00000
     19       2.1457      2.00000
     20       2.1902      2.00000
     21       4.0557      0.00000
     22       4.4441      0.00000
     23       4.8113      0.00000
     24       4.8304      0.00000
     25       5.5524      0.00000
     26       5.6983      0.00000
     27       6.3033      0.00000
     28       6.4462      0.00000
     29       6.9061      0.00000
     30       7.1992      0.00000
     31       7.2487      0.00000
     32       8.0465      0.00000

 k-point     7 :       0.1667   -0.1667    0.0000
  band No.  band energies     occupation 
      1     -10.8840      2.00000
      2     -10.6253      2.00000
      3      -9.8518      2.00000
      4      -9.5416      2.00000
      5      -5.4638      2.00000
      6      -4.8669      2.00000
      7      -3.8712      2.00000
      8      -3.6583      2.00000
      9      -1.6903      2.00000
     10      -1.1779      2.00000
     11      -0.8904      2.00000
     12      -0.1210      2.00000
     13       0.4223      2.00000
     14       0.5578      2.00000
     15       0.6945      2.00000
     16       0.8926      2.00000
     17       1.7831      2.00000
     18       1.8654      2.00000
     19       2.1457      2.00000
     20       2.1902      2.00000
     21       4.0557      0.00000
     22       4.4441      0.00000
     23       4.8113      0.00000
     24       4.8304      0.00000
     25       5.5524      0.00000
     26       5.6983      0.00000
     27       6.3033      0.00000
     28       6.4462      0.00000
     29       6.9061      0.00000
     30       7.1992      0.00000
     31       7.2487      0.00000
     32       8.0465      0.00000

 k-point     8 :       0.3333    0.1667    0.0000
  band No.  band energies     occupation 
      1     -10.4812      2.00000
      2     -10.2804      2.00000
      3      -9.7679      2.00000
      4      -9.6228      2.00000
      5      -5.6454      2.00000
      6      -5.1588      2.00000
      7      -4.7041      2.00000
      8      -4.3805      2.00000
      9      -1.2591      2.00000
     10      -1.2437      2.00000
     11      -0.9661      2.00000
     12      -0.2290      2.00000
     13       0.3941      2.00000
     14       0.5796      2.00000
     15       0.6339      2.00000
     16       0.9951      2.00000
     17       1.1874      2.00000
     18       1.7883      2.00000
     19       1.8451      2.00000
     20       1.9965      2.00000
     21       3.8811      0.00000
     22       4.5091      0.00000
     23       4.7543      0.00000
     24       5.0328      0.00000
     25       5.5628      0.00000
     26       5.8483      0.00000
     27       6.0868      0.00000
     28       6.8239      0.00000
     29       6.8774      0.00000
     30       6.9024      0.00000
     31       7.6327      0.00000
     32       7.6516      0.00000

 k-point     9 :       0.3333   -0.1667    0.0000
  band No.  band energies     occupation 
      1     -10.4812      2.00000
      2     -10.2804      2.00000
      3      -9.7679      2.00000
      4      -9.6228      2.00000
      5      -5.6454      2.00000
      6      -5.1588      2.00000
      7      -4.7041      2.00000
      8      -4.3805      2.00000
      9      -1.2591      2.00000
     10      -1.2437      2.00000
     11      -0.9661      2.00000
     12      -0.2290      2.00000
     13       0.3941      2.00000
     14       0.5796      2.00000
     15       0.6339      2.00000
     16       0.9951      2.00000
     17       1.1874      2.00000
     18       1.7883      2.00000
     19       1.8451      2.00000
     20       1.9965      2.00000
     21       3.8811      0.00000
     22       4.5091      0.00000
     23       4.7543      0.00000
     24       5.0328      0.00000
     25       5.5628      0.00000
     26       5.8483      0.00000
     27       6.0868      0.00000
     28       6.8239      0.00000
     29       6.8774      0.00000
     30       6.9024      0.00000
     31       7.6327      0.00000
     32       7.6516      0.00000

 k-point    10 :       0.5000    0.1667    0.0000
  band No.  band energies     occupation 
      1      -9.9746      2.00000
      2      -9.9746      2.00000
      3      -9.9075      2.00000
      4      -9.9075      2.00000
      5      -5.4594      2.00000
      6      -5.4594      2.00000
      7      -5.0144      2.00000
      8      -5.0144      2.00000
      9      -0.8863      2.00000
     10      -0.8863      2.00000
     11      -0.4488      2.00000
     12      -0.4488      2.00000
     13       0.0586      2.00000
     14       0.0586      2.00000
     15       0.6046      2.00000
     16       0.6046      2.00000
     17       1.3585      2.00000
     18       1.3585      2.00000
     19       1.9673      2.00000
     20       1.9673      2.00000
     21       4.0072      0.00000
     22       4.0072      0.00000
     23       5.0284      0.00000
     24       5.0284      0.00000
     25       5.9798      0.00000
     26       5.9798      0.00000
     27       6.1524      0.00000
     28       6.1524      0.00000
     29       6.8606      0.00000
     30       6.8606      0.00000
     31       7.1303      0.00000
     32       7.1303      0.00000

 k-point    11 :       0.0000    0.3333    0.0000
  band No.  band energies     occupation 
      1     -10.7254      2.00000
      2     -10.4699      2.00000
      3     -10.0318      2.00000
      4      -9.7481      2.00000
      5      -5.5709      2.00000
      6      -4.7331      2.00000
      7      -4.6135      2.00000
      8      -3.9045      2.00000
      9      -1.3221      2.00000
     10      -0.1880      2.00000
     11      -0.0186      2.00000
     12       0.1336      2.00000
     13       0.6227      2.00000
     14       0.7217      2.00000
     15       0.8195      2.00000
     16       0.9736      2.00000
     17       1.3701      2.00000
     18       1.9689      2.00000
     19       1.9708      2.00000
     20       2.5433      2.00000
     21       3.5329      0.00000
     22       4.0773      0.00000
     23       4.3824      0.00000
     24       4.5584      0.00000
     25       4.7751      0.00000
     26       5.3016      0.00000
     27       5.5920      0.00000
     28       5.6004      0.00000
     29       6.4697      0.00000
     30       6.5623      0.00000
     31       7.4335      0.00000
     32       8.2979      0.00000

 k-point    12 :       0.1667    0.3333    0.0000
  band No.  band energies     occupation 
      1     -10.5953      2.00000
      2     -10.3574      2.00000
      3      -9.9582      2.00000
      4      -9.7090      2.00000
      5      -5.5357      2.00000
      6      -4.7663      2.00000
      7      -4.6201      2.00000
      8      -4.0651      2.00000
      9      -1.2822      2.00000
     10      -1.2178      2.00000
     11      -0.9617      2.00000
     12      -0.2318      2.00000
     13      -0.0286      2.00000
     14       0.5156      2.00000
     15       0.8588      2.00000
     16       1.2774      2.00000
     17       1.6518      2.00000
     18       1.9146      2.00000
     19       2.0698      2.00000
     20       2.1185      2.00000
     21       3.9438      0.00000
     22       4.3066      0.00000
     23       4.5765      0.00000
     24       4.7387      0.00000
     25       5.1544      0.00000
     26       5.8682      0.00000
     27       5.9333      0.00000
     28       6.7201      0.00000
     29       6.7491      0.00000
     30       7.2811      0.00000
     31       7.3381      0.00000
     32       8.0185      0.00000

 k-point    13 :       0.1667   -0.3333    0.0000
  band No.  band energies     occupation 
      1     -10.5953      2.00000
      2     -10.3574      2.00000
      3      -9.9582      2.00000
      4      -9.7090      2.00000
      5      -5.5357      2.00000
      6      -4.7663      2.00000
      7      -4.6201      2.00000
      8      -4.0651      2.00000
      9      -1.2822      2.00000
     10      -1.2178      2.00000
     11      -0.9617      2.00000
     12      -0.2318      2.00000
     13      -0.0286      2.00000
     14       0.5156      2.00000
     15       0.8588      2.00000
     16       1.2774      2.00000
     17       1.6518      2.00000
     18       1.9146      2.00000
     19       2.0698      2.00000
     20       2.1185      2.00000
     21       3.9438      0.00000
     22       4.3066      0.00000
     23       4.5765      0.00000
     24       4.7387      0.00000
     25       5.1544      0.00000
     26       5.8682      0.00000
     27       5.9333      0.00000
     28       6.7201      0.00000
     29       6.7491      0.00000
     30       7.2811      0.00000
     31       7.3381      0.00000
     32       8.0185      0.00000

 k-point    14 :       0.3333    0.3333    0.0000
  band No.  band energies     occupation 
      1     -10.2562      2.00000
      2     -10.0825      2.00000
      3      -9.8233      2.00000
      4      -9.6880      2.00000
      5      -5.4558      2.00000
      6      -4.9186      2.00000
      7      -4.7928      2.00000
      8      -4.5577      2.00000
      9      -1.8587      2.00000
     10      -1.4727      2.00000
     11      -1.1790      2.00000
     12      -0.8884      2.00000
     13      -0.4045      2.00000
     14       0.0623      2.00000
     15       0.1887      2.00000
     16       0.7220      2.00000
     17       0.8812      2.00000
     18       1.4862      2.00000
     19       1.7233      2.00000
     20       1.9275      2.00000
     21       4.0614      0.00000
     22       5.2728      0.00000
     23       6.0254      0.00000
     24       6.0432      0.00000
     25       6.0526      0.00000
     26       6.4618      0.00000
     27       6.8160      0.00000
     28       6.9524      0.00000
     29       7.2963      0.00000
     30       7.6693      0.00000
     31       7.8826      0.00000
     32       8.4104      0.00000

 k-point    15 :       0.3333   -0.3333    0.0000
  band No.  band energies     occupation 
      1     -10.2562      2.00000
      2     -10.0825      2.00000
      3      -9.8233      2.00000
      4      -9.6880      2.00000
      5      -5.4558      2.00000
      6      -4.9186      2.00000
      7      -4.7928      2.00000
      8      -4.5577      2.00000
      9      -1.8587      2.00000
     10      -1.4727      2.00000
     11      -1.1790      2.00000
     12      -0.8884      2.00000
     13      -0.4045      2.00000
     14       0.0623      2.00000
     15       0.1887      2.00000
     16       0.7220      2.00000
     17       0.8812      2.00000
     18       1.4862      2.00000
     19       1.7233      2.00000
     20       1.9275      2.00000
     21       4.0614      0.00000
     22       5.2728      0.00000
     23       6.0254      0.00000
     24       6.0432      0.00000
     25       6.0526      0.00000
     26       6.4618      0.00000
     27       6.8160      0.00000
     28       6.9524      0.00000
     29       7.2963      0.00000
     30       7.6693      0.00000
     31       7.8826      0.00000
     32       8.4104      0.00000

 k-point    16 :       0.5000    0.3333    0.0000
  band No.  band energies     occupation 
      1      -9.8787      2.00000
      2      -9.8787      2.00000
      3      -9.8373      2.00000
      4      -9.8373      2.00000
      5      -5.2123      2.00000
      6      -5.2123      2.00000
      7      -4.9444      2.00000
      8      -4.9444      2.00000
      9      -1.5164      2.00000
     10      -1.5164      2.00000
     11      -1.2203      2.00000
     12      -1.2203      2.00000
     13      -0.4600      2.00000
     14      -0.4600      2.00000
     15       0.0749      2.00000
     16       0.0749      2.00000
     17       0.9067      2.00000
     18       0.9067      2.00000
     19       1.6613      2.00000
     20       1.6613      2.00000
     21       5.0150      0.00000
     22       5.0150      0.00000
     23       6.2790      0.00000
     24       6.2790      0.00000
     25       6.7830      0.00000
     26       6.7830      0.00000
     27       7.0402      0.00000
     28       7.0402      0.00000
     29       7.6215      0.00000
     30       7.6215      0.00000
     31       8.3624      0.00000
     32       8.3624      0.00000

 k-point    17 :       0.0000    0.5000    0.0000
  band No.  band energies     occupation 
      1     -10.3326      2.00000
      2     -10.3326      2.00000
      3     -10.0888      2.00000
      4     -10.0888      2.00000
      5      -5.3370      2.00000
      6      -5.3370      2.00000
      7      -4.4815      2.00000
      8      -4.4815      2.00000
      9      -0.5914      2.00000
     10      -0.5914      2.00000
     11       0.3329      2.00000
     12       0.3329      2.00000
     13       0.5991      2.00000
     14       0.5991      2.00000
     15       1.3742      2.00000
     16       1.3742      2.00000
     17       1.4921      2.00000
     18       1.4921      2.00000
     19       2.0382      2.00000
     20       2.0382      2.00000
     21       3.7152      0.00000
     22       3.7152      0.00000
     23       4.4462      0.00000
     24       4.4462      0.00000
     25       4.8028      0.00000
     26       4.8028      0.00000
     27       5.3631      0.00000
     28       5.3631      0.00000
     29       5.7347      0.00000
     30       5.7347      0.00000
     31       8.2008      0.00000
     32       8.2008      0.00000

 k-point    18 :       0.1667    0.5000    0.0000
  band No.  band energies     occupation 
      1     -10.2320      2.00000
      2     -10.2320      2.00000
      3     -10.0101      2.00000
      4     -10.0101      2.00000
      5      -5.2678      2.00000
      6      -5.2678      2.00000
      7      -4.5015      2.00000
      8      -4.5015      2.00000
      9      -0.9381      2.00000
     10      -0.9381      2.00000
     11      -0.6086      2.00000
     12      -0.6086      2.00000
     13      -0.2148      2.00000
     14      -0.2148      2.00000
     15       1.1077      2.00000
     16       1.1077      2.00000
     17       1.7580      2.00000
     18       1.7580      2.00000
     19       2.2051      2.00000
     20       2.2051      2.00000
     21       4.0703      0.00000
     22       4.0703      0.00000
     23       4.5110      0.00000
     24       4.5110      0.00000
     25       5.6331      0.00000
     26       5.6331      0.00000
     27       6.2527      0.00000
     28       6.2527      0.00000
     29       6.7241      0.00000
     30       6.7241      0.00000
     31       7.8873      0.00000
     32       7.8873      0.00000

 k-point    19 :       0.3333    0.5000    0.0000
  band No.  band energies     occupation 
      1      -9.9960      2.00000
      2      -9.9960      2.00000
      3      -9.8521      2.00000
      4      -9.8521      2.00000
      5      -5.1474      2.00000
      6      -5.1474      2.00000
      7      -4.6857      2.00000
      8      -4.6857      2.00000
      9      -1.7857      2.00000
     10      -1.7857      2.00000
     11      -1.2733      2.00000
     12      -1.2733      2.00000
     13      -0.4608      2.00000
     14      -0.4608      2.00000
     15       0.3572      2.00000
     16       0.3572      2.00000
     17       0.9238      2.00000
     18       0.9238      2.00000
     19       1.7432      2.00000
     20       1.7432      2.00000
     21       5.0243      0.00000
     22       5.0244      0.00000
     23       6.2548      0.00000
     24       6.2548      0.00000
     25       6.8131      0.00000
     26       6.8131      0.00000
     27       7.1817      0.00000
     28       7.1817      0.00000
     29       7.6969      0.00000
     30       7.6969      0.00000
     31       8.1600      0.00000
     32       8.1600      0.00000

 k-point    20 :       0.5000    0.5000    0.0000
  band No.  band energies     occupation 
      1      -9.8222      2.00000
      2      -9.8222      2.00000
      3      -9.8071      2.00000
      4      -9.8071      2.00000
      5      -5.0434      2.00000
      6      -5.0434      2.00000
      7      -4.9395      2.00000
      8      -4.9395      2.00000
      9      -1.7761      2.00000
     10      -1.7761      2.00000
     11      -1.5820      2.00000
     12      -1.5820      2.00000
     13      -0.6030      2.00000
     14      -0.6030      2.00000
     15      -0.3181      2.00000
     16      -0.3181      2.00000
     17       1.0009      2.00000
     18       1.0009      2.00000
[...]
     32       7.4126      0.00000

 k-point    32 :       0.1667    0.3333    0.5000
  band No.  band energies     occupation 
      1     -10.4987      2.00000
      2     -10.4987      2.00000
      3      -9.8117      2.00000
      4      -9.8117      2.00000
      5      -5.2464      2.00000
      6      -5.2464      2.00000
      7      -4.2845      2.00000
      8      -4.2845      2.00000
      9      -1.1644      2.00000
     10      -1.1644      2.00000
     11      -0.4542      2.00000
     12      -0.4542      2.00000
     13       0.0453      2.00000
     14       0.0453      2.00000
     15       1.0026      2.00000
     16       1.0026      2.00000
     17       1.6814      2.00000
     18       1.6814      2.00000
     19       2.0783      2.00000
     20       2.0783      2.00000
     21       4.3763      0.00000
     22       4.3763      0.00000
     23       4.7595      0.00000
     24       4.7595      0.00000
     25       5.7427      0.00000
     26       5.7427      0.00000
     27       6.0385      0.00000
     28       6.0385      0.00000
     29       6.9236      0.00000
     30       6.9236      0.00000
     31       7.3301      0.00000
     32       7.3301      0.00000

 k-point    33 :       0.1667   -0.3333    0.5000
  band No.  band energies     occupation 
      1     -10.4987      2.00000
      2     -10.4987      2.00000
      3      -9.8117      2.00000
      4      -9.8117      2.00000
      5      -5.2464      2.00000
      6      -5.2464      2.00000
      7      -4.2845      2.00000
      8      -4.2845      2.00000
      9      -1.1644      2.00000
     10      -1.1644      2.00000
     11      -0.4542      2.00000
     12      -0.4542      2.00000
     13       0.0453      2.00000
     14       0.0453      2.00000
     15       1.0026      2.00000
     16       1.0026      2.00000
     17       1.6814      2.00000
     18       1.6814      2.00000
     19       2.0783      2.00000
     20       2.0783      2.00000
     21       4.3763      0.00000
     22       4.3763      0.00000
     23       4.7595      0.00000
     24       4.7595      0.00000
     25       5.7427      0.00000
     26       5.7427      0.00000
     27       6.0385      0.00000
     28       6.0385      0.00000
     29       6.9236      0.00000
     30       6.9236      0.00000
     31       7.3301      0.00000
     32       7.3301      0.00000

 k-point    34 :       0.3333    0.3333    0.5000
  band No.  band energies     occupation 
      1     -10.1840      2.00000
      2     -10.1840      2.00000
      3      -9.7412      2.00000
      4      -9.7412      2.00000
      5      -5.2363      2.00000
      6      -5.2363      2.00000
      7      -4.6430      2.00000
      8      -4.6430      2.00000
      9      -1.6760      2.00000
     10      -1.6760      2.00000
     11      -0.8700      2.00000
     12      -0.8700      2.00000
     13      -0.3383      2.00000
     14      -0.3383      2.00000
     15       0.3409      2.00000
     16       0.3409      2.00000
     17       1.2009      2.00000
     18       1.2009      2.00000
     19       1.9121      2.00000
     20       1.9121      2.00000
     21       5.0974      0.00000
     22       5.0974      0.00000
     23       5.6887      0.00000
     24       5.6887      0.00000
     25       6.0544      0.00000
     26       6.0544      0.00000
     27       6.7860      0.00000
     28       6.7860      0.00000
     29       7.1434      0.00000
     30       7.1434      0.00000
     31       8.3051      0.00000
     32       8.3051      0.00000

 k-point    35 :       0.3333   -0.3333    0.5000
  band No.  band energies     occupation 
      1     -10.1840      2.00000
      2     -10.1840      2.00000
      3      -9.7412      2.00000
      4      -9.7412      2.00000
      5      -5.2363      2.00000
      6      -5.2363      2.00000
      7      -4.6430      2.00000
      8      -4.6430      2.00000
      9      -1.6760      2.00000
     10      -1.6760      2.00000
     11      -0.8700      2.00000
     12      -0.8700      2.00000
     13      -0.3383      2.00000
     14      -0.3383      2.00000
     15       0.3409      2.00000
     16       0.3409      2.00000
     17       1.2009      2.00000
     18       1.2009      2.00000
     19       1.9121      2.00000
     20       1.9121      2.00000
     21       5.0974      0.00000
     22       5.0974      0.00000
     23       5.6887      0.00000
     24       5.6887      0.00000
     25       6.0544      0.00000
     26       6.0544      0.00000
     27       6.7860      0.00000
     28       6.7860      0.00000
     29       7.1434      0.00000
     30       7.1434      0.00000
     31       8.3051      0.00000
     32       8.3051      0.00000

 k-point    36 :       0.5000    0.3333    0.5000
  band No.  band energies     occupation 
      1      -9.8582      2.00000
      2      -9.8582      2.00000
      3      -9.8582      2.00000
      4      -9.8582      2.00000
      5      -5.0844      2.00000
      6      -5.0844      2.00000
      7      -5.0844      2.00000
      8      -5.0844      2.00000
      9      -1.2909      2.00000
     10      -1.2909      2.00000
     11      -1.2909      2.00000
     12      -1.2909      2.00000
     13      -0.4096      2.00000
     14      -0.4096      2.00000
     15      -0.4096      2.00000
     16      -0.4096      2.00000
     17       1.4635      2.00000
     18       1.4635      2.00000
     19       1.4635      2.00000
     20       1.4635      2.00000
     21       5.5925      0.00000
     22       5.5925      0.00000
     23       5.5925      0.00000
     24       5.5925      0.00000
     25       6.5522      0.00000
     26       6.5522      0.00000
     27       6.5522      0.00000
     28       6.5522      0.00000
     29       8.1070      0.00000
     30       8.1070      0.00000
     31       8.1070      0.00000
     32       8.1070      0.00000

 k-point    37 :       0.0000    0.5000    0.5000
  band No.  band energies     occupation 
      1     -10.3281      2.00000
      2     -10.3281      2.00000
      3     -10.0947      2.00000
      4     -10.0947      2.00000
      5      -5.2371      2.00000
      6      -5.2371      2.00000
      7      -4.6363      2.00000
      8      -4.6363      2.00000
      9       0.0647      2.00000
     10       0.0647      2.00000
     11       0.3410      2.00000
     12       0.3410      2.00000
     13       0.3790      2.00000
     14       0.3790      2.00000
     15       0.5884      2.00000
     16       0.5884      2.00000
     17       1.8277      2.00000
     18       1.8277      2.00000
     19       1.8834      2.00000
     20       1.8834      2.00000
     21       3.8474      0.00000
     22       3.8474      0.00000
     23       4.3199      0.00000
     24       4.3199      0.00000
     25       4.8775      0.00000
     26       4.8775      0.00000
     27       5.6292      0.00000
     28       5.6292      0.00000
     29       6.2081      0.00000
     30       6.2081      0.00000
     31       7.2753      0.00000
     32       7.2753      0.00000

 k-point    38 :       0.1667    0.5000    0.5000
  band No.  band energies     occupation 
      1     -10.2278      2.00000
      2     -10.2278      2.00000
      3     -10.0154      2.00000
      4     -10.0154      2.00000
      5      -5.1848      2.00000
      6      -5.1848      2.00000
      7      -4.6239      2.00000
      8      -4.6239      2.00000
      9      -0.8080      2.00000
     10      -0.8080      2.00000
     11      -0.7258      2.00000
     12      -0.7258      2.00000
     13       0.3713      2.00000
     14       0.3713      2.00000
     15       0.4776      2.00000
     16       0.4776      2.00000
     17       1.7346      2.00000
     18       1.7346      2.00000
     19       2.0317      2.00000
     20       2.0317      2.00000
     21       4.4867      0.00000
     22       4.4867      0.00000
     23       4.5625      0.00000
     24       4.5625      0.00000
     25       5.7661      0.00000
     26       5.7661      0.00000
     27       6.2381      0.00000
     28       6.2381      0.00000
     29       6.7674      0.00000
     30       6.7674      0.00000
     31       7.0910      0.00000
     32       7.0910      0.00000

 k-point    39 :       0.3333    0.5000    0.5000
  band No.  band energies     occupation 
      1      -9.9931      2.00000
      2      -9.9931      2.00000
      3      -9.8555      2.00000
      4      -9.8555      2.00000
      5      -5.1066      2.00000
      6      -5.1066      2.00000
      7      -4.7388      2.00000
      8      -4.7388      2.00000
      9      -1.5469      2.00000
     10      -1.5469      2.00000
     11      -1.5322      2.00000
     12      -1.5322      2.00000
     13      -0.1728      2.00000
     14      -0.1728      2.00000
     15      -0.1451      2.00000
     16      -0.1451      2.00000
     17       1.3268      2.00000
     18       1.3268      2.00000
     19       1.6203      2.00000
     20       1.6203      2.00000
     21       5.4602      0.00000
     22       5.4602      0.00000
     23       5.9459      0.00000
     24       5.9459      0.00000
     25       6.4904      0.00000
     26       6.4904      0.00000
     27       6.5265      0.00000
     28       6.5265      0.00000
     29       7.9490      0.00000
     30       7.9490      0.00000
     31       8.1644      0.00000
     32       8.1644      0.00000

 k-point    40 :       0.5000    0.5000    0.5000
  band No.  band energies     occupation 
      1      -9.8147      2.00000
      2      -9.8147      2.00000
      3      -9.8147      2.00000
      4      -9.8147      2.00000
      5      -4.9954      2.00000
      6      -4.9954      2.00000
      7      -4.9954      2.00000
      8      -4.9954      2.00000
      9      -1.5210      2.00000
     10      -1.5210      2.00000
     11      -1.5210      2.00000
     12      -1.5210      2.00000
     13      -0.8048      2.00000
     14      -0.8048      2.00000
     15      -0.8048      2.00000
     16      -0.8048      2.00000
     17       1.4948      2.00000
     18       1.4948      2.00000
     19       1.4948      2.00000
     20       1.4948      2.00000
     21       5.4908      0.00000
     22       5.4908      0.00000
     23       5.4908      0.00000
     24       5.4908      0.00000
     25       7.3208      0.00000
     26       7.3208      0.00000
     27       7.3208      0.00000
     28       7.3208      0.00000
     29       8.9231      0.00000
     30       8.9231      0.00000
     31       8.9231      0.00000
     32       8.9231      0.00000


--------------------------------------------------------------------------------------------------------


 soft charge-density along one line, spin component            1
         0         1         2         3         4         5         6         7         8         9
 total charge-density along one line
 
 pseudopotential strength for first ion, spin component:            1
 14.675  18.313   0.036   0.048  -0.000   0.065   0.087  -0.000
 18.313  22.869   0.046   0.061  -0.000   0.083   0.110  -0.000
  0.036   0.046   3.251  -0.002   0.000   5.535  -0.003   0.000
  0.048   0.061  -0.002   3.246  -0.000  -0.003   5.527  -0.000
 -0.000  -0.000   0.000  -0.000   3.250   0.000  -0.000   5.535
  0.065   0.083   5.535  -0.003   0.000   9.484  -0.006   0.000
  0.087   0.110  -0.003   5.527  -0.000  -0.006   9.470  -0.000
 -0.000  -0.000   0.000  -0.000   5.535   0.000  -0.000   9.484
  0.000   0.000   0.000   0.000   0.005  -0.000   0.000   0.010
 -0.004  -0.005   0.013   0.012   0.000   0.023   0.020   0.000
 -0.006  -0.007  -0.003   0.012   0.000  -0.005   0.023   0.000
 -0.000  -0.000   0.000  -0.000   0.013   0.000  -0.000   0.023
 -0.000  -0.000  -0.011  -0.000  -0.000  -0.020  -0.000  -0.000
 total augmentation occupancy for first ion, spin component:            1
  2.590  -0.608   0.253   0.395   0.000  -0.039  -0.071  -0.000   0.000  -0.017   0.007   0.000   0.015
 -0.608   0.614  -0.354  -0.509  -0.000   0.052   0.078   0.000   0.000   0.014  -0.005  -0.000  -0.014
  0.253  -0.354   1.074   0.015   0.000  -0.166   0.011  -0.000  -0.000   0.040  -0.085  -0.000   0.015
  0.395  -0.509   0.015   1.330   0.000   0.010  -0.210  -0.000  -0.000  -0.030   0.117   0.000  -0.002
  0.000  -0.000   0.000   0.000   1.146  -0.000   0.000  -0.192   0.121   0.000  -0.000   0.033  -0.000
 -0.039   0.052  -0.166   0.010  -0.000   0.029  -0.004   0.000   0.000  -0.006   0.014   0.000  -0.002
 -0.071   0.078   0.011  -0.210   0.000  -0.004   0.038  -0.000   0.000   0.005  -0.020  -0.000   0.000
 -0.000   0.000  -0.000  -0.000  -0.192   0.000  -0.000   0.036  -0.021   0.000  -0.000  -0.005   0.000
  0.000   0.000  -0.000  -0.000   0.121   0.000   0.000  -0.021   0.025   0.000   0.000   0.002  -0.000
 -0.017   0.014   0.040  -0.030   0.000  -0.006   0.005   0.000   0.000   0.011  -0.007  -0.000   0.002
  0.007  -0.005  -0.085   0.117  -0.000   0.014  -0.020  -0.000   0.000  -0.007   0.030  -0.000  -0.004
  0.000  -0.000  -0.000   0.000   0.033   0.000  -0.000  -0.005   0.002  -0.000  -0.000   0.009  -0.000
  0.015  -0.014   0.015  -0.002  -0.000  -0.002   0.000   0.000  -0.000   0.002  -0.004  -0.000   0.008


------------------------ aborting loop because EDIFF is reached ----------------------------------------


    CHARGE:  cpu time      0.0034: real time      0.0035
    FORLOC:  cpu time      0.0002: real time      0.0002
    FORNL :  cpu time      0.0195: real time      0.0195
    STRESS:  cpu time      0.1966: real time      0.1975
    FORCOR:  cpu time      0.0038: real time      0.0038
    FORHAR:  cpu time      0.0009: real time      0.0009
    MIXING:  cpu time      0.0007: real time      0.0007
    OFIELD:  cpu time      0.0000: real time      0.0000

  FORCE on cell =-STRESS in cart. coord.  units (eV):
  Direction    XX          YY          ZZ          XY          YZ          ZX
  --------------------------------------------------------------------------------------
  Alpha Z    82.34694    82.34694    82.34694
  Ewald    -421.11848  -489.72949  -477.24957    -0.00000     0.00000    -0.00000
  Hartree    67.83885    44.40224    34.59754     0.00000     0.00000    -0.00000
  E(xc)    -140.04383  -140.26798  -140.76617     0.00000    -0.00000     0.00000
  Local    -204.52860  -119.80540  -125.16311    -0.00000     0.00000     0.00000
  n-local   238.14389   237.18800   241.85266     0.00000    -0.00000    -0.00000
  augment   -11.29560   -11.87075   -12.24200     0.00000     0.00000    -0.00000
  Kinetic   383.91856   396.51154   396.81579    -0.00000    -0.00000     0.00000
  Fock        0.00000     0.00000     0.00000     0.00000     0.00000     0.00000
  -------------------------------------------------------------------------------------
  Total      -4.73827    -1.22490     0.19209    -0.00000    -0.00000     0.00000
  in kB     -36.89356    -9.53742     1.49567    -0.00002    -0.00000     0.00000
  external pressure =      -14.98 kB  Pullay stress =        0.00 kB


 VOLUME and BASIS-vectors are now :
 -----------------------------------------------------------------------------
  energy-cutoff  :      360.00
  volume of cell :      205.77
      direct lattice vectors                 reciprocal lattice vectors
     4.150000000  0.000000000  0.000000000     0.240963855  0.000000000  0.000000000
     0.000000000  4.450000000  0.000000000     0.000000000  0.224719101  0.000000000
     0.000000000  0.000000000 11.142221000     0.000000000  0.000000000  0.089748713

  length of vectors
     4.150000000  4.450000000 11.142221000     0.240963855  0.224719101  0.089748713


 FORCES acting on ions
    electron-ion (+dipol)            ewald-force                    non-local-force                 convergence-correction
 -----------------------------------------------------------------------------------------------
   -.573E-06 0.116E+02 0.276E+02   -.392E-14 -.141E+02 -.307E+02   0.338E-06 0.251E+01 0.304E+01   0.244E-07 0.723E-04 -.975E-03
   -.387E-06 0.116E+02 -.276E+02   -.112E-13 -.141E+02 0.307E+02   0.302E-06 0.251E+01 -.304E+01   -.180E-06 0.732E-04 0.983E-03
   0.527E-06 -.116E+02 -.276E+02   0.446E-14 0.141E+02 0.307E+02   -.327E-06 -.251E+01 -.304E+01   -.427E-07 -.710E-04 0.972E-03
   -.409E-06 -.116E+02 0.276E+02   0.129E-13 0.141E+02 -.307E+02   0.144E-06 -.251E+01 0.304E+01   0.531E-06 -.738E-04 -.982E-03
   -.384E-06 -.106E+02 -.286E+02   0.111E-13 0.119E+02 0.304E+02   0.229E-06 -.130E+01 -.183E+01   0.905E-06 0.443E-03 0.240E-02
   0.429E-07 -.106E+02 0.286E+02   0.102E-13 0.119E+02 -.304E+02   0.138E-06 -.130E+01 0.183E+01   0.504E-06 0.444E-03 -.238E-02
   0.183E-05 0.106E+02 0.286E+02   -.115E-13 -.119E+02 -.304E+02   -.794E-06 0.130E+01 0.183E+01   -.163E-05 -.445E-03 -.240E-02
   0.844E-06 0.106E+02 -.286E+02   -.395E-14 -.119E+02 0.304E+02   -.666E-06 0.130E+01 -.183E+01   -.718E-06 -.445E-03 0.238E-02
 -----------------------------------------------------------------------------------------------
   0.149E-05 0.818E-06 0.622E-06   0.813E-14 0.178E-14 0.000E+00   -.636E-06 0.130E-05 0.640E-06   -.601E-06 -.221E-05 -.111E-05
 
 
 POSITION                                       TOTAL-FORCE (eV/Angst)
 -----------------------------------------------------------------------------------
      1.03750      0.47369      1.43921        -0.000000     -0.027550      0.009435
      3.11250      2.69869      4.13191        -0.000000     -0.027550     -0.009436
      3.11250      3.97631      9.70302         0.000000      0.027550     -0.009435
      1.03750      1.75131      7.01032         0.000000      0.027549      0.009436
      1.03750      4.36248      3.94289         0.000001      0.047439      0.001983
      3.11250      2.13748      1.62822         0.000001      0.047439     -0.001984
      3.11250      0.08752      7.19933        -0.000001     -0.047439     -0.001983
      1.03750      2.31252      9.51400        -0.000001     -0.047439      0.001984
 -----------------------------------------------------------------------------------
    total drift:                                0.000000     -0.000000      0.000000


--------------------------------------------------------------------------------------------------------



  FREE ENERGIE OF THE ION-ELECTRON SYSTEM (eV)
  ---------------------------------------------------
  free  energy   TOTEN  =       -33.67625266 eV

  energy  without entropy=      -33.67625265  energy(sigma->0) =      -33.67625266
 


--------------------------------------------------------------------------------------------------------


    POTLOK:  cpu time      0.1137: real time      0.1143


--------------------------------------------------------------------------------------------------------


     LOOP+:  cpu time      4.9274: real time      4.9715
    4ORBIT:  cpu time      0.0000: real time      0.0000

 total amount of memory used by VASP MPI-rank0    38922. kBytes
=======================================================================

   base      :      30000. kBytes
   nonl-proj :       6893. kBytes
   fftplans  :        373. kBytes
   grid      :        555. kBytes
   one-center:         16. kBytes
   wavefun   :       1085. kBytes
 
  
  
 General timing and accounting informations for this job:
 ========================================================
  
                  Total CPU time used (sec):        5.749
                            User time (sec):        5.480
                          System time (sec):        0.270
                         Elapsed time (sec):        7.395
  
                   Maximum memory used (kb):      191868.
                   Average memory used (kb):          N/A
  
                          Minor page faults:        22224
                          Major page faults:           31
                 Voluntary context switches:         4519
