 vasp.6.4.2 20Jul23 (build Oct 12 2023 10:31:02) complex                         
 executed on              LinuxNV date 2025.05.27  14:36:32
 running   32 mpi-ranks, with    1 threads/rank, on    2 nodes
 distrk:  each k-point on   16 cores,    2 groups
 distr:  one band on NCORE=   1 cores,   16 groups


--------------------------------------------------------------------------------------------------------


 INCAR:
   ENCUT = 520.000000
   SIGMA = 0.050000
   EDIFF = 1.00e-06
   ALGO = N
   GGA = PE
   PREC = Accurate
   SYSTEM = 02_SCF
   ICHARG = 0
   ISMEAR = 0
   ISPIN = 2
   ISTART = 1
   KPAR = 2
   LORBIT = 11
   NBANDS = 220
   NELM = 100
   NELMIN = 5
   LASPH = .TRUE.
   LCHARG = .TRUE.
   LWAVE = .TRUE.
   LREAL = .FALSE.

 POTCAR:    PAW_PBE Ge 05Jan2001                  
 POTCAR:    PAW_PBE Se 06Sep2000                  
 -----------------------------------------------------------------------------
|                                                                             |
|           W    W    AA    RRRRR   N    N  II  N    N   GGGG   !!!           |
|           W    W   A  A   R    R  NN   N  II  NN   N  G    G  !!!           |
|           W    W  A    A  R    R  N N  N  II  N N  N  G       !!!           |
|           W WW W  AAAAAA  RRRRR   N  N N  II  N  N N  G  GGG   !            |
|           WW  WW  A    A  R   R   N   NN  II  N   NN  G    G                |
|           W    W  A    A  R    R  N    N  II  N    N   GGGG   !!!           |
|                                                                             |
|     You use a magnetic or noncollinear calculation, but did not specify     |
|     the initial magnetic moment with the MAGMOM tag. Note that a            |
|     default of 1 will be used for all atoms. This ferromagnetic setup       |
|     may break the symmetry of the crystal, in particular it may rule        |
|     out finding an antiferromagnetic solution. Thence, we recommend         |
|     setting the initial magnetic moment manually or verifying carefully     |
|     that this magnetic setup is desired.                                    |
|                                                                             |
 -----------------------------------------------------------------------------

 POTCAR:    PAW_PBE Ge 05Jan2001                  
   VRHFIN =Ge: s2p2                                                                                 
   LEXCH  = PE                                                                                      
   EATOM  =   104.9960 eV,    7.7170 Ry                                                             
                                                                                                    
   TITEL  = PAW_PBE Ge 05Jan2001                                                                    
   LULTRA =        F    use ultrasoft PP ?                                                          
   IUNSCR =        1    unscreen: 0-lin 1-nonlin 2-no                                               
   RPACOR =    2.170    partial core radius                                                         
   POMASS =   72.610; ZVAL   =    4.000    mass and valenz                                          
   RCORE  =    2.300    outmost cutoff radius                                                       
   RWIGS  =    2.300; RWIGS  =    1.217    wigner-seitz radius (au A)                               
   ENMAX  =  173.807; ENMIN  =  130.355 eV                                                          
   ICORE  =        3    local potential                                                             
   LCOR   =        T    correct aug charges                                                         
   LPAW   =        T    paw PP                                                                      
   EAUG   =  385.843                                                                                
   DEXC   =    0.000                                                                                
   RMAX   =    2.342    core radius for proj-oper                                                   
   RAUG   =    1.300    factor for augmentation sphere                                              
   RDEP   =    2.318    radius for radial grids                                                     
   RDEPT  =    2.103    core radius for aug-charge                                                  
                                                                                                    
   Atomic configuration                                                                             
   10 entries                                                                                       
     n  l   j            E        occ.                                                              
     1  0  0.50    -10959.8463   2.0000                                                             
     2  0  0.50     -1371.6056   2.0000                                                             
     2  1  1.50     -1198.4791   6.0000                                                             
     3  0  0.50      -168.4733   2.0000                                                             
     3  1  1.50      -115.6019   6.0000                                                             
     3  2  2.50       -29.3106  10.0000                                                             
     4  0  0.50       -11.7309   2.0000                                                             
     4  1  0.50        -3.8952   2.0000                                                             
     4  2  1.50        -4.0817   0.0000                                                             
     4  3  2.50        -4.0817   0.0000                                                             
   Description                                                                                      
     l       E           TYP  RCUT    TYP  RCUT                                                     
     0    -11.7309493     23  2.300                                                                 
     0     -7.4578696     23  2.300                                                                 
     1     -3.8952261     23  2.300                                                                 
     1      6.1178114     23  2.300                                                                 
     2     -4.0817478     23  2.300                                                                 
     3     -1.3605826      7  2.300                                                                 
  local pseudopotential read in
  partial core-charges read in
  partial kinetic energy density read in
  atomic valenz-charges read in
  non local Contribution for L=            0  read in
    real space projection operators read in
  non local Contribution for L=            0  read in
    real space projection operators read in
  non local Contribution for L=            1  read in
    real space projection operators read in
  non local Contribution for L=            1  read in
    real space projection operators read in
  non local Contribution for L=            2  read in
    real space projection operators read in
    PAW grid and wavefunctions read in
 
   number of l-projection  operators is LMAX  =            5
   number of lm-projection operators is LMMAX =           13
 
 POTCAR:    PAW_PBE Se 06Sep2000                  
   VRHFIN =Se: s2p4                                                                                 
   LEXCH  = PE                                                                                      
   EATOM  =   257.1286 eV,   18.8984 Ry                                                             
                                                                                                    
   TITEL  = PAW_PBE Se 06Sep2000                                                                    
   LULTRA =        F    use ultrasoft PP ?                                                          
   IUNSCR =        1    unscreen: 0-lin 1-nonlin 2-no                                               
   RPACOR =    1.900    partial core radius                                                         
   POMASS =   78.960; ZVAL   =    6.000    mass and valenz                                          
   RCORE  =    2.100    outmost cutoff radius                                                       
   RWIGS  =    2.200; RWIGS  =    1.164    wigner-seitz radius (au A)                               
   ENMAX  =  211.555; ENMIN  =  158.666 eV                                                          
   ICORE  =        3    local potential                                                             
   LCOR   =        T    correct aug charges                                                         
   LPAW   =        T    paw PP                                                                      
   EAUG   =  446.842                                                                                
   DEXC   =    0.000                                                                                
   RMAX   =    2.147    core radius for proj-oper                                                   
   RAUG   =    1.300    factor for augmentation sphere                                              
   RDEP   =    2.177    radius for radial grids                                                     
   RDEPT  =    1.928    core radius for aug-charge                                                  
                                                                                                    
   Atomic configuration                                                                             
   10 entries                                                                                       
     n  l   j            E        occ.                                                              
     1  0  0.50    -12503.4787   2.0000                                                             
     2  0  0.50     -1606.9547   2.0000                                                             
     2  1  1.50     -1413.3140   6.0000                                                             
     3  0  0.50      -213.4885   2.0000                                                             
     3  1  1.50      -152.9538   6.0000                                                             
     3  2  2.50       -53.1221  10.0000                                                             
     4  0  0.50       -17.2865   2.0000                                                             
     4  1  0.50        -6.5110   4.0000                                                             
     4  2  2.50        -6.8029   0.0000                                                             
     4  3  2.50        -6.8029   0.0000                                                             
   Description                                                                                      
     l       E           TYP  RCUT    TYP  RCUT                                                     
     0    -17.2865377     23  2.100                                                                 
     0    -15.3094411     23  2.100                                                                 
     1     -6.5110275     23  2.100                                                                 
     1     -0.0695192     23  2.100                                                                 
     2     -6.8029130     23  2.100                                                                 
     3     -1.3605826      7  2.100                                                                 
  local pseudopotential read in
  partial core-charges read in
  partial kinetic energy density read in
  atomic valenz-charges read in
  non local Contribution for L=            0  read in
    real space projection operators read in
  non local Contribution for L=            0  read in
    real space projection operators read in
  non local Contribution for L=            1  read in
    real space projection operators read in
  non local Contribution for L=            1  read in
    real space projection operators read in
  non local Contribution for L=            2  read in
    real space projection operators read in
    PAW grid and wavefunctions read in
 
   number of l-projection  operators is LMAX  =            5
   number of lm-projection operators is LMMAX =           13
 
  PAW_PBE Ge 05Jan2001                  :
 energy of atom  1       EATOM= -104.9960
 kinetic energy error for atom=    0.0002 (will be added to EATOM!!)
  PAW_PBE Se 06Sep2000                  :
 energy of atom  2       EATOM= -257.1286
 kinetic energy error for atom=    0.0007 (will be added to EATOM!!)
 
 
 POSCAR: Ge Se
  positions in cartesian coordinates
  No initial velocities read in
 exchange correlation table for  LEXCH =        8
   RHO(1)=    0.500       N(1)  =     2000
   RHO(2)=  100.500       N(2)  =     4000
 


--------------------------------------------------------------------------------------------------------


 ion  position               nearest neighbor table
   1  0.250  0.116  0.124-   3 2.60   3 2.60   4 2.60
   2  0.750  0.616  0.376-   4 2.60   4 2.60   3 2.60
   3  0.750  0.495  0.147-   1 2.60   1 2.60   2 2.60
   4  0.250  0.995  0.353-   2 2.60   2 2.60   1 2.60
 
  LATTYP: Found a simple orthorhombic cell.
 ALAT       =     3.8581001759
 B/A-ratio  =     1.1732653073
 C/A-ratio  =     2.8732215242
  
  Lattice vectors:
  
 A1 = (   3.8581001759,   0.0000000000,   0.0000000000)
 A2 = (   0.0000000000,   4.5265750885,   0.0000000000)
 A3 = (   0.0000000000,   0.0000000000,  11.0851764679)


Analysis of symmetry for initial positions (statically):
=====================================================================
 Subroutine PRICEL returns:
 Original cell was already a primitive cell.
 

 Routine SETGRP: Setting up the symmetry group for a 
 simple orthorhombic supercell.


 Subroutine GETGRP returns: Found  4 space group operations
 (whereof  1 operations were pure point group operations)
 out of a pool of  8 trial point group operations.


The static configuration has the point symmetry C_1 .
 The point group associated with its full space group is C_2v.


Analysis of symmetry for dynamics (positions and initial velocities):
=====================================================================
 Subroutine PRICEL returns:
 Original cell was already a primitive cell.
 

 Routine SETGRP: Setting up the symmetry group for a 
 simple orthorhombic supercell.


 Subroutine GETGRP returns: Found  4 space group operations
 (whereof  1 operations were pure point group operations)
 out of a pool of  8 trial point group operations.


The dynamic configuration has the point symmetry C_1 .
 The point group associated with its full space group is C_2v.


Analysis of structural, dynamic, and magnetic symmetry:
=====================================================================
 Subroutine PRICEL returns:
 Original cell was already a primitive cell.
 

 Routine SETGRP: Setting up the symmetry group for a 
 simple orthorhombic supercell.


 Subroutine GETGRP returns: Found  4 space group operations
 (whereof  1 operations were pure point group operations)
 out of a pool of  8 trial point group operations.


The overall configuration has the point symmetry C_1 .
 The point group associated with its full space group is C_2v.


 Subroutine INISYM returns: Found  4 space group operations
 (whereof  1 operations are pure point group operations),
 and found     1 'primitive' translations


----------------------------------------------------------------------------------------

                                     Primitive cell                                     

  volume of cell :     193.5913

  direct lattice vectors                    reciprocal lattice vectors
     3.858100176  0.000000000  0.000000000     0.259194929  0.000000000  0.000000000
     0.000000000  4.526575088  0.000000000     0.000000000  0.220917577  0.000000000
     0.000000000  0.000000000 11.085176468     0.000000000  0.000000000  0.090210562

  length of vectors
     3.858100176  4.526575088 11.085176468     0.259194929  0.220917577  0.090210562

  position of ions in fractional coordinates (direct lattice)
     0.250000000  0.115641899  0.123540275
     0.750000000  0.615641892  0.376459718
     0.750000000  0.495050967  0.147369891
     0.250000000  0.995051026  0.352630109

  ion indices of the primitive-cell ions
   primitive index   ion index
                 1           1
                 2           2
                 3           3
                 4           4

----------------------------------------------------------------------------------------

 
 
 KPOINTS: KPOINTS created by Atomic Simulation Env

Automatic generation of k-mesh.
 Grid dimensions read from file:
 generate k-points for:    6    6    2

 Generating k-lattice:

  Cartesian coordinates                     Fractional coordinates (reciprocal lattice)
     0.043199155  0.000000000  0.000000000     0.166666667  0.000000000  0.000000000
     0.000000000  0.036819596  0.000000000     0.000000000  0.166666667  0.000000000
     0.000000000  0.000000000  0.045105281     0.000000000  0.000000000  0.500000000

  Length of vectors
     0.043199155  0.036819596  0.045105281

  Shift w.r.t. Gamma in fractional coordinates (k-lattice)
     0.000000000  0.000000000  0.000000000

 
 Subroutine IBZKPT returns following result:
 ===========================================
 
 Found     32 irreducible k-points:
 
 Following reciprocal coordinates:
            Coordinates               Weight
  0.000000  0.000000  0.000000      1.000000
  0.166667  0.000000  0.000000      2.000000
  0.333333  0.000000  0.000000      2.000000
  0.500000  0.000000  0.000000      1.000000
  0.000000  0.166667  0.000000      2.000000
  0.166667  0.166667  0.000000      4.000000
  0.333333  0.166667  0.000000      4.000000
  0.500000  0.166667  0.000000      2.000000
  0.000000  0.333333  0.000000      2.000000
  0.166667  0.333333  0.000000      4.000000
  0.333333  0.333333  0.000000      4.000000
  0.500000  0.333333  0.000000      2.000000
  0.000000  0.500000  0.000000      1.000000
  0.166667  0.500000  0.000000      2.000000
  0.333333  0.500000  0.000000      2.000000
  0.500000  0.500000  0.000000      1.000000
  0.000000  0.000000  0.500000      1.000000
  0.166667  0.000000  0.500000      2.000000
  0.333333  0.000000  0.500000      2.000000
  0.500000  0.000000  0.500000      1.000000
  0.000000  0.166667  0.500000      2.000000
  0.166667  0.166667  0.500000      4.000000
  0.333333  0.166667  0.500000      4.000000
  0.500000  0.166667  0.500000      2.000000
  0.000000  0.333333  0.500000      2.000000
  0.166667  0.333333  0.500000      4.000000
  0.333333  0.333333  0.500000      4.000000
  0.500000  0.333333  0.500000      2.000000
  0.000000  0.500000  0.500000      1.000000
  0.166667  0.500000  0.500000      2.000000
  0.333333  0.500000  0.500000      2.000000
  0.500000  0.500000  0.500000      1.000000
 
 Following cartesian coordinates:
            Coordinates               Weight
  0.000000  0.000000  0.000000      1.000000
  0.043199  0.000000  0.000000      2.000000
  0.086398  0.000000  0.000000      2.000000
  0.129597  0.000000  0.000000      1.000000
  0.000000  0.036820  0.000000      2.000000
  0.043199  0.036820  0.000000      4.000000
  0.086398  0.036820  0.000000      4.000000
  0.129597  0.036820  0.000000      2.000000
  0.000000  0.073639  0.000000      2.000000
  0.043199  0.073639  0.000000      4.000000
  0.086398  0.073639  0.000000      4.000000
  0.129597  0.073639  0.000000      2.000000
  0.000000  0.110459  0.000000      1.000000
  0.043199  0.110459  0.000000      2.000000
  0.086398  0.110459  0.000000      2.000000
  0.129597  0.110459  0.000000      1.000000
  0.000000  0.000000  0.045105      1.000000
  0.043199  0.000000  0.045105      2.000000
  0.086398  0.000000  0.045105      2.000000
  0.129597  0.000000  0.045105      1.000000
  0.000000  0.036820  0.045105      2.000000
  0.043199  0.036820  0.045105      4.000000
  0.086398  0.036820  0.045105      4.000000
  0.129597  0.036820  0.045105      2.000000
  0.000000  0.073639  0.045105      2.000000
  0.043199  0.073639  0.045105      4.000000
  0.086398  0.073639  0.045105      4.000000
  0.129597  0.073639  0.045105      2.000000
  0.000000  0.110459  0.045105      1.000000
  0.043199  0.110459  0.045105      2.000000
  0.086398  0.110459  0.045105      2.000000
  0.129597  0.110459  0.045105      1.000000
 
 -----------------------------------------------------------------------------
|                                                                             |
|           W    W    AA    RRRRR   N    N  II  N    N   GGGG   !!!           |
|           W    W   A  A   R    R  NN   N  II  NN   N  G    G  !!!           |
|           W    W  A    A  R    R  N N  N  II  N N  N  G       !!!           |
|           W WW W  AAAAAA  RRRRR   N  N N  II  N  N N  G  GGG   !            |
|           WW  WW  A    A  R   R   N   NN  II  N   NN  G    G                |
|           W    W  A    A  R    R  N    N  II  N    N   GGGG   !!!           |
|                                                                             |
|     The number of bands has been changed from the values supplied in        |
|     the INCAR file. This is a result of running the parallel version.       |
|     The orbitals not found in the WAVECAR file will be initialized with     |
|     random numbers, which is usually adequate. For correlated               |
|     calculations, however, you should redo the groundstate calculation.     |
|     I found NBANDS = 220. Now, NBANDS = 224.                                |
|                                                                             |
 -----------------------------------------------------------------------------



--------------------------------------------------------------------------------------------------------




 Dimension of arrays:
   k-points           NKPTS =     32   k-points in BZ     NKDIM =     32   number of bands    NBANDS=    224
   number of dos      NEDOS =    301   number of ions     NIONS =      4
   non local maximal  LDIM  =      5   non local SUM 2l+1 LMDIM =     13
   total plane-waves  NPLWV =  90720
   max r-space proj   IRMAX =      1   max aug-charges    IRDMAX=  25666
   dimension x,y,z NGX =    30 NGY =   36 NGZ =   84
   dimension x,y,z NGXF=    60 NGYF=   72 NGZF=  168
   support grid    NGXF=    60 NGYF=   72 NGZF=  168
   ions per type =               2   2
   NGX,Y,Z   is equivalent  to a cutoff of  12.93, 13.22, 12.60 a.u.
   NGXF,Y,Z  is equivalent  to a cutoff of  25.85, 26.44, 25.20 a.u.

 SYSTEM =  02_SCF                                  
 POSCAR =  Ge Se                                   

 Startparameter for this run:
   NWRITE =      2    write-flag & timer
   PREC   = accura    normal or accurate (medium, high low for compatibility)
   ISTART =      0    job   : 0-new  1-cont  2-samecut
   ICHARG =      2    charge: 1-file 2-atom 10-const
   ISPIN  =      2    spin polarized calculation?
   LNONCOLLINEAR =      F non collinear calculations
   LSORBIT =      F    spin-orbit coupling
   INIWAV =      1    electr: 0-lowe 1-rand  2-diag
   LASPH  =      T    aspherical Exc in radial PAW
 Electronic Relaxation 1
   ENCUT  =  520.0 eV  38.22 Ry    6.18 a.u.   7.17  8.42 20.61*2*pi/ulx,y,z
   ENINI  =  520.0     initial cutoff
   ENAUG  =  446.8 eV  augmentation charge cutoff
   NELM   =    100;   NELMIN=  5; NELMDL=  0     # of ELM steps 
   EDIFF  = 0.1E-05   stopping-criterion for ELM
   LREAL  =      F    real-space projection
   NLSPLINE    = F    spline interpolate recip. space projectors
   LCOMPAT=      F    compatible to vasp.4.4
   GGA_COMPAT  = T    GGA compatible to vasp.4.4-vasp.4.6
   LMAXPAW     = -100 max onsite density
   LMAXMIX     =    2 max onsite mixed and CHGCAR
   VOSKOWN=      0    Vosko Wilk Nusair interpolation
   ROPT   =    0.00000   0.00000
 Ionic relaxation
   EDIFFG = 0.1E-04   stopping-criterion for IOM
   NSW    =      0    number of steps for IOM
   NBLOCK =      1;   KBLOCK =      1    inner block; outer block 
   IBRION =     -1    ionic relax: 0-MD 1-quasi-New 2-CG
   NFREE  =      0    steps in history (QN), initial steepest desc. (CG)
   ISIF   =      2    stress and relaxation
   IWAVPR =     10    prediction:  0-non 1-charg 2-wave 3-comb
   ISYM   =      2    0-nonsym 1-usesym 2-fastsym
   LCORR  =      T    Harris-Foulkes like correction to forces

   POTIM  = 0.5000    time-step for ionic-motion
   TEIN   =    0.0    initial temperature
   TEBEG  =    0.0;   TEEND  =   0.0 temperature during run
   SMASS  =  -3.00    Nose mass-parameter (am)
   estimated Nose-frequenzy (Omega)   =  0.10E-29 period in steps = 0.13E+47 mass=  -0.340E-27a.u.
   SCALEE = 1.0000    scale energy and forces
   NPACO  =    256;   APACO  = 10.0  distance and # of slots for P.C.
   PSTRESS=    0.0 pullay stress

  Mass of Ions in am
   POMASS =  72.61 78.96
  Ionic Valenz
   ZVAL   =   4.00  6.00
  Atomic Wigner-Seitz radii
   RWIGS  =  -1.00 -1.00
  virtual crystal weights 
   VCA    =   1.00  1.00
   NELECT =      20.0000    total number of electrons
   NUPDOWN=      -1.0000    fix difference up-down

 DOS related values:
   EMIN   =  10.00;   EMAX   =-10.00  energy-range for DOS
   EFERMI =   0.00;   METHOD = LEGACY      
   ISMEAR =     0;   SIGMA  =   0.05  broadening in eV -4-tet -1-fermi 0-gaus

 Electronic relaxation 2 (details)
   IALGO  =     38    algorithm
   LDIAG  =      T    sub-space diagonalisation (order eigenvalues)
   LSUBROT=      F    optimize rotation matrix (better conditioning)
   TURBO    =      0    0=normal 1=particle mesh
   IRESTART =      0    0=no restart 2=restart with 2 vectors
   NREBOOT  =      0    no. of reboots
   NMIN     =      0    reboot dimension
   EREF     =   0.00    reference energy to select bands
   IMIX   =      4    mixing-type and parameters
     AMIX     =   0.40;   BMIX     =  1.00
     AMIX_MAG =   1.60;   BMIX_MAG =  1.00
     AMIN     =   0.10
     WC   =   100.;   INIMIX=   1;  MIXPRE=   1;  MAXMIX= -45

 Intra band minimization:
   WEIMIN = 0.0000     energy-eigenvalue tresh-hold
   EBREAK =  0.11E-08  absolut break condition
   DEPER  =   0.30     relativ break condition  

   TIME   =   0.40     timestep for ELM

  volume/ion in A,a.u.               =      48.40       326.60
  Fermi-wavevector in a.u.,A,eV,Ry     =   0.768168  1.451627  8.028554  0.590082
  Thomas-Fermi vector in A             =   1.868883
 
 Write flags
   LWAVE        =      T    write WAVECAR
   LDOWNSAMPLE  =      F    k-point downsampling of WAVECAR
   LCHARG       =      T    write CHGCAR
   LVTOT        =      F    write LOCPOT, total local potential
   LVHAR        =      F    write LOCPOT, Hartree potential only
   LELF         =      F    write electronic localiz. function (ELF)
   LORBIT       =     11    0 simple, 1 ext, 2 COOP (PROOUT), +10 PAW based schemes


 Dipole corrections
   LMONO  =      F    monopole corrections only (constant potential shift)
   LDIPOL =      F    correct potential (dipole corrections)
   IDIPOL =      0    1-x, 2-y, 3-z, 4-all directions 
   EPSILON=  1.0000000 bulk dielectric constant

 Exchange correlation treatment:
   GGA     =    PE    GGA type
   LEXCH   =     8    internal setting for exchange type
   LIBXC   =     F    Libxc                    
   VOSKOWN =     0    Vosko Wilk Nusair interpolation
   LHFCALC =     F    Hartree Fock is set to
   LHFONE  =     F    Hartree Fock one center treatment
   AEXX    =    0.0000 exact exchange contribution

 Linear response parameters
   LEPSILON=     F    determine dielectric tensor
   LRPA    =     F    only Hartree local field effects (RPA)
   LNABLA  =     F    use nabla operator in PAW spheres
   LVEL    =     F    velocity operator in full k-point grid
   CSHIFT  =0.1000    complex shift for real part using Kramers Kronig
   OMEGAMAX=  -1.0    maximum frequency
   DEG_THRESHOLD= 0.2000000E-02 threshold for treating states as degnerate
   RTIME   =   -0.100 relaxation time in fs
  (WPLASMAI=    0.000 imaginary part of plasma frequency in eV, 0.658/RTIME)
   DFIELD  = 0.0000000 0.0000000 0.0000000 field for delta impulse in time
 
  Optional k-point grid parameters
   LKPOINTS_OPT  =     F    use optional k-point grid
   KPOINTS_OPT_MODE=     1    mode for optional k-point grid
 
 Orbital magnetization related:
   ORBITALMAG=     F  switch on orbital magnetization
   LCHIMAG   =     F  perturbation theory with respect to B field
   DQ        =  0.001000  dq finite difference perturbation B field
   LLRAUG    =     F  two centre corrections for induced B field
   LBONE     =     F  B-component reconstruction in AE one-centre
   LVGVCALC  =     T  calculate vGv susceptibility
   LVGVAPPL  =     F  apply vGv susceptibility instead of pGv for G=0

 Random number generation:
   RANDOM_GENERATOR = DEFAULT
   PCG_SEED         = not used


--------------------------------------------------------------------------------------------------------


 Static calculation
 charge density and potential will be updated during run
 spin polarized calculation
 Variant of blocked Davidson
 Davidson routine will perform the subspace rotation
 perform sub-space diagonalisation
    after iterative eigenvector-optimisation
 modified Broyden-mixing scheme, WC =      100.0
 initial mixing is a Kerker type mixing with AMIX =  0.4000 and BMIX =      1.0000
 Hartree-type preconditioning will be used
 using additional bands           214
 reciprocal scheme for non local part
 use partial core corrections
 calculate Harris-corrections to forces 
   (improved forces if not selfconsistent)
 use gradient corrections 
 use of overlap-Matrix (Vanderbilt PP)
 Gauss-broadening in eV      SIGMA  =   0.05


--------------------------------------------------------------------------------------------------------


  energy-cutoff  :      520.00
  volume of cell :      193.59
      direct lattice vectors                 reciprocal lattice vectors
     3.858100176  0.000000000  0.000000000     0.259194929  0.000000000  0.000000000
     0.000000000  4.526575088  0.000000000     0.000000000  0.220917577  0.000000000
     0.000000000  0.000000000 11.085176468     0.000000000  0.000000000  0.090210562

  length of vectors
     3.858100176  4.526575088 11.085176468     0.259194929  0.220917577  0.090210562


 
 k-points in units of 2pi/SCALE and weight: KPOINTS created by Atomic Simulation Env
   0.00000000  0.00000000  0.00000000       0.014
   0.04319915  0.00000000  0.00000000       0.028
   0.08639831  0.00000000  0.00000000       0.028
   0.12959746  0.00000000  0.00000000       0.014
   0.00000000  0.03681960  0.00000000       0.028
   0.04319915  0.03681960  0.00000000       0.056
   0.08639831  0.03681960  0.00000000       0.056
   0.12959746  0.03681960  0.00000000       0.028
   0.00000000  0.07363919  0.00000000       0.028
   0.04319915  0.07363919  0.00000000       0.056
   0.08639831  0.07363919  0.00000000       0.056
   0.12959746  0.07363919  0.00000000       0.028
   0.00000000  0.11045879  0.00000000       0.014
   0.04319915  0.11045879  0.00000000       0.028
   0.08639831  0.11045879  0.00000000       0.028
   0.12959746  0.11045879  0.00000000       0.014
   0.00000000  0.00000000  0.04510528       0.014
   0.04319915  0.00000000  0.04510528       0.028
   0.08639831  0.00000000  0.04510528       0.028
   0.12959746  0.00000000  0.04510528       0.014
   0.00000000  0.03681960  0.04510528       0.028
   0.04319915  0.03681960  0.04510528       0.056
   0.08639831  0.03681960  0.04510528       0.056
   0.12959746  0.03681960  0.04510528       0.028
   0.00000000  0.07363919  0.04510528       0.028
   0.04319915  0.07363919  0.04510528       0.056
   0.08639831  0.07363919  0.04510528       0.056
   0.12959746  0.07363919  0.04510528       0.028
   0.00000000  0.11045879  0.04510528       0.014
   0.04319915  0.11045879  0.04510528       0.028
   0.08639831  0.11045879  0.04510528       0.028
   0.12959746  0.11045879  0.04510528       0.014
 
 k-points in reciprocal lattice and weights: KPOINTS created by Atomic Simulation Env
   0.00000000  0.00000000  0.00000000       0.014
   0.16666667  0.00000000  0.00000000       0.028
   0.33333333  0.00000000  0.00000000       0.028
   0.50000000  0.00000000  0.00000000       0.014
   0.00000000  0.16666667  0.00000000       0.028
   0.16666667  0.16666667  0.00000000       0.056
   0.33333333  0.16666667  0.00000000       0.056
   0.50000000  0.16666667  0.00000000       0.028
   0.00000000  0.33333333  0.00000000       0.028
   0.16666667  0.33333333  0.00000000       0.056
   0.33333333  0.33333333  0.00000000       0.056
   0.50000000  0.33333333  0.00000000       0.028
   0.00000000  0.50000000  0.00000000       0.014
   0.16666667  0.50000000  0.00000000       0.028
   0.33333333  0.50000000  0.00000000       0.028
   0.50000000  0.50000000  0.00000000       0.014
   0.00000000  0.00000000  0.50000000       0.014
   0.16666667  0.00000000  0.50000000       0.028
   0.33333333  0.00000000  0.50000000       0.028
   0.50000000  0.00000000  0.50000000       0.014
   0.00000000  0.16666667  0.50000000       0.028
   0.16666667  0.16666667  0.50000000       0.056
   0.33333333  0.16666667  0.50000000       0.056
   0.50000000  0.16666667  0.50000000       0.028
   0.00000000  0.33333333  0.50000000       0.028
   0.16666667  0.33333333  0.50000000       0.056
   0.33333333  0.33333333  0.50000000       0.056
   0.50000000  0.33333333  0.50000000       0.028
   0.00000000  0.50000000  0.50000000       0.014
   0.16666667  0.50000000  0.50000000       0.028
   0.33333333  0.50000000  0.50000000       0.028
   0.50000000  0.50000000  0.50000000       0.014
 
 position of ions in fractional coordinates (direct lattice) 
   0.25000000  0.11564190  0.12354027
   0.75000000  0.61564189  0.37645972
   0.75000000  0.49505097  0.14736989
   0.25000000  0.99505103  0.35263011
 
 position of ions in cartesian coordinates  (Angst):
   0.96452504  0.52346174  1.36946575
   2.89357513  2.78674925  4.17312240
   2.89357513  2.24088537  1.63362125
   0.96452504  4.50417319  3.90896698
 


--------------------------------------------------------------------------------------------------------


 k-point   1 :   0.0000 0.0000 0.0000  plane waves:    5211
 k-point   2 :   0.1667 0.0000 0.0000  plane waves:    5225
 k-point   3 :   0.3333 0.0000 0.0000  plane waves:    5224
 k-point   4 :   0.5000 0.0000 0.0000  plane waves:    5258
 k-point   5 :   0.0000 0.1667 0.0000  plane waves:    5209
 k-point   6 :   0.1667 0.1667 0.0000  plane waves:    5201
 k-point   7 :   0.3333 0.1667 0.0000  plane waves:    5230
 k-point   8 :   0.5000 0.1667 0.0000  plane waves:    5236
 k-point   9 :   0.0000 0.3333 0.0000  plane waves:    5213
 k-point  10 :   0.1667 0.3333 0.0000  plane waves:    5199
 k-point  11 :   0.3333 0.3333 0.0000  plane waves:    5211
 k-point  12 :   0.5000 0.3333 0.0000  plane waves:    5230
 k-point  13 :   0.0000 0.5000 0.0000  plane waves:    5220
 k-point  14 :   0.1667 0.5000 0.0000  plane waves:    5208
 k-point  15 :   0.3333 0.5000 0.0000  plane waves:    5230
 k-point  16 :   0.5000 0.5000 0.0000  plane waves:    5180
 k-point  17 :   0.0000 0.0000 0.5000  plane waves:    5210
 k-point  18 :   0.1667 0.0000 0.5000  plane waves:    5178
 k-point  19 :   0.3333 0.0000 0.5000  plane waves:    5214
 k-point  20 :   0.5000 0.0000 0.5000  plane waves:    5232
 k-point  21 :   0.0000 0.1667 0.5000  plane waves:    5224
 k-point  22 :   0.1667 0.1667 0.5000  plane waves:    5210
 k-point  23 :   0.3333 0.1667 0.5000  plane waves:    5196
 k-point  24 :   0.5000 0.1667 0.5000  plane waves:    5224
 k-point  25 :   0.0000 0.3333 0.5000  plane waves:    5202
 k-point  26 :   0.1667 0.3333 0.5000  plane waves:    5214
 k-point  27 :   0.3333 0.3333 0.5000  plane waves:    5216
 k-point  28 :   0.5000 0.3333 0.5000  plane waves:    5216
 k-point  29 :   0.0000 0.5000 0.5000  plane waves:    5212
 k-point  30 :   0.1667 0.5000 0.5000  plane waves:    5192
 k-point  31 :   0.3333 0.5000 0.5000  plane waves:    5208
 k-point  32 :   0.5000 0.5000 0.5000  plane waves:    5208

 maximum and minimum number of plane-waves per node :      5258     5178

 maximum number of plane-waves:      5258
 maximum index in each direction: 
   IXMAX=    7   IYMAX=    8   IZMAX=   20
   IXMIN=   -7   IYMIN=   -8   IZMIN=  -21


 serial   3D FFT for wavefunctions
 parallel 3D FFT for charge:
    minimum data exchange during FFTs selected (reduces bandwidth)


 total amount of memory used by VASP MPI-rank0   155010. kBytes
=======================================================================

   base      :      30000. kBytes
   nonl-proj :      35374. kBytes
   fftplans  :       1991. kBytes
   grid      :      11199. kBytes
   one-center:         64. kBytes
   wavefun   :      76382. kBytes
 
     INWAV:  cpu time      0.0000: real time      0.0001
 Broyden mixing: mesh for mixing (old mesh)
   NGX = 15   NGY = 17   NGZ = 41
  (NGX  = 60   NGY  = 72   NGZ  =168)
  gives a total of  10455 points

 initial charge density was supplied:
 charge density of overlapping atoms calculated
 number of electron      20.0000000 magnetization       4.0000000
 keeping initial charge density in first step


--------------------------------------------------------------------------------------------------------


 Maximum index for augmentation-charges          1816 (set IRDMAX)


--------------------------------------------------------------------------------------------------------


 First call to EWALD:  gamma=   0.306
 Maximum number of real-space cells 4x 3x 2
 Maximum number of reciprocal cells 2x 2x 5

    FEWALD:  cpu time      0.0011: real time      0.0012


--------------------------------------- Ionic step        1  -------------------------------------------




--------------------------------------- Iteration      1(   1)  ---------------------------------------


    POTLOK:  cpu time      0.0933: real time      0.0940
    SETDIJ:  cpu time      1.1202: real time      1.1225
     EDDAV:  cpu time     12.0091: real time     12.1010
       DOS:  cpu time      0.0024: real time      0.0024
    --------------------------------------------
      LOOP:  cpu time     13.2251: real time     13.3199

 eigenvalue-minimisations  : 28672
 total energy-change (2. order) : 0.9507900E+02  (-0.4321029E+03)
 number of electron      20.0000000 magnetization       4.0000000
 augmentation part       20.0000000 magnetization       4.0000000

 Free energy of the ion-electron system (eV)
  ---------------------------------------------------
  alpha Z        PSCENC =        21.88172362
  Ewald energy   TEWEN  =       -43.18033095
  -Hartree energ DENC   =      -622.19330479
  -exchange      EXHF   =         0.00000000
  -V(xc)+E(xc)   XCENC  =       -17.01237234
  PAW double counting   =       596.57894437     -539.99618860
  entropy T*S    EENTRO =        -0.00119024
  eigenvalues    EBANDS =       -25.24558152
  atomic energy  EATOM  =       724.24730435
  Solvation  Ediel_sol  =         0.00000000
  ---------------------------------------------------
  free energy    TOTEN  =        95.07900390 eV

  energy without entropy =       95.08019414  energy(sigma->0) =       95.07959902


--------------------------------------------------------------------------------------------------------




--------------------------------------- Iteration      1(   2)  ---------------------------------------


     EDDAV:  cpu time     13.8206: real time     13.9233
       DOS:  cpu time      0.0019: real time      0.0019
    --------------------------------------------
      LOOP:  cpu time     13.8224: real time     13.9252

 eigenvalue-minimisations  : 34656
 total energy-change (2. order) :-0.1070971E+03  (-0.9542557E+02)
 number of electron      20.0000000 magnetization       4.0000000
 augmentation part       20.0000000 magnetization       4.0000000

 Free energy of the ion-electron system (eV)
  ---------------------------------------------------
  alpha Z        PSCENC =        21.88172362
  Ewald energy   TEWEN  =       -43.18033095
  -Hartree energ DENC   =      -622.19330479
  -exchange      EXHF   =         0.00000000
  -V(xc)+E(xc)   XCENC  =       -17.01237234
  PAW double counting   =       596.57894437     -539.99618860
  entropy T*S    EENTRO =        -0.00000000
  eigenvalues    EBANDS =      -132.34385865
  atomic energy  EATOM  =       724.24730435
  Solvation  Ediel_sol  =         0.00000000
  ---------------------------------------------------
  free energy    TOTEN  =       -12.01808299 eV

  energy without entropy =      -12.01808299  energy(sigma->0) =      -12.01808299


--------------------------------------------------------------------------------------------------------




--------------------------------------- Iteration      1(   3)  ---------------------------------------


     EDDAV:  cpu time     13.6287: real time     13.7319
       DOS:  cpu time      0.0019: real time      0.0019
    --------------------------------------------
      LOOP:  cpu time     13.6305: real time     13.7337

 eigenvalue-minimisations  : 34000
 total energy-change (2. order) :-0.4211595E+01  (-0.4166523E+01)
 number of electron      20.0000000 magnetization       4.0000000
 augmentation part       20.0000000 magnetization       4.0000000

 Free energy of the ion-electron system (eV)
  ---------------------------------------------------
  alpha Z        PSCENC =        21.88172362
  Ewald energy   TEWEN  =       -43.18033095
  -Hartree energ DENC   =      -622.19330479
  -exchange      EXHF   =         0.00000000
  -V(xc)+E(xc)   XCENC  =       -17.01237234
  PAW double counting   =       596.57894437     -539.99618860
  entropy T*S    EENTRO =        -0.00000000
  eigenvalues    EBANDS =      -136.55545337
  atomic energy  EATOM  =       724.24730435
  Solvation  Ediel_sol  =         0.00000000
  ---------------------------------------------------
  free energy    TOTEN  =       -16.22967770 eV

  energy without entropy =      -16.22967770  energy(sigma->0) =      -16.22967770


--------------------------------------------------------------------------------------------------------




--------------------------------------- Iteration      1(   4)  ---------------------------------------


     EDDAV:  cpu time     13.4756: real time     13.5911
       DOS:  cpu time      0.0019: real time      0.0019
    --------------------------------------------
      LOOP:  cpu time     13.4775: real time     13.5929

 eigenvalue-minimisations  : 33504
 total energy-change (2. order) :-0.8510000E-02  (-0.8508855E-02)
 number of electron      20.0000000 magnetization       4.0000000
 augmentation part       20.0000000 magnetization       4.0000000

 Free energy of the ion-electron system (eV)
  ---------------------------------------------------
  alpha Z        PSCENC =        21.88172362
  Ewald energy   TEWEN  =       -43.18033095
  -Hartree energ DENC   =      -622.19330479
  -exchange      EXHF   =         0.00000000
  -V(xc)+E(xc)   XCENC  =       -17.01237234
  PAW double counting   =       596.57894437     -539.99618860
  entropy T*S    EENTRO =        -0.00000000
  eigenvalues    EBANDS =      -136.56396337
  atomic energy  EATOM  =       724.24730435
  Solvation  Ediel_sol  =         0.00000000
  ---------------------------------------------------
  free energy    TOTEN  =       -16.23818770 eV

  energy without entropy =      -16.23818770  energy(sigma->0) =      -16.23818770


--------------------------------------------------------------------------------------------------------




--------------------------------------- Iteration      1(   5)  ---------------------------------------


     EDDAV:  cpu time     13.2533: real time     13.3828
       DOS:  cpu time      0.0019: real time      0.0019
    CHARGE:  cpu time      0.0859: real time      0.0863
    MIXING:  cpu time      0.0039: real time      0.0039
    --------------------------------------------
      LOOP:  cpu time     13.3449: real time     13.4749

 eigenvalue-minimisations  : 32816
 total energy-change (2. order) :-0.8967125E-05  (-0.8967014E-05)
 number of electron      20.0000001 magnetization       2.4438127
 augmentation part       -3.7329911 magnetization       2.4525496

 Broyden mixing:
  rms(total) = 0.68382E+00    rms(broyden)= 0.68381E+00
  rms(prec ) = 0.74047E+00
  weight for this iteration     100.00

 Free energy of the ion-electron system (eV)
  ---------------------------------------------------
  alpha Z        PSCENC =        21.88172362
  Ewald energy   TEWEN  =       -43.18033095
  -Hartree energ DENC   =      -622.19330479
  -exchange      EXHF   =         0.00000000
  -V(xc)+E(xc)   XCENC  =       -17.01237234
  PAW double counting   =       596.57894437     -539.99618860
  entropy T*S    EENTRO =        -0.00000000
  eigenvalues    EBANDS =      -136.56397233
  atomic energy  EATOM  =       724.24730435
  Solvation  Ediel_sol  =         0.00000000
  ---------------------------------------------------
  free energy    TOTEN  =       -16.23819667 eV

  energy without entropy =      -16.23819667  energy(sigma->0) =      -16.23819667


--------------------------------------------------------------------------------------------------------




--------------------------------------- Iteration      1(   6)  ---------------------------------------


    POTLOK:  cpu time      0.0892: real time      0.0897
    SETDIJ:  cpu time      1.1079: real time      1.1104
     EDDAV:  cpu time     12.8344: real time     12.9400
       DOS:  cpu time      0.0019: real time      0.0019
    CHARGE:  cpu time      0.0853: real time      0.0858
    MIXING:  cpu time      0.0037: real time      0.0037
    --------------------------------------------
      LOOP:  cpu time     14.1225: real time     14.2316

 eigenvalue-minimisations  : 31568
 total energy-change (2. order) : 0.5570073E+00  (-0.1189628E+00)
 number of electron      20.0000001 magnetization       1.2059015
 augmentation part       -3.7021830 magnetization       1.2746394

 Broyden mixing:
  rms(total) = 0.38673E+00    rms(broyden)= 0.38673E+00
  rms(prec ) = 0.41001E+00
  weight for this iteration     100.00

 eigenvalues of (default mixing * dielectric matrix)
  average eigenvalue GAMMA=   1.0201
  1.0201

 Free energy of the ion-electron system (eV)
  ---------------------------------------------------
  alpha Z        PSCENC =        21.88172362
  Ewald energy   TEWEN  =       -43.18033095
  -Hartree energ DENC   =      -627.36067653
  -exchange      EXHF   =         0.00000000
  -V(xc)+E(xc)   XCENC  =       -16.33982517
  PAW double counting   =       725.08921513     -668.71539425
  entropy T*S    EENTRO =        -0.00000000
  eigenvalues    EBANDS =      -131.30320558
  atomic energy  EATOM  =       724.24730435
  Solvation  Ediel_sol  =         0.00000000
  ---------------------------------------------------
  free energy    TOTEN  =       -15.68118938 eV

  energy without entropy =      -15.68118938  energy(sigma->0) =      -15.68118938


--------------------------------------------------------------------------------------------------------




--------------------------------------- Iteration      1(   7)  ---------------------------------------


    POTLOK:  cpu time      0.0901: real time      0.0906
    SETDIJ:  cpu time      1.1156: real time      1.1177
     EDDAV:  cpu time     12.5804: real time     12.6873
       DOS:  cpu time      0.0019: real time      0.0019
    CHARGE:  cpu time      0.0833: real time      0.0837
    MIXING:  cpu time      0.0040: real time      0.0041
    --------------------------------------------
      LOOP:  cpu time     13.8754: real time     13.9853

 eigenvalue-minimisations  : 30688
 total energy-change (2. order) :-0.7161074E+00  (-0.1697063E-01)
 number of electron      20.0000001 magnetization       0.2043239
 augmentation part       -3.6837245 magnetization       0.2366953

 Broyden mixing:
  rms(total) = 0.19312E+00    rms(broyden)= 0.19312E+00
  rms(prec ) = 0.20594E+00
  weight for this iteration     100.00

 eigenvalues of (default mixing * dielectric matrix)
  average eigenvalue GAMMA=   1.4106
  0.8595  1.9618

 Free energy of the ion-electron system (eV)
  ---------------------------------------------------
  alpha Z        PSCENC =        21.88172362
  Ewald energy   TEWEN  =       -43.18033095
  -Hartree energ DENC   =      -630.70747900
  -exchange      EXHF   =         0.00000000
  -V(xc)+E(xc)   XCENC  =       -16.58551041
  PAW double counting   =       846.20053563     -789.92856026
  entropy T*S    EENTRO =        -0.00000000
  eigenvalues    EBANDS =      -128.32497980
  atomic energy  EATOM  =       724.24730435
  Solvation  Ediel_sol  =         0.00000000
  ---------------------------------------------------
  free energy    TOTEN  =       -16.39729682 eV

  energy without entropy =      -16.39729682  energy(sigma->0) =      -16.39729682


--------------------------------------------------------------------------------------------------------




--------------------------------------- Iteration      1(   8)  ---------------------------------------


    POTLOK:  cpu time      0.0875: real time      0.0882
    SETDIJ:  cpu time      1.1111: real time      1.1135
     EDDAV:  cpu time     12.9260: real time     13.0426
       DOS:  cpu time      0.0019: real time      0.0019
    CHARGE:  cpu time      0.0848: real time      0.0853
    MIXING:  cpu time      0.0038: real time      0.0038
    --------------------------------------------
      LOOP:  cpu time     14.2150: real time     14.3353

 eigenvalue-minimisations  : 31872
 total energy-change (2. order) :-0.3555364E+00  (-0.8641845E-02)
 number of electron      20.0000001 magnetization       0.0434430
 augmentation part       -3.6742994 magnetization       0.0527202

 Broyden mixing:
  rms(total) = 0.53967E-01    rms(broyden)= 0.53967E-01
  rms(prec ) = 0.61314E-01
  weight for this iteration     100.00

 eigenvalues of (default mixing * dielectric matrix)
  average eigenvalue GAMMA=   1.3750
  2.4423  1.0014  0.6815

 Free energy of the ion-electron system (eV)
  ---------------------------------------------------
  alpha Z        PSCENC =        21.88172362
  Ewald energy   TEWEN  =       -43.18033095
  -Hartree energ DENC   =      -633.19860755
  -exchange      EXHF   =         0.00000000
  -V(xc)+E(xc)   XCENC  =       -16.58154652
  PAW double counting   =       949.08499085     -892.86750067
  entropy T*S    EENTRO =        -0.00000000
  eigenvalues    EBANDS =      -126.13886639
  atomic energy  EATOM  =       724.24730435
  Solvation  Ediel_sol  =         0.00000000
  ---------------------------------------------------
  free energy    TOTEN  =       -16.75283327 eV

  energy without entropy =      -16.75283327  energy(sigma->0) =      -16.75283327


--------------------------------------------------------------------------------------------------------




--------------------------------------- Iteration      1(   9)  ---------------------------------------


    POTLOK:  cpu time      0.0873: real time      0.0881
    SETDIJ:  cpu time      1.1007: real time      1.1028
     EDDAV:  cpu time     13.0330: real time     13.1437
       DOS:  cpu time      0.0019: real time      0.0019
    CHARGE:  cpu time      0.0836: real time      0.0840
    MIXING:  cpu time      0.0038: real time      0.0038
    --------------------------------------------
      LOOP:  cpu time     14.3104: real time     14.4243

 eigenvalue-minimisations  : 31984
 total energy-change (2. order) :-0.4377154E-02  (-0.1156910E-02)
 number of electron      20.0000001 magnetization       0.0217523
 augmentation part       -3.6749026 magnetization       0.0244960

 Broyden mixing:
  rms(total) = 0.16545E-01    rms(broyden)= 0.16545E-01
  rms(prec ) = 0.28053E-01
  weight for this iteration     100.00

 eigenvalues of (default mixing * dielectric matrix)
  average eigenvalue GAMMA=   1.2714
  2.4409  1.1695  0.8486  0.6265

 Free energy of the ion-electron system (eV)
  ---------------------------------------------------
  alpha Z        PSCENC =        21.88172362
  Ewald energy   TEWEN  =       -43.18033095
  -Hartree energ DENC   =      -633.70258946
  -exchange      EXHF   =         0.00000000
  -V(xc)+E(xc)   XCENC  =       -16.55592418
  PAW double counting   =       962.80169946     -906.59959156
  entropy T*S    EENTRO =        -0.00000000
  eigenvalues    EBANDS =      -125.64950170
  atomic energy  EATOM  =       724.24730435
  Solvation  Ediel_sol  =         0.00000000
  ---------------------------------------------------
  free energy    TOTEN  =       -16.75721042 eV

  energy without entropy =      -16.75721042  energy(sigma->0) =      -16.75721042


--------------------------------------------------------------------------------------------------------




--------------------------------------- Iteration      1(  10)  ---------------------------------------


    POTLOK:  cpu time      0.0873: real time      0.0880
    SETDIJ:  cpu time      1.1124: real time      1.1150
     EDDAV:  cpu time     13.3141: real time     13.4153
       DOS:  cpu time      0.0019: real time      0.0019
    CHARGE:  cpu time      0.0837: real time      0.0842
    MIXING:  cpu time      0.0038: real time      0.0038
    --------------------------------------------
      LOOP:  cpu time     14.6032: real time     14.7081

 eigenvalue-minimisations  : 32960
 total energy-change (2. order) :-0.1081712E-03  (-0.6122498E-04)
 number of electron      20.0000001 magnetization      -0.0014703
 augmentation part       -3.6751947 magnetization      -0.0010368

 Broyden mixing:
  rms(total) = 0.90738E-02    rms(broyden)= 0.90738E-02
  rms(prec ) = 0.21274E-01
  weight for this iteration     100.00

 eigenvalues of (default mixing * dielectric matrix)
  average eigenvalue GAMMA=   1.2572
  2.4146  1.4578  0.9977  0.7990  0.6171

 Free energy of the ion-electron system (eV)
  ---------------------------------------------------
  alpha Z        PSCENC =        21.88172362
  Ewald energy   TEWEN  =       -43.18033095
  -Hartree energ DENC   =      -634.01068616
  -exchange      EXHF   =         0.00000000
  -V(xc)+E(xc)   XCENC  =       -16.54595343
  PAW double counting   =       961.78617533     -905.58099377
  entropy T*S    EENTRO =        -0.00000000
  eigenvalues    EBANDS =      -125.35455758
  atomic energy  EATOM  =       724.24730435
  Solvation  Ediel_sol  =         0.00000000
  ---------------------------------------------------
  free energy    TOTEN  =       -16.75731859 eV

  energy without entropy =      -16.75731859  energy(sigma->0) =      -16.75731859


--------------------------------------------------------------------------------------------------------




--------------------------------------- Iteration      1(  11)  ---------------------------------------


    POTLOK:  cpu time      0.0860: real time      0.0863
    SETDIJ:  cpu time      1.1035: real time      1.1057
     EDDAV:  cpu time     12.6533: real time     12.7450
       DOS:  cpu time      0.0019: real time      0.0019
    CHARGE:  cpu time      0.0839: real time      0.0846
    MIXING:  cpu time      0.0039: real time      0.0040
    --------------------------------------------
      LOOP:  cpu time     13.9325: real time     14.0274

 eigenvalue-minimisations  : 31120
 total energy-change (2. order) :-0.5778936E-03  (-0.4421541E-04)
 number of electron      20.0000001 magnetization      -0.0122198
 augmentation part       -3.6750350 magnetization      -0.0123487

 Broyden mixing:
  rms(total) = 0.55540E-02    rms(broyden)= 0.55540E-02
  rms(prec ) = 0.13902E-01
  weight for this iteration     100.00

 eigenvalues of (default mixing * dielectric matrix)
  average eigenvalue GAMMA=   1.2966
  2.2593  2.2593  1.1064  0.8412  0.6830  0.6304

 Free energy of the ion-electron system (eV)
  ---------------------------------------------------
  alpha Z        PSCENC =        21.88172362
  Ewald energy   TEWEN  =       -43.18033095
  -Hartree energ DENC   =      -634.67234322
  -exchange      EXHF   =         0.00000000
  -V(xc)+E(xc)   XCENC  =       -16.52756922
  PAW double counting   =       958.07318438     -901.86202390
  entropy T*S    EENTRO =        -0.00000000
  eigenvalues    EBANDS =      -124.71784154
  atomic energy  EATOM  =       724.24730435
  Solvation  Ediel_sol  =         0.00000000
  ---------------------------------------------------
  free energy    TOTEN  =       -16.75789649 eV

  energy without entropy =      -16.75789649  energy(sigma->0) =      -16.75789649


--------------------------------------------------------------------------------------------------------




--------------------------------------- Iteration      1(  12)  ---------------------------------------


    POTLOK:  cpu time      0.0865: real time      0.0870
    SETDIJ:  cpu time      1.1027: real time      1.1059
     EDDAV:  cpu time     12.7730: real time     12.8875
       DOS:  cpu time      0.0019: real time      0.0019
    CHARGE:  cpu time      0.0850: real time      0.0852
    MIXING:  cpu time      0.0040: real time      0.0040
    --------------------------------------------
      LOOP:  cpu time     14.0531: real time     14.1715

 eigenvalue-minimisations  : 31152
 total energy-change (2. order) :-0.7837452E-03  (-0.2307992E-04)
 number of electron      20.0000001 magnetization      -0.0114725
 augmentation part       -3.6747173 magnetization      -0.0117485

 Broyden mixing:
  rms(total) = 0.35111E-02    rms(broyden)= 0.35111E-02
  rms(prec ) = 0.83072E-02
  weight for this iteration     100.00

 eigenvalues of (default mixing * dielectric matrix)
  average eigenvalue GAMMA=   1.3995
  2.9268  2.5547  1.2144  0.9820  0.8120  0.6418  0.6649

 Free energy of the ion-electron system (eV)
  ---------------------------------------------------
  alpha Z        PSCENC =        21.88172362
  Ewald energy   TEWEN  =       -43.18033095
  -Hartree energ DENC   =      -635.25764162
  -exchange      EXHF   =         0.00000000
  -V(xc)+E(xc)   XCENC  =       -16.51348552
  PAW double counting   =       955.37334953     -899.15867001
  entropy T*S    EENTRO =        -0.00000000
  eigenvalues    EBANDS =      -124.15092963
  atomic energy  EATOM  =       724.24730435
  Solvation  Ediel_sol  =         0.00000000
  ---------------------------------------------------
  free energy    TOTEN  =       -16.75868023 eV

  energy without entropy =      -16.75868023  energy(sigma->0) =      -16.75868023


--------------------------------------------------------------------------------------------------------




--------------------------------------- Iteration      1(  13)  ---------------------------------------


    POTLOK:  cpu time      0.0860: real time      0.0864
    SETDIJ:  cpu time      1.1038: real time      1.1061
     EDDAV:  cpu time     12.6368: real time     12.7322
       DOS:  cpu time      0.0019: real time      0.0019
    CHARGE:  cpu time      0.0834: real time      0.0837
    MIXING:  cpu time      0.0038: real time      0.0039
    --------------------------------------------
      LOOP:  cpu time     13.9158: real time     14.0141

 eigenvalue-minimisations  : 31040
 total energy-change (2. order) :-0.6574805E-03  (-0.1403118E-04)
 number of electron      20.0000001 magnetization      -0.0053325
 augmentation part       -3.6741266 magnetization      -0.0055689

 Broyden mixing:
  rms(total) = 0.24679E-02    rms(broyden)= 0.24679E-02
  rms(prec ) = 0.44355E-02
  weight for this iteration     100.00

 eigenvalues of (default mixing * dielectric matrix)
  average eigenvalue GAMMA=   1.4337
  3.3759  2.5150  1.4137  1.1782  0.9118  0.7722  0.6514  0.6514

 Free energy of the ion-electron system (eV)
  ---------------------------------------------------
  alpha Z        PSCENC =        21.88172362
  Ewald energy   TEWEN  =       -43.18033095
  -Hartree energ DENC   =      -635.70628433
  -exchange      EXHF   =         0.00000000
  -V(xc)+E(xc)   XCENC  =       -16.50451942
  PAW double counting   =       954.33203922     -898.11684661
  entropy T*S    EENTRO =        -0.00000000
  eigenvalues    EBANDS =      -123.71242359
  atomic energy  EATOM  =       724.24730435
  Solvation  Ediel_sol  =         0.00000000
  ---------------------------------------------------
  free energy    TOTEN  =       -16.75933771 eV

  energy without entropy =      -16.75933771  energy(sigma->0) =      -16.75933771


--------------------------------------------------------------------------------------------------------




--------------------------------------- Iteration      1(  14)  ---------------------------------------


    POTLOK:  cpu time      0.0858: real time      0.0862
    SETDIJ:  cpu time      1.1049: real time      1.1070
     EDDAV:  cpu time     12.5980: real time     12.6915
       DOS:  cpu time      0.0019: real time      0.0019
    CHARGE:  cpu time      0.0851: real time      0.0856
    MIXING:  cpu time      0.0041: real time      0.0041
    --------------------------------------------
      LOOP:  cpu time     13.8798: real time     13.9763

 eigenvalue-minimisations  : 30704
 total energy-change (2. order) :-0.3772109E-03  (-0.1049186E-04)
 number of electron      20.0000001 magnetization      -0.0014599
 augmentation part       -3.6735203 magnetization      -0.0015672

 Broyden mixing:
  rms(total) = 0.14765E-02    rms(broyden)= 0.14765E-02
  rms(prec ) = 0.19657E-02
  weight for this iteration     100.00

 eigenvalues of (default mixing * dielectric matrix)
  average eigenvalue GAMMA=   1.5808
  4.3962  2.3778  2.3778  1.2213  1.0161  0.8480  0.7287  0.6309  0.6309

 Free energy of the ion-electron system (eV)
  ---------------------------------------------------
  alpha Z        PSCENC =        21.88172362
  Ewald energy   TEWEN  =       -43.18033095
  -Hartree energ DENC   =      -635.98544737
  -exchange      EXHF   =         0.00000000
  -V(xc)+E(xc)   XCENC  =       -16.49988440
  PAW double counting   =       954.56258618     -898.34837947
  entropy T*S    EENTRO =        -0.00000000
  eigenvalues    EBANDS =      -123.43728689
  atomic energy  EATOM  =       724.24730435
  Solvation  Ediel_sol  =         0.00000000
  ---------------------------------------------------
  free energy    TOTEN  =       -16.75971492 eV

  energy without entropy =      -16.75971492  energy(sigma->0) =      -16.75971492


--------------------------------------------------------------------------------------------------------




--------------------------------------- Iteration      1(  15)  ---------------------------------------


    POTLOK:  cpu time      0.0871: real time      0.0877
    SETDIJ:  cpu time      1.1027: real time      1.1050
     EDDAV:  cpu time     12.4716: real time     12.5682
       DOS:  cpu time      0.0019: real time      0.0019
    CHARGE:  cpu time      0.0837: real time      0.0843
    MIXING:  cpu time      0.0041: real time      0.0041
    --------------------------------------------
      LOOP:  cpu time     13.7510: real time     13.8511

 eigenvalue-minimisations  : 30400
 total energy-change (2. order) :-0.6332734E-04  (-0.3097148E-05)
 number of electron      20.0000001 magnetization      -0.0001455
 augmentation part       -3.6732825 magnetization      -0.0001623

 Broyden mixing:
  rms(total) = 0.76749E-03    rms(broyden)= 0.76749E-03
  rms(prec ) = 0.89727E-03
  weight for this iteration     100.00

 eigenvalues of (default mixing * dielectric matrix)
  average eigenvalue GAMMA=   1.7195
  5.7963  2.5519  2.5519  1.4089  1.1280  0.9382  0.8600  0.7183  0.6244  0.6168

 Free energy of the ion-electron system (eV)
  ---------------------------------------------------
  alpha Z        PSCENC =        21.88172362
  Ewald energy   TEWEN  =       -43.18033095
  -Hartree energ DENC   =      -636.08755928
  -exchange      EXHF   =         0.00000000
  -V(xc)+E(xc)   XCENC  =       -16.49843263
  PAW double counting   =       955.01215742     -898.79837661
  entropy T*S    EENTRO =        -0.00000000
  eigenvalues    EBANDS =      -123.33626417
  atomic energy  EATOM  =       724.24730435
  Solvation  Ediel_sol  =         0.00000000
  ---------------------------------------------------
  free energy    TOTEN  =       -16.75977825 eV

  energy without entropy =      -16.75977825  energy(sigma->0) =      -16.75977825


--------------------------------------------------------------------------------------------------------




--------------------------------------- Iteration      1(  16)  ---------------------------------------


    POTLOK:  cpu time      0.0852: real time      0.0859
    SETDIJ:  cpu time      1.1054: real time      1.1078
     EDDAV:  cpu time     12.8782: real time     12.9879
       DOS:  cpu time      0.0019: real time      0.0019
    --------------------------------------------
      LOOP:  cpu time     14.0706: real time     14.1834

 eigenvalue-minimisations  : 31792
 total energy-change (2. order) :-0.6094780E-06  (-0.2634226E-06)
 number of electron      20.0000001 magnetization      -0.0001455
 augmentation part       -3.6732825 magnetization      -0.0001623

 Free energy of the ion-electron system (eV)
  ---------------------------------------------------
  alpha Z        PSCENC =        21.88172362
  Ewald energy   TEWEN  =       -43.18033095
  -Hartree energ DENC   =      -636.09889364
  -exchange      EXHF   =         0.00000000
  -V(xc)+E(xc)   XCENC  =       -16.49845031
  PAW double counting   =       955.30523558     -899.09138232
  entropy T*S    EENTRO =        -0.00000000
  eigenvalues    EBANDS =      -123.32498518
  atomic energy  EATOM  =       724.24730435
  Solvation  Ediel_sol  =         0.00000000
  ---------------------------------------------------
  free energy    TOTEN  =       -16.75977886 eV

  energy without entropy =      -16.75977886  energy(sigma->0) =      -16.75977886


--------------------------------------------------------------------------------------------------------




 average (electrostatic) potential at core
  the test charge radii are     1.1631  1.0808
  (the norm of the test charge is              1.0000)
       1 -37.3562       2 -37.3562       3 -58.8143       4 -58.8143
 
 
 
 E-fermi :  -0.5985     XC(G=0):  -5.5807     alpha+bet : -4.3598

 Fermi energy:        -0.5985135947

 spin component 1

 k-point     1 :       0.0000    0.0000    0.0000
  band No.  band energies     occupation 
      1     -14.6462      1.00000
      2     -13.2777      1.00000
      3      -8.2853      1.00000
      4      -6.1808      1.00000
      5      -4.8108      1.00000
      6      -4.0047      1.00000
      7      -3.5050      1.00000
      8      -2.2984      1.00000
      9      -2.1902      1.00000
     10      -0.8283      1.00000
     11       0.5128      0.00000
     12       1.9512      0.00000
     13       2.3557      0.00000
     14       3.0116      0.00000
     15       3.2546      0.00000
     16       4.7224      0.00000
     17       4.8070      0.00000
     18       5.2393      0.00000
     19       6.6416      0.00000
     20       6.7720      0.00000
     21       7.6483      0.00000
     22       7.8194      0.00000
     23       7.9673      0.00000
     24       8.0696      0.00000
     25       8.6909      0.00000
     26       9.4598      0.00000
     27       9.8022      0.00000
     28      10.1003      0.00000
     29      10.6036      0.00000
     30      10.8293      0.00000
     31      11.2733      0.00000
     32      11.7950      0.00000
     33      11.8385      0.00000
     34      13.2504      0.00000
     35      13.4208      0.00000
     36      13.5138      0.00000
     37      14.1509      0.00000
     38      14.1815      0.00000
     39      14.4891      0.00000
     40      14.6684      0.00000
     41      14.8321      0.00000
     42      14.9981      0.00000
     43      15.8626      0.00000
     44      15.9045      0.00000
     45      16.1784      0.00000
     46      17.5666      0.00000
     47      18.1166      0.00000
     48      18.1781      0.00000
     49      18.2131      0.00000
     50      18.2372      0.00000
     51      18.5126      0.00000
     52      19.0325      0.00000
     53      19.6038      0.00000
     54      19.6254      0.00000
     55      19.6424      0.00000
     56      20.3993      0.00000
     57      20.4012      0.00000
     58      20.6823      0.00000
     59      20.6968      0.00000
     60      20.8645      0.00000
     61      21.3443      0.00000
     62      21.7096      0.00000
     63      21.9700      0.00000
     64      22.5402      0.00000
     65      23.1651      0.00000
     66      23.7650      0.00000
     67      24.1131      0.00000
     68      24.3211      0.00000
     69      24.4372      0.00000
     70      24.4476      0.00000
     71      24.4984      0.00000
     72      24.7494      0.00000
     73      25.3720      0.00000
     74      25.5838      0.00000
     75      25.6683      0.00000
     76      25.6949      0.00000
     77      25.9893      0.00000
     78      26.0237      0.00000
     79      26.4850      0.00000
     80      26.7808      0.00000
     81      26.8187      0.00000
     82      27.5925      0.00000
     83      27.7800      0.00000
     84      27.8231      0.00000
     85      28.0389      0.00000
     86      28.6295      0.00000
     87      28.7195      0.00000
     88      29.2835      0.00000
     89      29.3649      0.00000
     90      29.4251      0.00000
     91      29.8052      0.00000
     92      30.2006      0.00000
     93      31.0454      0.00000
     94      31.0742      0.00000
     95      31.1577      0.00000
     96      31.4693      0.00000
     97      31.9179      0.00000
     98      31.9811      0.00000
     99      32.1222      0.00000
    100      32.3961      0.00000
    101      32.5351      0.00000
    102      32.7139      0.00000
    103      32.9562      0.00000
    104      32.9663      0.00000
    105      33.0337      0.00000
    106      33.3737      0.00000
    107      33.5198      0.00000
    108      33.5647      0.00000
    109      34.7768      0.00000
    110      34.8851      0.00000
    111      35.7123      0.00000
    112      36.1108      0.00000
    113      36.1167      0.00000
    114      36.2200      0.00000
    115      36.4186      0.00000
    116      36.5960      0.00000
    117      36.7243      0.00000
    118      36.8299      0.00000
    119      36.8850      0.00000
    120      36.9296      0.00000
    121      37.4835      0.00000
    122      37.6157      0.00000
    123      37.8274      0.00000
    124      37.9217      0.00000
    125      37.9720      0.00000
    126      38.1634      0.00000
    127      38.4263      0.00000
    128      38.5367      0.00000
    129      38.5471      0.00000
    130      39.1095      0.00000
    131      39.1330      0.00000
    132      39.3758      0.00000
    133      39.5307      0.00000
    134      40.0539      0.00000
    135      40.3514      0.00000
    136      40.8069      0.00000
    137      41.3485      0.00000
    138      41.5896      0.00000
    139      41.7676      0.00000
    140      41.8472      0.00000
    141      41.9776      0.00000
    142      42.4638      0.00000
    143      42.4919      0.00000
    144      42.7420      0.00000
    145      42.8972      0.00000
    146      42.9743      0.00000
    147      43.1665      0.00000
    148      43.3596      0.00000
    149      43.5147      0.00000
    150      43.7288      0.00000
    151      43.7756      0.00000
    152      43.9643      0.00000
    153      44.0656      0.00000
    154      44.0888      0.00000
    155      44.7351      0.00000
    156      44.9485      0.00000
    157      45.2123      0.00000
    158      45.3058      0.00000
    159      45.4121      0.00000
    160      45.4368      0.00000
    161      45.6563      0.00000
    162      45.7600      0.00000
    163      45.8046      0.00000
    164      46.0513      0.00000
    165      46.1758      0.00000
    166      46.2522      0.00000
    167      46.6359      0.00000
    168      46.7959      0.00000
    169      47.0465      0.00000
    170      47.2064      0.00000
    171      47.2560      0.00000
    172      48.0035      0.00000
    173      48.0213      0.00000
    174      48.1632      0.00000
    175      48.5010      0.00000
    176      48.5453      0.00000
    177      48.6299      0.00000
    178      49.0087      0.00000
    179      49.0498      0.00000
    180      49.3936      0.00000
    181      49.5208      0.00000
    182      49.9056      0.00000
    183      50.0752      0.00000
    184      50.6474      0.00000
    185      50.8439      0.00000
    186      50.8915      0.00000
    187      50.9057      0.00000
    188      51.1143      0.00000
    189      51.2929      0.00000
    190      51.9493      0.00000
    191      52.2877      0.00000
    192      52.2904      0.00000
    193      52.6759      0.00000
    194      52.7739      0.00000
    195      52.8669      0.00000
    196      53.0440      0.00000
    197      53.1507      0.00000
    198      53.1589      0.00000
    199      53.2885      0.00000
    200      53.3114      0.00000
    201      53.8897      0.00000
    202      54.2524      0.00000
    203      54.2768      0.00000
    204      54.2962      0.00000
    205      54.5638      0.00000
    206      54.6720      0.00000
    207      54.8667      0.00000
    208      55.0191      0.00000
    209      55.0198      0.00000
    210      55.0413      0.00000
    211      55.3573      0.00000
    212      55.4178      0.00000
    213      55.5054      0.00000
    214      55.6254      0.00000
    215      55.7988      0.00000
    216      55.8700      0.00000
    217      56.0678      0.00000
    218      56.3246      0.00000
    219      56.4539      0.00000
    220      56.5166      0.00000
    221      56.8876      0.00000
    222      56.9409      0.00000
    223      56.9693      0.00000
    224      57.1849      0.00000

 k-point     2 :       0.1667    0.0000    0.0000
  band No.  band energies     occupation 
      1     -14.4630      1.00000
      2     -13.1923      1.00000
      3      -8.5075      1.00000
      4      -6.6719      1.00000
      5      -4.6102      1.00000
      6      -3.9861      1.00000
      7      -3.5943      1.00000
      8      -2.5314      1.00000
      9      -1.9888      1.00000
     10      -1.0131      1.00000
     11       0.7157      0.00000
     12       1.9072      0.00000
     13       2.7110      0.00000
     14       2.8267      0.00000
     15       3.2692      0.00000
     16       3.9201      0.00000
     17       4.6635      0.00000
     18       5.4035      0.00000
     19       5.7929      0.00000
     20       6.2899      0.00000
     21       7.1742      0.00000
     22       7.7821      0.00000
     23       7.9665      0.00000
     24       8.9264      0.00000
     25       9.8731      0.00000
     26       9.8822      0.00000
     27      10.5328      0.00000
     28      10.6200      0.00000
     29      10.8190      0.00000
     30      11.0051      0.00000
     31      11.2614      0.00000
     32      11.8807      0.00000
     33      12.1261      0.00000
     34      12.2652      0.00000
     35      13.0367      0.00000
     36      13.3216      0.00000
     37      13.7398      0.00000
     38      14.6132      0.00000
     39      14.8688      0.00000
     40      15.0220      0.00000
     41      15.7415      0.00000
     42      16.0918      0.00000
     43      16.1342      0.00000
     44      16.2587      0.00000
     45      16.4200      0.00000
     46      16.5830      0.00000
     47      17.3162      0.00000
     48      17.3724      0.00000
     49      17.4945      0.00000
     50      17.6709      0.00000
     51      18.7976      0.00000
     52      19.0131      0.00000
     53      19.8994      0.00000
     54      20.2582      0.00000
     55      20.3665      0.00000
     56      20.6001      0.00000
     57      21.0253      0.00000
     58      21.2300      0.00000
     59      21.4171      0.00000
     60      21.6171      0.00000
     61      22.0154      0.00000
     62      22.0544      0.00000
     63      22.2622      0.00000
     64      22.5176      0.00000
     65      22.6876      0.00000
     66      22.8562      0.00000
     67      23.0522      0.00000
     68      23.0712      0.00000
     69      23.9714      0.00000
     70      24.0390      0.00000
     71      24.2283      0.00000
     72      24.2581      0.00000
     73      24.4102      0.00000
     74      24.9740      0.00000
     75      25.2484      0.00000
     76      25.4793      0.00000
     77      26.2662      0.00000
     78      26.3782      0.00000
     79      26.6190      0.00000
     80      27.4535      0.00000
     81      27.7890      0.00000
     82      27.8840      0.00000
     83      27.9943      0.00000
     84      28.2666      0.00000
     85      28.6821      0.00000
     86      29.0678      0.00000
     87      29.2089      0.00000
     88      29.5320      0.00000
     89      29.5573      0.00000
     90      29.6418      0.00000
     91      29.9790      0.00000
     92      30.1907      0.00000
     93      30.6806      0.00000
     94      30.8838      0.00000
     95      30.9958      0.00000
     96      31.3282      0.00000
     97      31.3628      0.00000
     98      31.7035      0.00000
     99      31.9296      0.00000
    100      32.3327      0.00000
    101      32.5955      0.00000
    102      32.7225      0.00000
    103      32.7501      0.00000
    104      32.8510      0.00000
    105      33.1071      0.00000
    106      33.6984      0.00000
    107      34.0328      0.00000
    108      34.1484      0.00000
    109      34.2860      0.00000
    110      34.3611      0.00000
    111      34.8361      0.00000
    112      34.8889      0.00000
    113      35.3885      0.00000
    114      35.4521      0.00000
    115      35.5619      0.00000
    116      35.9063      0.00000
    117      36.0994      0.00000
    118      36.2605      0.00000
    119      36.6417      0.00000
    120      37.1225      0.00000
    121      37.3718      0.00000
    122      37.4261      0.00000
    123      37.6586      0.00000
    124      37.7649      0.00000
    125      38.0014      0.00000
    126      38.0443      0.00000
    127      38.2657      0.00000
    128      38.7606      0.00000
    129      38.9715      0.00000
    130      39.1190      0.00000
    131      39.3288      0.00000
    132      39.5935      0.00000
    133      40.0274      0.00000
    134      40.0533      0.00000
    135      40.4428      0.00000
    136      40.6070      0.00000
    137      40.7287      0.00000
    138      40.7290      0.00000
    139      40.9543      0.00000
    140      41.1218      0.00000
    141      41.2904      0.00000
    142      42.0104      0.00000
    143      42.0777      0.00000
    144      42.3157      0.00000
    145      42.3165      0.00000
    146      42.7683      0.00000
    147      43.3099      0.00000
    148      43.4291      0.00000
    149      43.4494      0.00000
    150      43.8069      0.00000
    151      43.9833      0.00000
    152      44.2391      0.00000
[...]
      5      -5.0255      1.00000
      6      -5.0255      1.00000
      7      -4.2068      1.00000
      8      -4.2068      1.00000
      9      -2.1329      1.00000
     10      -2.1329      1.00000
     11       2.1998      0.00000
     12       2.1998      0.00000
     13       3.9577      0.00000
     14       3.9577      0.00000
     15       4.6813      0.00000
     16       4.6813      0.00000
     17       6.2902      0.00000
     18       6.2902      0.00000
     19       6.6771      0.00000
     20       6.6771      0.00000
     21       7.8538      0.00000
     22       7.8538      0.00000
     23       8.4723      0.00000
     24       8.4723      0.00000
     25       9.0967      0.00000
     26       9.0967      0.00000
     27       9.3121      0.00000
     28       9.3121      0.00000
     29      10.4706      0.00000
     30      10.4706      0.00000
     31      11.7641      0.00000
     32      11.7642      0.00000
     33      13.2719      0.00000
     34      13.2719      0.00000
     35      13.4294      0.00000
     36      13.4294      0.00000
     37      13.7473      0.00000
     38      13.7473      0.00000
     39      15.0024      0.00000
     40      15.0024      0.00000
     41      15.4525      0.00000
     42      15.4525      0.00000
     43      16.2527      0.00000
     44      16.2527      0.00000
     45      16.7354      0.00000
     46      16.7354      0.00000
     47      17.4109      0.00000
     48      17.4109      0.00000
     49      17.7384      0.00000
     50      17.7384      0.00000
     51      17.9971      0.00000
     52      17.9971      0.00000
     53      19.7122      0.00000
     54      19.7122      0.00000
     55      20.5395      0.00000
     56      20.5395      0.00000
     57      22.0082      0.00000
     58      22.0082      0.00000
     59      22.2715      0.00000
     60      22.2715      0.00000
     61      22.8760      0.00000
     62      22.8760      0.00000
     63      23.3053      0.00000
     64      23.3053      0.00000
     65      23.7272      0.00000
     66      23.7272      0.00000
     67      23.8327      0.00000
     68      23.8327      0.00000
     69      23.9934      0.00000
     70      23.9934      0.00000
     71      24.2491      0.00000
     72      24.2491      0.00000
     73      25.4795      0.00000
     74      25.4795      0.00000
     75      25.6170      0.00000
     76      25.6170      0.00000
     77      26.2572      0.00000
     78      26.2572      0.00000
     79      26.5332      0.00000
     80      26.5332      0.00000
     81      26.7450      0.00000
     82      26.7450      0.00000
     83      27.1814      0.00000
     84      27.1814      0.00000
     85      28.1313      0.00000
     86      28.1313      0.00000
     87      28.3484      0.00000
     88      28.3484      0.00000
     89      29.1248      0.00000
     90      29.1248      0.00000
     91      29.6287      0.00000
     92      29.6287      0.00000
     93      29.9928      0.00000
     94      29.9928      0.00000
     95      30.2748      0.00000
     96      30.2748      0.00000
     97      30.3133      0.00000
     98      30.3133      0.00000
     99      30.4355      0.00000
    100      30.4355      0.00000
    101      30.8980      0.00000
    102      30.8980      0.00000
    103      31.7136      0.00000
    104      31.7136      0.00000
    105      34.1110      0.00000
    106      34.1110      0.00000
    107      34.4261      0.00000
    108      34.4261      0.00000
    109      35.0681      0.00000
    110      35.0681      0.00000
    111      35.2963      0.00000
    112      35.2963      0.00000
    113      35.6227      0.00000
    114      35.6227      0.00000
    115      35.7184      0.00000
    116      35.7184      0.00000
    117      36.2131      0.00000
    118      36.2131      0.00000
    119      36.6101      0.00000
    120      36.6101      0.00000
    121      37.6730      0.00000
    122      37.6730      0.00000
    123      37.7839      0.00000
    124      37.7839      0.00000
    125      37.8890      0.00000
    126      37.8890      0.00000
    127      38.0125      0.00000
    128      38.0125      0.00000
    129      38.8945      0.00000
    130      38.8945      0.00000
    131      39.2253      0.00000
    132      39.2253      0.00000
    133      39.5628      0.00000
    134      39.5628      0.00000
    135      39.7588      0.00000
    136      39.7588      0.00000
    137      40.0102      0.00000
    138      40.0102      0.00000
    139      40.2590      0.00000
    140      40.2590      0.00000
    141      40.3199      0.00000
    142      40.3199      0.00000
    143      40.8135      0.00000
    144      40.8135      0.00000
    145      43.0465      0.00000
    146      43.0465      0.00000
    147      43.2047      0.00000
    148      43.2047      0.00000
    149      43.6256      0.00000
    150      43.6256      0.00000
    151      43.7245      0.00000
    152      43.7245      0.00000
    153      45.1995      0.00000
    154      45.1995      0.00000
    155      45.2364      0.00000
    156      45.2364      0.00000
    157      45.4210      0.00000
    158      45.4210      0.00000
    159      45.8190      0.00000
    160      45.8190      0.00000
    161      46.4913      0.00000
    162      46.4913      0.00000
    163      46.6769      0.00000
    164      46.6769      0.00000
    165      47.1028      0.00000
    166      47.1028      0.00000
    167      48.1077      0.00000
    168      48.1077      0.00000
    169      48.2773      0.00000
    170      48.2773      0.00000
    171      49.1206      0.00000
    172      49.1206      0.00000
    173      49.3051      0.00000
    174      49.3051      0.00000
    175      49.8534      0.00000
    176      49.8534      0.00000
    177      50.0085      0.00000
    178      50.0085      0.00000
    179      50.2016      0.00000
    180      50.2016      0.00000
    181      50.6268      0.00000
    182      50.6268      0.00000
    183      50.9264      0.00000
    184      50.9264      0.00000
    185      51.0574      0.00000
    186      51.0574      0.00000
    187      51.3301      0.00000
    188      51.3301      0.00000
    189      51.6297      0.00000
    190      51.6297      0.00000
    191      51.9859      0.00000
    192      51.9859      0.00000
    193      52.5876      0.00000
    194      52.5876      0.00000
    195      52.8437      0.00000
    196      52.8437      0.00000
    197      53.1692      0.00000
    198      53.1692      0.00000
    199      53.3061      0.00000
    200      53.3061      0.00000
    201      53.6001      0.00000
    202      53.6001      0.00000
    203      53.6017      0.00000
    204      53.6017      0.00000
    205      54.3726      0.00000
    206      54.3726      0.00000
    207      54.6203      0.00000
    208      54.6203      0.00000
    209      55.0272      0.00000
    210      55.0272      0.00000
    211      55.2990      0.00000
    212      55.2990      0.00000
    213      56.4398      0.00000
    214      56.4398      0.00000
    215      56.9747      0.00000
    216      56.9747      0.00000
    217      57.0691      0.00000
    218      57.0691      0.00000
    219      57.4340      0.00000
    220      57.4340      0.00000
    221      57.7114      0.00000
    222      57.7115      0.00000
    223      58.2480      0.00000
    224      58.2548      0.00000


--------------------------------------------------------------------------------------------------------


 soft charge-density along one line, spin component            1
         0         1         2         3         4         5         6         7         8         9
 total charge-density along one line
 
 soft charge-density along one line, spin component            2
         0         1         2         3         4         5         6         7         8         9
 total charge-density along one line
 
 pseudopotential strength for first ion, spin component:            1
 15.697  19.619   0.042   0.053  -0.000   0.076   0.095  -0.000
 19.619  24.538   0.053   0.066  -0.000   0.096   0.120  -0.000
  0.042   0.053   3.421  -0.003  -0.000   5.840  -0.005  -0.000
  0.053   0.066  -0.003   3.419  -0.000  -0.005   5.837  -0.000
 -0.000  -0.000  -0.000  -0.000   3.422  -0.000  -0.000   5.843
  0.076   0.096   5.840  -0.005  -0.000  10.032  -0.009  -0.000
  0.095   0.120  -0.005   5.837  -0.000  -0.009  10.026  -0.000
 -0.000  -0.000  -0.000  -0.000   5.843  -0.000  -0.000  10.036
 -0.000  -0.000  -0.000  -0.000   0.007  -0.000  -0.000   0.013
 -0.007  -0.008   0.013   0.013  -0.000   0.024   0.024  -0.000
 -0.003  -0.004  -0.004   0.013   0.000  -0.007   0.025   0.000
 -0.000  -0.000  -0.000  -0.000   0.013  -0.000  -0.000   0.024
  0.001   0.002  -0.013   0.000  -0.000  -0.023   0.000  -0.000
 pseudopotential strength for first ion, spin component:            2
 15.697  19.619   0.042   0.053  -0.000   0.076   0.095  -0.000
 19.619  24.538   0.053   0.066  -0.000   0.096   0.120  -0.000
  0.042   0.053   3.421  -0.003  -0.000   5.840  -0.005  -0.000
  0.053   0.066  -0.003   3.419  -0.000  -0.005   5.837  -0.000
 -0.000  -0.000  -0.000  -0.000   3.422  -0.000  -0.000   5.843
  0.076   0.096   5.840  -0.005  -0.000  10.032  -0.009  -0.000
  0.095   0.120  -0.005   5.837  -0.000  -0.009  10.026  -0.000
 -0.000  -0.000  -0.000  -0.000   5.843  -0.000  -0.000  10.037
 -0.000  -0.000  -0.000  -0.000   0.007  -0.000  -0.000   0.013
 -0.007  -0.008   0.013   0.013  -0.000   0.024   0.024  -0.000
 -0.003  -0.004  -0.004   0.013   0.000  -0.007   0.025   0.000
 -0.000  -0.000  -0.000  -0.000   0.013  -0.000  -0.000   0.024
  0.001   0.002  -0.013   0.000  -0.000  -0.023   0.000  -0.000
 total augmentation occupancy for first ion, spin component:            1
  2.688  -0.651   0.352   0.400   0.000  -0.066  -0.073  -0.000  -0.000  -0.009  -0.014  -0.000   0.009
 -0.651   0.614  -0.445  -0.550   0.000   0.071   0.087   0.000   0.000   0.002   0.017   0.000  -0.005
  0.352  -0.445   1.226   0.076   0.000  -0.198   0.000   0.000   0.000   0.051  -0.099   0.000   0.001
  0.400  -0.550   0.076   1.275   0.000   0.000  -0.199  -0.000   0.000  -0.016   0.111   0.000  -0.003
  0.000   0.000   0.000   0.000   1.240   0.000   0.000  -0.211   0.148   0.000   0.000   0.045   0.000
 -0.066   0.071  -0.198   0.000   0.000   0.036  -0.002   0.000   0.000  -0.009   0.017  -0.000   0.000
 -0.073   0.087   0.000  -0.199   0.000  -0.002   0.035   0.000  -0.000   0.003  -0.020   0.000   0.001
  0.000   0.000  -0.000  -0.000  -0.211  -0.000   0.000   0.040  -0.026  -0.000   0.000  -0.008   0.000
 -0.000   0.000   0.000   0.000   0.148  -0.000   0.000  -0.026   0.030  -0.000  -0.000   0.003  -0.000
 -0.009   0.002   0.051  -0.016   0.000  -0.009   0.003   0.000   0.000   0.010  -0.007   0.000   0.001
 -0.014   0.017  -0.099   0.111   0.000   0.017  -0.020   0.000   0.000  -0.007   0.028   0.000  -0.002
  0.000  -0.000   0.000   0.000   0.045   0.000   0.000  -0.008   0.003   0.000   0.000   0.009   0.000
  0.009  -0.005   0.001  -0.003   0.000   0.000   0.001   0.000  -0.000   0.001  -0.002   0.000   0.008
 total augmentation occupancy for first ion, spin component:            2
 -0.000  -0.000   0.000   0.000   0.000  -0.000  -0.000   0.000   0.000   0.000   0.000   0.000  -0.000
 -0.000   0.000  -0.000  -0.000   0.000   0.000   0.000   0.000   0.000   0.000   0.000   0.000  -0.000
  0.000  -0.000  -0.000   0.000   0.000  -0.000  -0.000   0.000   0.000  -0.000  -0.000  -0.000   0.000
  0.000  -0.000   0.000   0.000   0.000  -0.000  -0.000   0.000   0.000  -0.000   0.000   0.000   0.000
  0.000   0.000   0.000   0.000  -0.000   0.000   0.000  -0.000   0.000   0.000   0.000  -0.000  -0.000
 -0.000   0.000  -0.000  -0.000   0.000   0.000  -0.000   0.000   0.000   0.000   0.000   0.000  -0.000
 -0.000   0.000  -0.000  -0.000   0.000  -0.000   0.000   0.000   0.000   0.000  -0.000   0.000  -0.000
  0.000   0.000   0.000   0.000  -0.000   0.000   0.000   0.000  -0.000   0.000   0.000   0.000   0.000
  0.000   0.000   0.000   0.000   0.000   0.000   0.000  -0.000   0.000   0.000   0.000   0.000   0.000
  0.000   0.000  -0.000  -0.000   0.000   0.000   0.000   0.000   0.000  -0.000  -0.000   0.000   0.000
  0.000   0.000  -0.000   0.000   0.000   0.000  -0.000   0.000   0.000  -0.000   0.000   0.000  -0.000
  0.000   0.000  -0.000   0.000  -0.000   0.000   0.000   0.000   0.000   0.000   0.000  -0.000   0.000
 -0.000  -0.000   0.000   0.000  -0.000  -0.000  -0.000   0.000   0.000   0.000  -0.000   0.000  -0.000


------------------------ aborting loop because EDIFF is reached ----------------------------------------





 total charge

# of ion       s       p       d       tot
------------------------------------------
    1        1.318   0.790   0.051   2.158
    2        1.318   0.790   0.051   2.158
    3        1.472   2.313   0.029   3.813
    4        1.472   2.313   0.029   3.813
--------------------------------------------------
tot          5.579   6.205   0.159  11.943



 magnetization (x)

# of ion       s       p       d       tot
------------------------------------------
    1        0.000  -0.000   0.000  -0.000
    2        0.000  -0.000   0.000  -0.000
    3        0.000   0.000  -0.000   0.000
    4        0.000   0.000  -0.000   0.000
--------------------------------------------------
tot          0.000   0.000  -0.000   0.000
 
    CHARGE:  cpu time      0.0800: real time      0.0804
    FORLOC:  cpu time      0.0027: real time      0.0027
    FORNL :  cpu time      0.8309: real time      0.8343
    STRESS:  cpu time      2.5196: real time      2.5347
    FORCOR:  cpu time      0.0818: real time      0.0821
    FORHAR:  cpu time      0.0092: real time      0.0093
    MIXING:  cpu time      0.0041: real time      0.0041
    OFIELD:  cpu time      0.0000: real time      0.0000

  FORCE on cell =-STRESS in cart. coord.  units (eV):
  Direction    XX          YY          ZZ          XY          YZ          ZX
  --------------------------------------------------------------------------------------
  Alpha Z    21.88172    21.88172    21.88172
  Ewald     445.62615   417.45168  -906.25856    -0.00000     0.00000    -0.00000
  Hartree   598.14987   586.51153  -548.56075    -0.00000     0.00000    -0.00000
  E(xc)     -70.25722   -70.27473   -70.89175    -0.00000     0.00000     0.00000
  Local   -1303.89468 -1267.40432  1189.18886    -0.00000     0.00000    -0.00000
  n-local   120.12123   119.81389   120.87577     0.43078     0.00000     0.00000
  augment    -5.65187    -5.87435    -6.08085     0.00000     0.00000    -0.00000
  Kinetic   194.42802   198.24139   199.02364     3.34408    -0.00000     0.00000
  Fock        0.00000     0.00000     0.00000     0.00000     0.00000     0.00000
  -------------------------------------------------------------------------------------
  Total       0.40322     0.34682    -0.82192     0.00000     0.00000     0.00000
  in kB       3.33712     2.87029    -6.80226     0.00000     0.00000     0.00000
  external pressure =       -0.20 kB  Pullay stress =        0.00 kB


 VOLUME and BASIS-vectors are now :
 -----------------------------------------------------------------------------
  energy-cutoff  :      520.00
  volume of cell :      193.59
      direct lattice vectors                 reciprocal lattice vectors
     3.858100176  0.000000000  0.000000000     0.259194929  0.000000000  0.000000000
     0.000000000  4.526575088  0.000000000     0.000000000  0.220917577  0.000000000
     0.000000000  0.000000000 11.085176468     0.000000000  0.000000000  0.090210562

  length of vectors
     3.858100176  4.526575088 11.085176468     0.259194929  0.220917577  0.090210562


 FORCES acting on ions
    electron-ion (+dipol)            ewald-force                    non-local-force                 convergence-correction
 -----------------------------------------------------------------------------------------------
   0.384E-09 0.159E+02 0.127E+03   0.206E-08 -.186E+02 -.131E+03   0.000E+00 0.254E+01 0.364E+01   0.536E-11 -.295E-03 -.861E-03
   -.408E-08 0.159E+02 -.127E+03   -.206E-08 -.186E+02 0.131E+03   0.000E+00 0.254E+01 -.364E+01   -.493E-11 -.295E-03 0.862E-03
   -.197E-07 -.170E+02 0.152E+03   -.238E-08 0.186E+02 -.154E+03   0.000E+00 -.149E+01 0.185E+01   -.145E-10 -.544E-05 -.989E-03
   0.417E-09 -.170E+02 -.152E+03   0.238E-08 0.186E+02 0.154E+03   0.000E+00 -.149E+01 -.185E+01   0.922E-11 -.567E-05 0.990E-03
 -----------------------------------------------------------------------------------------------
   -.230E-07 -.209E+01 -.479E-04   0.390E-14 0.000E+00 0.284E-13   0.000E+00 0.209E+01 0.444E-15   -.483E-11 -.601E-03 0.703E-06
 
 
 POSITION                                       TOTAL-FORCE (eV/Angst)
 -----------------------------------------------------------------------------------
      0.96453      0.52346      1.36947        -0.000000     -0.082633      0.271470
      2.89358      2.78675      4.17312        -0.000000     -0.082633     -0.271470
      2.89358      2.24089      1.63362        -0.000000      0.082633      0.023288
      0.96453      4.50417      3.90897         0.000000      0.082633     -0.023288
 -----------------------------------------------------------------------------------
    total drift:                               -0.000000     -0.000311     -0.000047


--------------------------------------------------------------------------------------------------------



  FREE ENERGIE OF THE ION-ELECTRON SYSTEM (eV)
  ---------------------------------------------------
  free  energy   TOTEN  =       -16.75977886 eV

  energy  without entropy=      -16.75977886  energy(sigma->0) =      -16.75977886
 


--------------------------------------------------------------------------------------------------------


    POTLOK:  cpu time      1.1860: real time      1.1891


--------------------------------------------------------------------------------------------------------


 writing wavefunctions
     LOOP+:  cpu time    230.8369: real time    237.5463
    4ORBIT:  cpu time      0.0000: real time      0.0000



 total charge

# of ion       s       p       d       tot
------------------------------------------
    1        1.318   0.790   0.051   2.158
    2        1.318   0.790   0.051   2.158
    3        1.472   2.313   0.029   3.813
    4        1.472   2.313   0.029   3.813
--------------------------------------------------
tot          5.579   6.205   0.159  11.943



 magnetization (x)

# of ion       s       p       d       tot
------------------------------------------
    1        0.000  -0.000   0.000  -0.000
    2        0.000  -0.000   0.000  -0.000
    3        0.000   0.000  -0.000   0.000
    4        0.000   0.000  -0.000   0.000
--------------------------------------------------
tot          0.000   0.000  -0.000   0.000
 

 total amount of memory used by VASP MPI-rank0   155010. kBytes
=======================================================================

   base      :      30000. kBytes
   nonl-proj :      35374. kBytes
   fftplans  :       1991. kBytes
   grid      :      11199. kBytes
   one-center:         64. kBytes
   wavefun   :      76382. kBytes
 
  
  
 General timing and accounting informations for this job:
 ========================================================
  
                  Total CPU time used (sec):      238.112
                            User time (sec):      236.901
                          System time (sec):        1.211
                         Elapsed time (sec):      245.363
  
                   Maximum memory used (kb):      317196.
                   Average memory used (kb):          N/A
  
                          Minor page faults:       182770
                          Major page faults:           55
                 Voluntary context switches:        73095
