 running   32 mpi-ranks, with    1 threads/rank, on    2 nodes
 distrk:  each k-point on   16 cores,    2 groups
 distr:  one band on    1 cores,   16 groups
 vasp.6.4.2 20Jul23 (build Oct 12 2023 10:31:02) complex                         
 POSCAR found type information on POSCAR GeSe
 POSCAR found :  2 types and       4 ions
 Reading from existing POTCAR
 -----------------------------------------------------------------------------
|                                                                             |
|           W    W    AA    RRRRR   N    N  II  N    N   GGGG   !!!           |
|           W    W   A  A   R    R  NN   N  II  NN   N  G    G  !!!           |
|           W    W  A    A  R    R  N N  N  II  N N  N  G       !!!           |
|           W WW W  AAAAAA  RRRRR   N  N N  II  N  N N  G  GGG   !            |
|           WW  WW  A    A  R   R   N   NN  II  N   NN  G    G                |
|           W    W  A    A  R    R  N    N  II  N    N   GGGG   !!!           |
|                                                                             |
|     You use a magnetic or noncollinear calculation, but did not specify     |
|     the initial magnetic moment with the MAGMOM tag. Note that a            |
|     default of 1 will be used for all atoms. This ferromagnetic setup       |
|     may break the symmetry of the crystal, in particular it may rule        |
|     out finding an antiferromagnetic solution. Thence, we recommend         |
|     setting the initial magnetic moment manually or verifying carefully     |
|     that this magnetic setup is desired.                                    |
|                                                                             |
 -----------------------------------------------------------------------------

 scaLAPACK will be used
 Reading from existing POTCAR
 LDA part: xc-table for Pade appr. of Perdew
 -----------------------------------------------------------------------------
|                                                                             |
|           W    W    AA    RRRRR   N    N  II  N    N   GGGG   !!!           |
|           W    W   A  A   R    R  NN   N  II  NN   N  G    G  !!!           |
|           W    W  A    A  R    R  N N  N  II  N N  N  G       !!!           |
|           W WW W  AAAAAA  RRRRR   N  N N  II  N  N N  G  GGG   !            |
|           WW  WW  A    A  R   R   N   NN  II  N   NN  G    G                |
|           W    W  A    A  R    R  N    N  II  N    N   GGGG   !!!           |
|                                                                             |
|     The number of bands has been changed from the values supplied in        |
|     the INCAR file. This is a result of running the parallel version.       |
|     The orbitals not found in the WAVECAR file will be initialized with     |
|     random numbers, which is usually adequate. For correlated               |
|     calculations, however, you should redo the groundstate calculation.     |
|     I found NBANDS = 220. Now, NBANDS = 224.                                |
|                                                                             |
 -----------------------------------------------------------------------------

 POSCAR, INCAR and KPOINTS ok, starting setup
 FFT: planning ... GRIDC
 FFT: planning ... GRID_SOFT
 FFT: planning ... GRID
 WAVECAR not read
 WARNING: random wavefunctions but no delay for mixing, default for NELMDL
 entering main loop
       N       E                     dE             d eps       ncg     rms          rms(c)
DAV:   1     0.950790039009E+02    0.95079E+02   -0.43210E+03 28672   0.676E+01
DAV:   2    -0.120180829933E+02   -0.10710E+03   -0.95426E+02 34656   0.251E+01
DAV:   3    -0.162296777042E+02   -0.42116E+01   -0.41665E+01 34000   0.523E+00
DAV:   4    -0.162381877045E+02   -0.85100E-02   -0.85089E-02 33504   0.197E-01
DAV:   5    -0.162381966716E+02   -0.89671E-05   -0.89670E-05 32816   0.716E-03    0.684E+00
DAV:   6    -0.156811893796E+02    0.55701E+00   -0.11896E+00 31568   0.583E-01    0.387E+00
DAV:   7    -0.163972968208E+02   -0.71611E+00   -0.16971E-01 30688   0.284E-01    0.193E+00
DAV:   8    -0.167528332675E+02   -0.35554E+00   -0.86418E-02 31872   0.196E-01    0.540E-01
DAV:   9    -0.167572104213E+02   -0.43772E-02   -0.11569E-02 31984   0.600E-02    0.165E-01
DAV:  10    -0.167573185925E+02   -0.10817E-03   -0.61225E-04 32960   0.161E-02    0.907E-02
DAV:  11    -0.167578964861E+02   -0.57789E-03   -0.44215E-04 31120   0.117E-02    0.555E-02
DAV:  12    -0.167586802313E+02   -0.78375E-03   -0.23080E-04 31152   0.977E-03    0.351E-02
DAV:  13    -0.167593377119E+02   -0.65748E-03   -0.14031E-04 31040   0.776E-03    0.247E-02
DAV:  14    -0.167597149227E+02   -0.37721E-03   -0.10492E-04 30704   0.710E-03    0.148E-02
DAV:  15    -0.167597782501E+02   -0.63327E-04   -0.30971E-05 30400   0.405E-03    0.767E-03
DAV:  16    -0.167597788595E+02   -0.60948E-06   -0.26342E-06 31792   0.133E-03
   1 F= -.16759779E+02 E0= -.16759779E+02  d E =-.540635E-12  mag=     0.0002
 writing wavefunctions
