 vasp.6.4.2 20Jul23 (build Oct 12 2023 10:31:02) complex                         
 executed on              LinuxNV date 2025.05.28  05:07:48
 running  128 mpi-ranks, with    1 threads/rank, on    2 nodes
 distrk:  each k-point on   64 cores,    2 groups
 distr:  one band on NCORE=   4 cores,   16 groups


--------------------------------------------------------------------------------------------------------


 INCAR:
   ENCUT = 360.000000
   SIGMA = 0.050000
   EDIFF = 1.00e-06
   ALGO = Normal
   GGA = PE
   PREC = Normal
   SYSTEM = ./
   ICHARG = 2
   ISMEAR = 0
   ISPIN = 1
   ISTART = 0
   ISYM = 0
   KPAR = 2
   LMAXMIX = 4
   NELM = 100
   NPAR = 16
   LASPH = .TRUE.
   LCHARG = .FALSE.
   LWAVE = .FALSE.

 POTCAR:    PAW_PBE Ge 05Jan2001                  
 POTCAR:    PAW_PBE Se 06Sep2000                  
 POTCAR:    PAW_PBE Ge 05Jan2001                  
   VRHFIN =Ge: s2p2                                                                                 
   LEXCH  = PE                                                                                      
   EATOM  =   104.9960 eV,    7.7170 Ry                                                             
                                                                                                    
   TITEL  = PAW_PBE Ge 05Jan2001                                                                    
   LULTRA =        F    use ultrasoft PP ?                                                          
   IUNSCR =        1    unscreen: 0-lin 1-nonlin 2-no                                               
   RPACOR =    2.170    partial core radius                                                         
   POMASS =   72.610; ZVAL   =    4.000    mass and valenz                                          
   RCORE  =    2.300    outmost cutoff radius                                                       
   RWIGS  =    2.300; RWIGS  =    1.217    wigner-seitz radius (au A)                               
   ENMAX  =  173.807; ENMIN  =  130.355 eV                                                          
   ICORE  =        3    local potential                                                             
   LCOR   =        T    correct aug charges                                                         
   LPAW   =        T    paw PP                                                                      
   EAUG   =  385.843                                                                                
   DEXC   =    0.000                                                                                
   RMAX   =    2.342    core radius for proj-oper                                                   
   RAUG   =    1.300    factor for augmentation sphere                                              
   RDEP   =    2.318    radius for radial grids                                                     
   RDEPT  =    2.103    core radius for aug-charge                                                  
                                                                                                    
   Atomic configuration                                                                             
   10 entries                                                                                       
     n  l   j            E        occ.                                                              
     1  0  0.50    -10959.8463   2.0000                                                             
     2  0  0.50     -1371.6056   2.0000                                                             
     2  1  1.50     -1198.4791   6.0000                                                             
     3  0  0.50      -168.4733   2.0000                                                             
     3  1  1.50      -115.6019   6.0000                                                             
     3  2  2.50       -29.3106  10.0000                                                             
     4  0  0.50       -11.7309   2.0000                                                             
     4  1  0.50        -3.8952   2.0000                                                             
     4  2  1.50        -4.0817   0.0000                                                             
     4  3  2.50        -4.0817   0.0000                                                             
   Description                                                                                      
     l       E           TYP  RCUT    TYP  RCUT                                                     
     0    -11.7309493     23  2.300                                                                 
     0     -7.4578696     23  2.300                                                                 
     1     -3.8952261     23  2.300                                                                 
     1      6.1178114     23  2.300                                                                 
     2     -4.0817478     23  2.300                                                                 
     3     -1.3605826      7  2.300                                                                 
  local pseudopotential read in
  partial core-charges read in
  partial kinetic energy density read in
  atomic valenz-charges read in
  non local Contribution for L=            0  read in
    real space projection operators read in
  non local Contribution for L=            0  read in
    real space projection operators read in
  non local Contribution for L=            1  read in
    real space projection operators read in
  non local Contribution for L=            1  read in
    real space projection operators read in
  non local Contribution for L=            2  read in
    real space projection operators read in
    PAW grid and wavefunctions read in
 
   number of l-projection  operators is LMAX  =            5
   number of lm-projection operators is LMMAX =           13
 
 POTCAR:    PAW_PBE Se 06Sep2000                  
   VRHFIN =Se: s2p4                                                                                 
   LEXCH  = PE                                                                                      
   EATOM  =   257.1286 eV,   18.8984 Ry                                                             
                                                                                                    
   TITEL  = PAW_PBE Se 06Sep2000                                                                    
   LULTRA =        F    use ultrasoft PP ?                                                          
   IUNSCR =        1    unscreen: 0-lin 1-nonlin 2-no                                               
   RPACOR =    1.900    partial core radius                                                         
   POMASS =   78.960; ZVAL   =    6.000    mass and valenz                                          
   RCORE  =    2.100    outmost cutoff radius                                                       
   RWIGS  =    2.200; RWIGS  =    1.164    wigner-seitz radius (au A)                               
   ENMAX  =  211.555; ENMIN  =  158.666 eV                                                          
   ICORE  =        3    local potential                                                             
   LCOR   =        T    correct aug charges                                                         
   LPAW   =        T    paw PP                                                                      
   EAUG   =  446.842                                                                                
   DEXC   =    0.000                                                                                
   RMAX   =    2.147    core radius for proj-oper                                                   
   RAUG   =    1.300    factor for augmentation sphere                                              
   RDEP   =    2.177    radius for radial grids                                                     
   RDEPT  =    1.928    core radius for aug-charge                                                  
                                                                                                    
   Atomic configuration                                                                             
   10 entries                                                                                       
     n  l   j            E        occ.                                                              
     1  0  0.50    -12503.4787   2.0000                                                             
     2  0  0.50     -1606.9547   2.0000                                                             
     2  1  1.50     -1413.3140   6.0000                                                             
     3  0  0.50      -213.4885   2.0000                                                             
     3  1  1.50      -152.9538   6.0000                                                             
     3  2  2.50       -53.1221  10.0000                                                             
     4  0  0.50       -17.2865   2.0000                                                             
     4  1  0.50        -6.5110   4.0000                                                             
     4  2  2.50        -6.8029   0.0000                                                             
     4  3  2.50        -6.8029   0.0000                                                             
   Description                                                                                      
     l       E           TYP  RCUT    TYP  RCUT                                                     
     0    -17.2865377     23  2.100                                                                 
     0    -15.3094411     23  2.100                                                                 
     1     -6.5110275     23  2.100                                                                 
     1     -0.0695192     23  2.100                                                                 
     2     -6.8029130     23  2.100                                                                 
     3     -1.3605826      7  2.100                                                                 
  local pseudopotential read in
  partial core-charges read in
  partial kinetic energy density read in
  atomic valenz-charges read in
  non local Contribution for L=            0  read in
    real space projection operators read in
  non local Contribution for L=            0  read in
    real space projection operators read in
  non local Contribution for L=            1  read in
    real space projection operators read in
  non local Contribution for L=            1  read in
    real space projection operators read in
  non local Contribution for L=            2  read in
    real space projection operators read in
    PAW grid and wavefunctions read in
 
   number of l-projection  operators is LMAX  =            5
   number of lm-projection operators is LMMAX =           13
 
  PAW_PBE Ge 05Jan2001                  :
 energy of atom  1       EATOM= -104.9960
 kinetic energy error for atom=    0.0005 (will be added to EATOM!!)
  PAW_PBE Se 06Sep2000                  :
 energy of atom  2       EATOM= -257.1286
 kinetic energy error for atom=    0.0030 (will be added to EATOM!!)
 
 
 POSCAR: Ge Se
  positions in cartesian coordinates
  No initial velocities read in
 exchange correlation table for  LEXCH =        8
   RHO(1)=    0.500       N(1)  =     2000
   RHO(2)=  100.500       N(2)  =     4000
 


--------------------------------------------------------------------------------------------------------


 ion  position               nearest neighbor table
   1  0.097  0.250  0.131-   5 2.57   6 2.66   6 2.66
   2  0.597  0.750  0.369-   6 2.57   5 2.66   5 2.66
   3  0.903  0.750  0.869-   7 2.57   8 2.66   8 2.66
   4  0.403  0.250  0.631-   8 2.57   7 2.66   7 2.66
   5  0.005  0.250  0.359-   1 2.57   2 2.66   2 2.66
   6  0.505  0.750  0.141-   2 2.57   1 2.66   1 2.66
   7  0.995  0.750  0.641-   3 2.57   4 2.66   4 2.66
   8  0.495  0.250  0.859-   4 2.57   3 2.66   3 2.66
 

IMPORTANT INFORMATION: All symmetrisations will be switched off!
NOSYMM: (Re-)initialisation of all symmetry stuff for point group C_1.


----------------------------------------------------------------------------------------

                                     Primitive cell                                     

  volume of cell :     189.5849

  direct lattice vectors                    reciprocal lattice vectors
     4.150000000  0.000000000  0.000000000     0.240963855  0.000000000  0.000000000
     0.000000000  4.100000000  0.000000000     0.000000000  0.243902439  0.000000000
     0.000000000  0.000000000 11.142221000     0.000000000  0.000000000  0.089748713

  length of vectors
     4.150000000  4.100000000 11.142221000     0.240963855  0.243902439  0.089748713

  position of ions in fractional coordinates (direct lattice)
     0.096858400  0.250000000  0.131096903
     0.596858400  0.750000000  0.368903097
     0.903141600  0.750000000  0.868903097
     0.403141600  0.250000000  0.631096903
     0.004750213  0.250000000  0.358780464
     0.504750213  0.750000000  0.141219536
     0.995249787  0.750000000  0.641219536
     0.495249787  0.250000000  0.858780464

  ion indices of the primitive-cell ions
   primitive index   ion index
                 1           1
                 2           2
                 3           3
                 4           4
                 5           5
                 6           6
                 7           7
                 8           8

----------------------------------------------------------------------------------------

 
 
 KPOINTS: KPOINTS created by Atomic Simulation Env

Automatic generation of k-mesh.
 Grid dimensions read from file:
 generate k-points for:    6    6    2

 Generating k-lattice:

  Cartesian coordinates                     Fractional coordinates (reciprocal lattice)
     0.040160643  0.000000000  0.000000000     0.166666667  0.000000000  0.000000000
     0.000000000  0.040650407  0.000000000     0.000000000  0.166666667  0.000000000
     0.000000000  0.000000000  0.044874357     0.000000000  0.000000000  0.500000000

  Length of vectors
     0.040160643  0.040650407  0.044874357

  Shift w.r.t. Gamma in fractional coordinates (k-lattice)
     0.000000000  0.000000000  0.000000000

 
 Subroutine IBZKPT returns following result:
 ===========================================
 
 Found     40 irreducible k-points:
 
 Following reciprocal coordinates:
            Coordinates               Weight
  0.000000  0.000000  0.000000      1.000000
  0.166667  0.000000  0.000000      2.000000
  0.333333  0.000000  0.000000      2.000000
  0.500000  0.000000  0.000000      1.000000
  0.000000  0.166667  0.000000      2.000000
  0.166667  0.166667  0.000000      2.000000
 -0.166667  0.166667  0.000000      2.000000
  0.333333  0.166667  0.000000      2.000000
 -0.333333  0.166667  0.000000      2.000000
  0.500000  0.166667  0.000000      2.000000
  0.000000  0.333333  0.000000      2.000000
  0.166667  0.333333  0.000000      2.000000
 -0.166667  0.333333  0.000000      2.000000
  0.333333  0.333333  0.000000      2.000000
 -0.333333  0.333333  0.000000      2.000000
  0.500000  0.333333  0.000000      2.000000
  0.000000  0.500000  0.000000      1.000000
  0.166667  0.500000  0.000000      2.000000
  0.333333  0.500000  0.000000      2.000000
  0.500000  0.500000  0.000000      1.000000
  0.000000  0.000000  0.500000      1.000000
  0.166667  0.000000  0.500000      2.000000
  0.333333  0.000000  0.500000      2.000000
  0.500000  0.000000  0.500000      1.000000
  0.000000  0.166667  0.500000      2.000000
  0.166667  0.166667  0.500000      2.000000
 -0.166667  0.166667  0.500000      2.000000
  0.333333  0.166667  0.500000      2.000000
 -0.333333  0.166667  0.500000      2.000000
  0.500000  0.166667  0.500000      2.000000
  0.000000  0.333333  0.500000      2.000000
  0.166667  0.333333  0.500000      2.000000
 -0.166667  0.333333  0.500000      2.000000
  0.333333  0.333333  0.500000      2.000000
 -0.333333  0.333333  0.500000      2.000000
  0.500000  0.333333  0.500000      2.000000
  0.000000  0.500000  0.500000      1.000000
  0.166667  0.500000  0.500000      2.000000
  0.333333  0.500000  0.500000      2.000000
  0.500000  0.500000  0.500000      1.000000
 
 Following cartesian coordinates:
            Coordinates               Weight
  0.000000  0.000000  0.000000      1.000000
  0.040161  0.000000  0.000000      2.000000
  0.080321  0.000000  0.000000      2.000000
  0.120482  0.000000  0.000000      1.000000
  0.000000  0.040650  0.000000      2.000000
  0.040161  0.040650  0.000000      2.000000
 -0.040161  0.040650  0.000000      2.000000
  0.080321  0.040650  0.000000      2.000000
 -0.080321  0.040650  0.000000      2.000000
  0.120482  0.040650  0.000000      2.000000
  0.000000  0.081301  0.000000      2.000000
  0.040161  0.081301  0.000000      2.000000
 -0.040161  0.081301  0.000000      2.000000
  0.080321  0.081301  0.000000      2.000000
 -0.080321  0.081301  0.000000      2.000000
  0.120482  0.081301  0.000000      2.000000
  0.000000  0.121951  0.000000      1.000000
  0.040161  0.121951  0.000000      2.000000
  0.080321  0.121951  0.000000      2.000000
  0.120482  0.121951  0.000000      1.000000
  0.000000  0.000000  0.044874      1.000000
  0.040161  0.000000  0.044874      2.000000
  0.080321  0.000000  0.044874      2.000000
  0.120482  0.000000  0.044874      1.000000
  0.000000  0.040650  0.044874      2.000000
  0.040161  0.040650  0.044874      2.000000
 -0.040161  0.040650  0.044874      2.000000
  0.080321  0.040650  0.044874      2.000000
 -0.080321  0.040650  0.044874      2.000000
  0.120482  0.040650  0.044874      2.000000
  0.000000  0.081301  0.044874      2.000000
  0.040161  0.081301  0.044874      2.000000
 -0.040161  0.081301  0.044874      2.000000
  0.080321  0.081301  0.044874      2.000000
 -0.080321  0.081301  0.044874      2.000000
  0.120482  0.081301  0.044874      2.000000
  0.000000  0.121951  0.044874      1.000000
  0.040161  0.121951  0.044874      2.000000
  0.080321  0.121951  0.044874      2.000000
  0.120482  0.121951  0.044874      1.000000
 


--------------------------------------------------------------------------------------------------------




 Dimension of arrays:
   k-points           NKPTS =     40   k-points in BZ     NKDIM =     40   number of bands    NBANDS=     32
   number of dos      NEDOS =    301   number of ions     NIONS =      8
   non local maximal  LDIM  =      5   non local SUM 2l+1 LMDIM =     13
   total plane-waves  NPLWV =  21600
   max r-space proj   IRMAX =      1   max aug-charges    IRDMAX=   6391
   dimension x,y,z NGX =    20 NGY =   20 NGZ =   54
   dimension x,y,z NGXF=    40 NGYF=   40 NGZF=  108
   support grid    NGXF=    40 NGYF=   40 NGZF=  108
   ions per type =               4   4
   NGX,Y,Z   is equivalent  to a cutoff of   8.01,  8.11,  8.06 a.u.
   NGXF,Y,Z  is equivalent  to a cutoff of  16.02, 16.22, 16.11 a.u.

 SYSTEM =  ./                                      
 POSCAR =  Ge Se                                   

 Startparameter for this run:
   NWRITE =      2    write-flag & timer
   PREC   = normal    normal or accurate (medium, high low for compatibility)
   ISTART =      0    job   : 0-new  1-cont  2-samecut
   ICHARG =      2    charge: 1-file 2-atom 10-const
   ISPIN  =      1    spin polarized calculation?
   LNONCOLLINEAR =      F non collinear calculations
   LSORBIT =      F    spin-orbit coupling
   INIWAV =      1    electr: 0-lowe 1-rand  2-diag
   LASPH  =      T    aspherical Exc in radial PAW
 Electronic Relaxation 1
   ENCUT  =  360.0 eV  26.46 Ry    5.14 a.u.   6.42  6.34 17.24*2*pi/ulx,y,z
   ENINI  =  360.0     initial cutoff
   ENAUG  =  446.8 eV  augmentation charge cutoff
   NELM   =    100;   NELMIN=  2; NELMDL= -5     # of ELM steps 
   EDIFF  = 0.1E-05   stopping-criterion for ELM
   LREAL  =      F    real-space projection
   NLSPLINE    = F    spline interpolate recip. space projectors
   LCOMPAT=      F    compatible to vasp.4.4
   GGA_COMPAT  = T    GGA compatible to vasp.4.4-vasp.4.6
   LMAXPAW     = -100 max onsite density
   LMAXMIX     =    4 max onsite mixed and CHGCAR
   VOSKOWN=      0    Vosko Wilk Nusair interpolation
   ROPT   =    0.00000   0.00000
 Ionic relaxation
   EDIFFG = 0.1E-04   stopping-criterion for IOM
   NSW    =      0    number of steps for IOM
   NBLOCK =      1;   KBLOCK =      1    inner block; outer block 
   IBRION =     -1    ionic relax: 0-MD 1-quasi-New 2-CG
   NFREE  =      0    steps in history (QN), initial steepest desc. (CG)
   ISIF   =      2    stress and relaxation
   IWAVPR =     10    prediction:  0-non 1-charg 2-wave 3-comb
   ISYM   =      0    0-nonsym 1-usesym 2-fastsym
   LCORR  =      T    Harris-Foulkes like correction to forces

   POTIM  = 0.5000    time-step for ionic-motion
   TEIN   =    0.0    initial temperature
   TEBEG  =    0.0;   TEEND  =   0.0 temperature during run
   SMASS  =  -3.00    Nose mass-parameter (am)
   estimated Nose-frequenzy (Omega)   =  0.10E-29 period in steps = 0.13E+47 mass=  -0.394E-27a.u.
   SCALEE = 1.0000    scale energy and forces
   NPACO  =    256;   APACO  = 10.0  distance and # of slots for P.C.
   PSTRESS=    0.0 pullay stress

  Mass of Ions in am
   POMASS =  72.61 78.96
  Ionic Valenz
   ZVAL   =   4.00  6.00
  Atomic Wigner-Seitz radii
   RWIGS  =  -1.00 -1.00
  virtual crystal weights 
   VCA    =   1.00  1.00
   NELECT =      40.0000    total number of electrons
   NUPDOWN=      -1.0000    fix difference up-down

 DOS related values:
   EMIN   =  10.00;   EMAX   =-10.00  energy-range for DOS
   EFERMI =   0.00;   METHOD = LEGACY      
   ISMEAR =     0;   SIGMA  =   0.05  broadening in eV -4-tet -1-fermi 0-gaus

 Electronic relaxation 2 (details)
   IALGO  =     38    algorithm
   LDIAG  =      T    sub-space diagonalisation (order eigenvalues)
   LSUBROT=      F    optimize rotation matrix (better conditioning)
   TURBO    =      0    0=normal 1=particle mesh
   IRESTART =      0    0=no restart 2=restart with 2 vectors
   NREBOOT  =      0    no. of reboots
   NMIN     =      0    reboot dimension
   EREF     =   0.00    reference energy to select bands
   IMIX   =      4    mixing-type and parameters
     AMIX     =   0.40;   BMIX     =  1.00
     AMIX_MAG =   1.60;   BMIX_MAG =  1.00
     AMIN     =   0.10
     WC   =   100.;   INIMIX=   1;  MIXPRE=   1;  MAXMIX= -45

 Intra band minimization:
   WEIMIN = 0.0000     energy-eigenvalue tresh-hold
   EBREAK =  0.78E-08  absolut break condition
   DEPER  =   0.30     relativ break condition  

   TIME   =   0.40     timestep for ELM

  volume/ion in A,a.u.               =      23.70       159.92
  Fermi-wavevector in a.u.,A,eV,Ry     =   0.974601  1.841729 12.923459  0.949847
  Thomas-Fermi vector in A             =   2.105074
 
 Write flags
   LWAVE        =      F    write WAVECAR
   LDOWNSAMPLE  =      F    k-point downsampling of WAVECAR
   LCHARG       =      F    write CHGCAR
   LVTOT        =      F    write LOCPOT, total local potential
   LVHAR        =      F    write LOCPOT, Hartree potential only
   LELF         =      F    write electronic localiz. function (ELF)
   LORBIT       =      0    0 simple, 1 ext, 2 COOP (PROOUT), +10 PAW based schemes


 Dipole corrections
   LMONO  =      F    monopole corrections only (constant potential shift)
   LDIPOL =      F    correct potential (dipole corrections)
   IDIPOL =      0    1-x, 2-y, 3-z, 4-all directions 
   EPSILON=  1.0000000 bulk dielectric constant

 Exchange correlation treatment:
   GGA     =    PE    GGA type
   LEXCH   =     8    internal setting for exchange type
   LIBXC   =     F    Libxc                    
   VOSKOWN =     0    Vosko Wilk Nusair interpolation
   LHFCALC =     F    Hartree Fock is set to
   LHFONE  =     F    Hartree Fock one center treatment
   AEXX    =    0.0000 exact exchange contribution

 Linear response parameters
   LEPSILON=     F    determine dielectric tensor
   LRPA    =     F    only Hartree local field effects (RPA)
   LNABLA  =     F    use nabla operator in PAW spheres
   LVEL    =     F    velocity operator in full k-point grid
   CSHIFT  =0.1000    complex shift for real part using Kramers Kronig
   OMEGAMAX=  -1.0    maximum frequency
   DEG_THRESHOLD= 0.2000000E-02 threshold for treating states as degnerate
   RTIME   =   -0.100 relaxation time in fs
  (WPLASMAI=    0.000 imaginary part of plasma frequency in eV, 0.658/RTIME)
   DFIELD  = 0.0000000 0.0000000 0.0000000 field for delta impulse in time
 
  Optional k-point grid parameters
   LKPOINTS_OPT  =     F    use optional k-point grid
   KPOINTS_OPT_MODE=     1    mode for optional k-point grid
 
 Orbital magnetization related:
   ORBITALMAG=     F  switch on orbital magnetization
   LCHIMAG   =     F  perturbation theory with respect to B field
   DQ        =  0.001000  dq finite difference perturbation B field
   LLRAUG    =     F  two centre corrections for induced B field
   LBONE     =     F  B-component reconstruction in AE one-centre
   LVGVCALC  =     T  calculate vGv susceptibility
   LVGVAPPL  =     F  apply vGv susceptibility instead of pGv for G=0

 Random number generation:
   RANDOM_GENERATOR = DEFAULT
   PCG_SEED         = not used


--------------------------------------------------------------------------------------------------------


 Static calculation
 charge density and potential will be updated during run
 non-spin polarized calculation
 Variant of blocked Davidson
 Davidson routine will perform the subspace rotation
 perform sub-space diagonalisation
    after iterative eigenvector-optimisation
 modified Broyden-mixing scheme, WC =      100.0
 initial mixing is a Kerker type mixing with AMIX =  0.4000 and BMIX =      1.0000
 Hartree-type preconditioning will be used
 using additional bands            12
 reciprocal scheme for non local part
 use partial core corrections
 calculate Harris-corrections to forces 
   (improved forces if not selfconsistent)
 use gradient corrections 
 use of overlap-Matrix (Vanderbilt PP)
 Gauss-broadening in eV      SIGMA  =   0.05


--------------------------------------------------------------------------------------------------------


  energy-cutoff  :      360.00
  volume of cell :      189.58
      direct lattice vectors                 reciprocal lattice vectors
     4.150000000  0.000000000  0.000000000     0.240963855  0.000000000  0.000000000
     0.000000000  4.100000000  0.000000000     0.000000000  0.243902439  0.000000000
     0.000000000  0.000000000 11.142221000     0.000000000  0.000000000  0.089748713

  length of vectors
     4.150000000  4.100000000 11.142221000     0.240963855  0.243902439  0.089748713


 
 k-points in units of 2pi/SCALE and weight: KPOINTS created by Atomic Simulation Env
   0.00000000  0.00000000  0.00000000       0.014
   0.04016064  0.00000000  0.00000000       0.028
   0.08032129  0.00000000  0.00000000       0.028
   0.12048193  0.00000000  0.00000000       0.014
   0.00000000  0.04065041  0.00000000       0.028
   0.04016064  0.04065041  0.00000000       0.028
  -0.04016064  0.04065041  0.00000000       0.028
   0.08032129  0.04065041  0.00000000       0.028
  -0.08032129  0.04065041  0.00000000       0.028
   0.12048193  0.04065041  0.00000000       0.028
   0.00000000  0.08130081  0.00000000       0.028
   0.04016064  0.08130081  0.00000000       0.028
  -0.04016064  0.08130081  0.00000000       0.028
   0.08032129  0.08130081  0.00000000       0.028
  -0.08032129  0.08130081  0.00000000       0.028
   0.12048193  0.08130081  0.00000000       0.028
   0.00000000  0.12195122  0.00000000       0.014
   0.04016064  0.12195122  0.00000000       0.028
   0.08032129  0.12195122  0.00000000       0.028
   0.12048193  0.12195122  0.00000000       0.014
   0.00000000  0.00000000  0.04487436       0.014
   0.04016064  0.00000000  0.04487436       0.028
   0.08032129  0.00000000  0.04487436       0.028
   0.12048193  0.00000000  0.04487436       0.014
   0.00000000  0.04065041  0.04487436       0.028
   0.04016064  0.04065041  0.04487436       0.028
  -0.04016064  0.04065041  0.04487436       0.028
   0.08032129  0.04065041  0.04487436       0.028
  -0.08032129  0.04065041  0.04487436       0.028
   0.12048193  0.04065041  0.04487436       0.028
   0.00000000  0.08130081  0.04487436       0.028
   0.04016064  0.08130081  0.04487436       0.028
  -0.04016064  0.08130081  0.04487436       0.028
   0.08032129  0.08130081  0.04487436       0.028
  -0.08032129  0.08130081  0.04487436       0.028
   0.12048193  0.08130081  0.04487436       0.028
   0.00000000  0.12195122  0.04487436       0.014
   0.04016064  0.12195122  0.04487436       0.028
   0.08032129  0.12195122  0.04487436       0.028
   0.12048193  0.12195122  0.04487436       0.014
 
 k-points in reciprocal lattice and weights: KPOINTS created by Atomic Simulation Env
   0.00000000  0.00000000  0.00000000       0.014
   0.16666667  0.00000000  0.00000000       0.028
   0.33333333  0.00000000  0.00000000       0.028
   0.50000000  0.00000000  0.00000000       0.014
   0.00000000  0.16666667  0.00000000       0.028
   0.16666667  0.16666667  0.00000000       0.028
  -0.16666667  0.16666667  0.00000000       0.028
   0.33333333  0.16666667  0.00000000       0.028
  -0.33333333  0.16666667  0.00000000       0.028
   0.50000000  0.16666667  0.00000000       0.028
   0.00000000  0.33333333  0.00000000       0.028
   0.16666667  0.33333333  0.00000000       0.028
  -0.16666667  0.33333333  0.00000000       0.028
   0.33333333  0.33333333  0.00000000       0.028
  -0.33333333  0.33333333  0.00000000       0.028
   0.50000000  0.33333333  0.00000000       0.028
   0.00000000  0.50000000  0.00000000       0.014
   0.16666667  0.50000000  0.00000000       0.028
   0.33333333  0.50000000  0.00000000       0.028
   0.50000000  0.50000000  0.00000000       0.014
   0.00000000  0.00000000  0.50000000       0.014
   0.16666667  0.00000000  0.50000000       0.028
   0.33333333  0.00000000  0.50000000       0.028
   0.50000000  0.00000000  0.50000000       0.014
   0.00000000  0.16666667  0.50000000       0.028
   0.16666667  0.16666667  0.50000000       0.028
  -0.16666667  0.16666667  0.50000000       0.028
   0.33333333  0.16666667  0.50000000       0.028
  -0.33333333  0.16666667  0.50000000       0.028
   0.50000000  0.16666667  0.50000000       0.028
   0.00000000  0.33333333  0.50000000       0.028
   0.16666667  0.33333333  0.50000000       0.028
  -0.16666667  0.33333333  0.50000000       0.028
   0.33333333  0.33333333  0.50000000       0.028
  -0.33333333  0.33333333  0.50000000       0.028
   0.50000000  0.33333333  0.50000000       0.028
   0.00000000  0.50000000  0.50000000       0.014
   0.16666667  0.50000000  0.50000000       0.028
   0.33333333  0.50000000  0.50000000       0.028
   0.50000000  0.50000000  0.50000000       0.014
 
 position of ions in fractional coordinates (direct lattice) 
   0.09685840  0.25000000  0.13109690
   0.59685840  0.75000000  0.36890310
   0.90314160  0.75000000  0.86890310
   0.40314160  0.25000000  0.63109690
   0.00475021  0.25000000  0.35878046
   0.50475021  0.75000000  0.14121954
   0.99524979  0.75000000  0.64121954
   0.49524979  0.25000000  0.85878046
 
 position of ions in cartesian coordinates  (Angst):
   0.40196236  1.02500000  1.46071067
   2.47696236  3.07500000  4.11039983
   3.74803764  3.07500000  9.68151033
   1.67303764  1.02500000  7.03182117
   0.01971338  1.02500000  3.99761122
   2.09471338  3.07500000  1.57349928
   4.13028662  3.07500000  7.14460978
   2.05528662  1.02500000  9.56872172
 


--------------------------------------------------------------------------------------------------------


 k-point   1 :   0.0000 0.0000 0.0000  plane waves:    2943
 k-point   2 :   0.1667 0.0000 0.0000  plane waves:    2959
 k-point   3 :   0.3333 0.0000 0.0000  plane waves:    2935
 k-point   4 :   0.5000 0.0000 0.0000  plane waves:    2936
 k-point   5 :   0.0000 0.1667 0.0000  plane waves:    2967
 k-point   6 :   0.1667 0.1667 0.0000  plane waves:    2938
 k-point   7 :  -0.1667 0.1667 0.0000  plane waves:    2938
 k-point   8 :   0.3333 0.1667 0.0000  plane waves:    2933
 k-point   9 :  -0.3333 0.1667 0.0000  plane waves:    2933
 k-point  10 :   0.5000 0.1667 0.0000  plane waves:    2938
 k-point  11 :   0.0000 0.3333 0.0000  plane waves:    2939
 k-point  12 :   0.1667 0.3333 0.0000  plane waves:    2947
 k-point  13 :  -0.1667 0.3333 0.0000  plane waves:    2947
 k-point  14 :   0.3333 0.3333 0.0000  plane waves:    2928
 k-point  15 :  -0.3333 0.3333 0.0000  plane waves:    2928
 k-point  16 :   0.5000 0.3333 0.0000  plane waves:    2914
 k-point  17 :   0.0000 0.5000 0.0000  plane waves:    2936
 k-point  18 :   0.1667 0.5000 0.0000  plane waves:    2966
 k-point  19 :   0.3333 0.5000 0.0000  plane waves:    2942
 k-point  20 :   0.5000 0.5000 0.0000  plane waves:    2908
 k-point  21 :   0.0000 0.0000 0.5000  plane waves:    2914
 k-point  22 :   0.1667 0.0000 0.5000  plane waves:    2944
 k-point  23 :   0.3333 0.0000 0.5000  plane waves:    2958
 k-point  24 :   0.5000 0.0000 0.5000  plane waves:    2964
 k-point  25 :   0.0000 0.1667 0.5000  plane waves:    2958
 k-point  26 :   0.1667 0.1667 0.5000  plane waves:    2940
 k-point  27 :  -0.1667 0.1667 0.5000  plane waves:    2940
 k-point  28 :   0.3333 0.1667 0.5000  plane waves:    2952
 k-point  29 :  -0.3333 0.1667 0.5000  plane waves:    2952
 k-point  30 :   0.5000 0.1667 0.5000  plane waves:    2932
 k-point  31 :   0.0000 0.3333 0.5000  plane waves:    2948
 k-point  32 :   0.1667 0.3333 0.5000  plane waves:    2938
 k-point  33 :  -0.1667 0.3333 0.5000  plane waves:    2938
 k-point  34 :   0.3333 0.3333 0.5000  plane waves:    2940
 k-point  35 :  -0.3333 0.3333 0.5000  plane waves:    2940
 k-point  36 :   0.5000 0.3333 0.5000  plane waves:    2920
 k-point  37 :   0.0000 0.5000 0.5000  plane waves:    2972
 k-point  38 :   0.1667 0.5000 0.5000  plane waves:    2948
 k-point  39 :   0.3333 0.5000 0.5000  plane waves:    2924
 k-point  40 :   0.5000 0.5000 0.5000  plane waves:    2912

 maximum and minimum number of plane-waves per node :       765      692

 maximum number of plane-waves:      2972
 maximum index in each direction: 
   IXMAX=    6   IYMAX=    6   IZMAX=   17
   IXMIN=   -6   IYMIN=   -6   IZMIN=  -17


 parallel 3D FFT for wavefunctions:
    minimum data exchange during FFTs selected (reduces bandwidth)
 parallel 3D FFT for charge:
    minimum data exchange during FFTs selected (reduces bandwidth)


 total amount of memory used by VASP MPI-rank0    38152. kBytes
=======================================================================

   base      :      30000. kBytes
   nonl-proj :       6352. kBytes
   fftplans  :        319. kBytes
   grid      :        462. kBytes
   one-center:         16. kBytes
   wavefun   :       1003. kBytes
 
     INWAV:  cpu time      0.0000: real time      0.0001
 Broyden mixing: mesh for mixing (old mesh)
   NGX = 13   NGY = 13   NGZ = 35
  (NGX  = 40   NGY  = 40   NGZ  =108)
  gives a total of   5915 points

 initial charge density was supplied:
 charge density of overlapping atoms calculated
 number of electron      40.0000000 magnetization 
 keeping initial charge density in first step


--------------------------------------------------------------------------------------------------------


 Maximum index for augmentation-charges           351 (set IRDMAX)


--------------------------------------------------------------------------------------------------------


 First call to EWALD:  gamma=   0.309
 Maximum number of real-space cells 4x 4x 2
 Maximum number of reciprocal cells 2x 2x 5

    FEWALD:  cpu time      0.0008: real time      0.0008


--------------------------------------- Ionic step        1  -------------------------------------------




--------------------------------------- Iteration      1(   1)  ---------------------------------------


    POTLOK:  cpu time      0.0059: real time      0.0063
    SETDIJ:  cpu time      0.1398: real time      0.1404
     EDDAV:  cpu time      0.2729: real time      0.2761
       DOS:  cpu time      0.0018: real time      0.0018
    --------------------------------------------
      LOOP:  cpu time      0.4203: real time      0.4246

 eigenvalue-minimisations  :  2560
 total energy-change (2. order) : 0.1283259E+03  (-0.1294433E+04)
 number of electron      40.0000000 magnetization 
 augmentation part       40.0000000 magnetization 

 Free energy of the ion-electron system (eV)
  ---------------------------------------------------
  alpha Z        PSCENC =        89.37656061
  Ewald energy   TEWEN  =     -1438.48608028
  -Hartree energ DENC   =      -118.50480903
  -exchange      EXHF   =         0.00000000
  -V(xc)+E(xc)   XCENC  =       -33.28812349
  PAW double counting   =      1193.78262552    -1080.73714043
  entropy T*S    EENTRO =        -0.00225599
  eigenvalues    EBANDS =        67.70055164
  atomic energy  EATOM  =      1448.48460880
  Solvation  Ediel_sol  =         0.00000000
  ---------------------------------------------------
  free energy    TOTEN  =       128.32593734 eV

  energy without entropy =      128.32819333  energy(sigma->0) =      128.32706534


--------------------------------------------------------------------------------------------------------




--------------------------------------- Iteration      1(   2)  ---------------------------------------


     EDDAV:  cpu time      0.3284: real time      0.3317
       DOS:  cpu time      0.0007: real time      0.0007
    --------------------------------------------
      LOOP:  cpu time      0.3291: real time      0.3324

 eigenvalue-minimisations  :  3760
 total energy-change (2. order) :-0.1541866E+03  (-0.1496641E+03)
 number of electron      40.0000000 magnetization 
 augmentation part       40.0000000 magnetization 

 Free energy of the ion-electron system (eV)
  ---------------------------------------------------
  alpha Z        PSCENC =        89.37656061
  Ewald energy   TEWEN  =     -1438.48608028
  -Hartree energ DENC   =      -118.50480903
  -exchange      EXHF   =         0.00000000
  -V(xc)+E(xc)   XCENC  =       -33.28812349
  PAW double counting   =      1193.78262552    -1080.73714043
  entropy T*S    EENTRO =        -0.00000000
  eigenvalues    EBANDS =       -86.48828124
  atomic energy  EATOM  =      1448.48460880
  Solvation  Ediel_sol  =         0.00000000
  ---------------------------------------------------
  free energy    TOTEN  =       -25.86063955 eV

  energy without entropy =      -25.86063955  energy(sigma->0) =      -25.86063955


--------------------------------------------------------------------------------------------------------




--------------------------------------- Iteration      1(   3)  ---------------------------------------


     EDDAV:  cpu time      0.2969: real time      0.3002
       DOS:  cpu time      0.0005: real time      0.0005
    --------------------------------------------
      LOOP:  cpu time      0.2974: real time      0.3007

 eigenvalue-minimisations  :  3184
 total energy-change (2. order) :-0.8237608E+01  (-0.8221271E+01)
 number of electron      40.0000000 magnetization 
 augmentation part       40.0000000 magnetization 

 Free energy of the ion-electron system (eV)
  ---------------------------------------------------
  alpha Z        PSCENC =        89.37656061
  Ewald energy   TEWEN  =     -1438.48608028
  -Hartree energ DENC   =      -118.50480903
  -exchange      EXHF   =         0.00000000
  -V(xc)+E(xc)   XCENC  =       -33.28812349
  PAW double counting   =      1193.78262552    -1080.73714043
  entropy T*S    EENTRO =        -0.00000000
  eigenvalues    EBANDS =       -94.72588958
  atomic energy  EATOM  =      1448.48460880
  Solvation  Ediel_sol  =         0.00000000
  ---------------------------------------------------
  free energy    TOTEN  =       -34.09824789 eV

  energy without entropy =      -34.09824789  energy(sigma->0) =      -34.09824789


--------------------------------------------------------------------------------------------------------




--------------------------------------- Iteration      1(   4)  ---------------------------------------


     EDDAV:  cpu time      0.3059: real time      0.3095
       DOS:  cpu time      0.0006: real time      0.0006
    --------------------------------------------
      LOOP:  cpu time      0.3064: real time      0.3101

 eigenvalue-minimisations  :  3296
 total energy-change (2. order) :-0.5179866E-01  (-0.5178527E-01)
 number of electron      40.0000000 magnetization 
 augmentation part       40.0000000 magnetization 

 Free energy of the ion-electron system (eV)
  ---------------------------------------------------
  alpha Z        PSCENC =        89.37656061
  Ewald energy   TEWEN  =     -1438.48608028
  -Hartree energ DENC   =      -118.50480903
  -exchange      EXHF   =         0.00000000
  -V(xc)+E(xc)   XCENC  =       -33.28812349
  PAW double counting   =      1193.78262552    -1080.73714043
  entropy T*S    EENTRO =        -0.00000000
  eigenvalues    EBANDS =       -94.77768824
  atomic energy  EATOM  =      1448.48460880
  Solvation  Ediel_sol  =         0.00000000
  ---------------------------------------------------
  free energy    TOTEN  =       -34.15004655 eV

  energy without entropy =      -34.15004655  energy(sigma->0) =      -34.15004655


--------------------------------------------------------------------------------------------------------




--------------------------------------- Iteration      1(   5)  ---------------------------------------


     EDDAV:  cpu time      0.2866: real time      0.2898
       DOS:  cpu time      0.0005: real time      0.0005
    CHARGE:  cpu time      0.0049: real time      0.0049
    MIXING:  cpu time      0.0006: real time      0.0006
    --------------------------------------------
      LOOP:  cpu time      0.2926: real time      0.2959

 eigenvalue-minimisations  :  3104
 total energy-change (2. order) :-0.3139519E-03  (-0.3139449E-03)
 number of electron      39.9999982 magnetization 
 augmentation part       -7.4165848 magnetization 

 Broyden mixing:
  rms(total) = 0.63625E+00    rms(broyden)= 0.63624E+00
  rms(prec ) = 0.72121E+00
  weight for this iteration     100.00

 Free energy of the ion-electron system (eV)
  ---------------------------------------------------
  alpha Z        PSCENC =        89.37656061
  Ewald energy   TEWEN  =     -1438.48608028
  -Hartree energ DENC   =      -118.50480903
  -exchange      EXHF   =         0.00000000
  -V(xc)+E(xc)   XCENC  =       -33.28812349
  PAW double counting   =      1193.78262552    -1080.73714043
  entropy T*S    EENTRO =        -0.00000000
  eigenvalues    EBANDS =       -94.77800219
  atomic energy  EATOM  =      1448.48460880
  Solvation  Ediel_sol  =         0.00000000
  ---------------------------------------------------
  free energy    TOTEN  =       -34.15036050 eV

  energy without entropy =      -34.15036050  energy(sigma->0) =      -34.15036050


--------------------------------------------------------------------------------------------------------




--------------------------------------- Iteration      1(   6)  ---------------------------------------


    POTLOK:  cpu time      0.0054: real time      0.0056
    SETDIJ:  cpu time      0.1378: real time      0.1385
     EDDAV:  cpu time      0.3141: real time      0.3173
       DOS:  cpu time      0.0008: real time      0.0008
    CHARGE:  cpu time      0.0054: real time      0.0055
    MIXING:  cpu time      0.0014: real time      0.0014
    --------------------------------------------
      LOOP:  cpu time      0.4649: real time      0.4690

 eigenvalue-minimisations  :  3200
 total energy-change (2. order) : 0.4068003E+00  (-0.8236792E-01)
 number of electron      39.9999982 magnetization 
 augmentation part       -7.3611772 magnetization 

 Broyden mixing:
  rms(total) = 0.39715E+00    rms(broyden)= 0.39715E+00
  rms(prec ) = 0.41666E+00
  weight for this iteration     100.00

 eigenvalues of (default mixing * dielectric matrix)
  average eigenvalue GAMMA=   2.1511
  2.1511

 Free energy of the ion-electron system (eV)
  ---------------------------------------------------
  alpha Z        PSCENC =        89.37656061
  Ewald energy   TEWEN  =     -1438.48608028
  -Hartree energ DENC   =      -124.16533697
  -exchange      EXHF   =         0.00000000
  -V(xc)+E(xc)   XCENC  =       -32.71300375
  PAW double counting   =      1449.13021947    -1336.38693268
  entropy T*S    EENTRO =        -0.00000000
  eigenvalues    EBANDS =       -88.98359543
  atomic energy  EATOM  =      1448.48460880
  Solvation  Ediel_sol  =         0.00000000
  ---------------------------------------------------
  free energy    TOTEN  =       -33.74356023 eV

  energy without entropy =      -33.74356023  energy(sigma->0) =      -33.74356023


--------------------------------------------------------------------------------------------------------




--------------------------------------- Iteration      1(   7)  ---------------------------------------


    POTLOK:  cpu time      0.0069: real time      0.0071
    SETDIJ:  cpu time      0.1361: real time      0.1369
     EDDAV:  cpu time      0.3036: real time      0.3070
       DOS:  cpu time      0.0005: real time      0.0005
    CHARGE:  cpu time      0.0044: real time      0.0044
    MIXING:  cpu time      0.0005: real time      0.0005
    --------------------------------------------
      LOOP:  cpu time      0.4521: real time      0.4565

 eigenvalue-minimisations  :  3296
 total energy-change (2. order) : 0.5683276E-02  (-0.2467230E-01)
 number of electron      39.9999982 magnetization 
 augmentation part       -7.3498949 magnetization 

 Broyden mixing:
  rms(total) = 0.13161E+00    rms(broyden)= 0.13161E+00
  rms(prec ) = 0.13994E+00
  weight for this iteration     100.00

 eigenvalues of (default mixing * dielectric matrix)
  average eigenvalue GAMMA=   1.8017
  1.2320  2.3714

 Free energy of the ion-electron system (eV)
  ---------------------------------------------------
  alpha Z        PSCENC =        89.37656061
  Ewald energy   TEWEN  =     -1438.48608028
  -Hartree energ DENC   =      -126.48088728
  -exchange      EXHF   =         0.00000000
  -V(xc)+E(xc)   XCENC  =       -32.29505427
  PAW double counting   =      1758.22670250    -1645.70005356
  entropy T*S    EENTRO =        -0.00000000
  eigenvalues    EBANDS =       -86.86367348
  atomic energy  EATOM  =      1448.48460880
  Solvation  Ediel_sol  =         0.00000000
  ---------------------------------------------------
  free energy    TOTEN  =       -33.73787696 eV

  energy without entropy =      -33.73787696  energy(sigma->0) =      -33.73787696


--------------------------------------------------------------------------------------------------------




--------------------------------------- Iteration      1(   8)  ---------------------------------------


    POTLOK:  cpu time      0.0052: real time      0.0054
    SETDIJ:  cpu time      0.1371: real time      0.1379
     EDDAV:  cpu time      0.2804: real time      0.2833
       DOS:  cpu time      0.0006: real time      0.0006
    CHARGE:  cpu time      0.0042: real time      0.0042
    MIXING:  cpu time      0.0005: real time      0.0005
    --------------------------------------------
      LOOP:  cpu time      0.4280: real time      0.4319

 eigenvalue-minimisations  :  3024
 total energy-change (2. order) : 0.1774320E-02  (-0.2752139E-02)
 number of electron      39.9999982 magnetization 
 augmentation part       -7.3609766 magnetization 

 Broyden mixing:
  rms(total) = 0.17017E-01    rms(broyden)= 0.17017E-01
  rms(prec ) = 0.21044E-01
  weight for this iteration     100.00

 eigenvalues of (default mixing * dielectric matrix)
  average eigenvalue GAMMA=   1.6943
  2.5102  1.2863  1.2863

 Free energy of the ion-electron system (eV)
  ---------------------------------------------------
  alpha Z        PSCENC =        89.37656061
  Ewald energy   TEWEN  =     -1438.48608028
  -Hartree energ DENC   =      -126.25153945
  -exchange      EXHF   =         0.00000000
  -V(xc)+E(xc)   XCENC  =       -32.18770631
  PAW double counting   =      1893.72279257    -1781.24935753
  entropy T*S    EENTRO =        -0.00000000
  eigenvalues    EBANDS =       -87.14538104
  atomic energy  EATOM  =      1448.48460880
  Solvation  Ediel_sol  =         0.00000000
  ---------------------------------------------------
  free energy    TOTEN  =       -33.73610264 eV

  energy without entropy =      -33.73610264  energy(sigma->0) =      -33.73610264


--------------------------------------------------------------------------------------------------------




--------------------------------------- Iteration      1(   9)  ---------------------------------------


    POTLOK:  cpu time      0.0051: real time      0.0053
    SETDIJ:  cpu time      0.1404: real time      0.1411
     EDDAV:  cpu time      0.2909: real time      0.2944
       DOS:  cpu time      0.0006: real time      0.0006
    CHARGE:  cpu time      0.0043: real time      0.0044
    MIXING:  cpu time      0.0005: real time      0.0005
    --------------------------------------------
      LOOP:  cpu time      0.4418: real time      0.4462

 eigenvalue-minimisations  :  3152
 total energy-change (2. order) :-0.1377901E-03  (-0.3471934E-03)
 number of electron      39.9999982 magnetization 
 augmentation part       -7.3588685 magnetization 

 Broyden mixing:
  rms(total) = 0.65166E-02    rms(broyden)= 0.65166E-02
  rms(prec ) = 0.73019E-02
  weight for this iteration     100.00

 eigenvalues of (default mixing * dielectric matrix)
  average eigenvalue GAMMA=   1.7948
  2.4082  2.4082  1.1815  1.1815

 Free energy of the ion-electron system (eV)
  ---------------------------------------------------
  alpha Z        PSCENC =        89.37656061
  Ewald energy   TEWEN  =     -1438.48608028
  -Hartree energ DENC   =      -126.63278610
  -exchange      EXHF   =         0.00000000
  -V(xc)+E(xc)   XCENC  =       -32.14750735
  PAW double counting   =      1907.58742541    -1795.12597150
  entropy T*S    EENTRO =        -0.00000000
  eigenvalues    EBANDS =       -86.79249001
  atomic energy  EATOM  =      1448.48460880
  Solvation  Ediel_sol  =         0.00000000
  ---------------------------------------------------
  free energy    TOTEN  =       -33.73624043 eV

  energy without entropy =      -33.73624043  energy(sigma->0) =      -33.73624043


--------------------------------------------------------------------------------------------------------




--------------------------------------- Iteration      1(  10)  ---------------------------------------


    POTLOK:  cpu time      0.0051: real time      0.0053
    SETDIJ:  cpu time      0.1372: real time      0.1378
     EDDAV:  cpu time      0.2459: real time      0.2470
       DOS:  cpu time      0.0003: real time      0.0003
    CHARGE:  cpu time      0.0034: real time      0.0035
    MIXING:  cpu time      0.0003: real time      0.0003
    --------------------------------------------
      LOOP:  cpu time      0.3923: real time      0.3942

 eigenvalue-minimisations  :  2976
 total energy-change (2. order) :-0.4640124E-04  (-0.2795976E-04)
 number of electron      39.9999982 magnetization 
 augmentation part       -7.3588949 magnetization 

 Broyden mixing:
  rms(total) = 0.24328E-02    rms(broyden)= 0.24328E-02
  rms(prec ) = 0.28447E-02
  weight for this iteration     100.00

 eigenvalues of (default mixing * dielectric matrix)
  average eigenvalue GAMMA=   1.7629
  2.7849  2.4828  1.1413  1.2026  1.2026

 Free energy of the ion-electron system (eV)
  ---------------------------------------------------
  alpha Z        PSCENC =        89.37656061
  Ewald energy   TEWEN  =     -1438.48608028
  -Hartree energ DENC   =      -126.64460263
  -exchange      EXHF   =         0.00000000
  -V(xc)+E(xc)   XCENC  =       -32.14750384
  PAW double counting   =      1899.82771547    -1787.36065365
  entropy T*S    EENTRO =        -0.00000000
  eigenvalues    EBANDS =       -86.78633130
  atomic energy  EATOM  =      1448.48460880
  Solvation  Ediel_sol  =         0.00000000
  ---------------------------------------------------
  free energy    TOTEN  =       -33.73628683 eV

  energy without entropy =      -33.73628683  energy(sigma->0) =      -33.73628683


--------------------------------------------------------------------------------------------------------




--------------------------------------- Iteration      1(  11)  ---------------------------------------


    POTLOK:  cpu time      0.0035: real time      0.0037
    SETDIJ:  cpu time      0.1373: real time      0.1377
     EDDAV:  cpu time      0.2001: real time      0.2012
       DOS:  cpu time      0.0003: real time      0.0003
    CHARGE:  cpu time      0.0033: real time      0.0034
    MIXING:  cpu time      0.0003: real time      0.0003
    --------------------------------------------
      LOOP:  cpu time      0.3449: real time      0.3465

 eigenvalue-minimisations  :  3168
 total energy-change (2. order) :-0.1707941E-04  (-0.2930665E-05)
 number of electron      39.9999982 magnetization 
 augmentation part       -7.3590887 magnetization 

 Broyden mixing:
  rms(total) = 0.11830E-02    rms(broyden)= 0.11830E-02
  rms(prec ) = 0.13030E-02
  weight for this iteration     100.00

 eigenvalues of (default mixing * dielectric matrix)
  average eigenvalue GAMMA=   1.7497
  2.5964  2.5964  2.0414  1.1591  1.1591  0.9457

 Free energy of the ion-electron system (eV)
  ---------------------------------------------------
  alpha Z        PSCENC =        89.37656061
  Ewald energy   TEWEN  =     -1438.48608028
  -Hartree energ DENC   =      -126.66616910
  -exchange      EXHF   =         0.00000000
  -V(xc)+E(xc)   XCENC  =       -32.14220590
  PAW double counting   =      1901.98157982    -1789.51523569
  entropy T*S    EENTRO =        -0.00000000
  eigenvalues    EBANDS =       -86.76936216
  atomic energy  EATOM  =      1448.48460880
  Solvation  Ediel_sol  =         0.00000000
  ---------------------------------------------------
  free energy    TOTEN  =       -33.73630391 eV

  energy without entropy =      -33.73630391  energy(sigma->0) =      -33.73630391


--------------------------------------------------------------------------------------------------------




--------------------------------------- Iteration      1(  12)  ---------------------------------------


    POTLOK:  cpu time      0.0035: real time      0.0036
    SETDIJ:  cpu time      0.1085: real time      0.1090
     EDDAV:  cpu time      0.1861: real time      0.1872
       DOS:  cpu time      0.0003: real time      0.0003
    --------------------------------------------
      LOOP:  cpu time      0.2984: real time      0.3001

 eigenvalue-minimisations  :  3056
 total energy-change (2. order) : 0.4941633E-06  (-0.4673488E-06)
 number of electron      39.9999982 magnetization 
 augmentation part       -7.3590887 magnetization 

 Free energy of the ion-electron system (eV)
  ---------------------------------------------------
  alpha Z        PSCENC =        89.37656061
  Ewald energy   TEWEN  =     -1438.48608028
  -Hartree energ DENC   =      -126.67452479
  -exchange      EXHF   =         0.00000000
  -V(xc)+E(xc)   XCENC  =       -32.14158014
  PAW double counting   =      1901.21486186    -1788.74813964
  entropy T*S    EENTRO =        -0.00000000
  eigenvalues    EBANDS =       -86.76200982
  atomic energy  EATOM  =      1448.48460880
  Solvation  Ediel_sol  =         0.00000000
  ---------------------------------------------------
  free energy    TOTEN  =       -33.73630341 eV

  energy without entropy =      -33.73630341  energy(sigma->0) =      -33.73630341


--------------------------------------------------------------------------------------------------------




 average (electrostatic) potential at core
  the test charge radii are     1.1631  1.0808
  (the norm of the test charge is              1.0000)
       1 -33.3602       2 -33.3602       3 -33.3602       4 -33.3602       5 -54.7762
       6 -54.7762       7 -54.7762       8 -54.7762
 
 
 
 E-fermi :   3.6090     XC(G=0):  -9.4230     alpha+bet : -8.9039

 Fermi energy:         3.6089504189

 k-point     1 :       0.0000    0.0000    0.0000
  band No.  band energies     occupation 
      1     -10.7874      2.00000
      2     -10.4406      2.00000
      3      -9.4877      2.00000
      4      -8.9527      2.00000
      5      -4.2644      2.00000
      6      -3.7432      2.00000
      7      -2.2729      2.00000
      8      -2.1666      2.00000
      9      -1.7659      2.00000
     10      -0.3394      2.00000
     11       0.0967      2.00000
     12       0.2324      2.00000
     13       0.2890      2.00000
     14       0.4894      2.00000
     15       0.9740      2.00000
     16       1.6710      2.00000
     17       1.9948      2.00000
     18       2.1915      2.00000
     19       2.7695      2.00000
     20       2.8950      2.00000
     21       4.2377      0.00000
     22       6.1280      0.00000
     23       6.2531      0.00000
     24       6.3396      0.00000
     25       6.6735      0.00000
     26       7.2276      0.00000
     27       7.3842      0.00000
     28       7.7642      0.00000
     29       8.2759      0.00000
     30       8.6554      0.00000
     31       8.9845      0.00000
     32       9.3442      0.00000

 k-point     2 :       0.1667    0.0000    0.0000
  band No.  band energies     occupation 
      1     -10.6415      2.00000
      2     -10.3018      2.00000
      3      -9.4526      2.00000
      4      -8.9632      2.00000
      5      -4.6465      2.00000
      6      -3.9478      2.00000
      7      -2.9687      2.00000
      8      -2.5880      2.00000
      9      -1.5768      2.00000
     10      -0.1453      2.00000
     11       0.2825      2.00000
     12       0.3241      2.00000
     13       0.6634      2.00000
     14       0.9074      2.00000
     15       1.0958      2.00000
     16       1.7463      2.00000
     17       2.1409      2.00000
     18       2.5454      2.00000
     19       2.6446      2.00000
     20       2.8735      2.00000
     21       4.1897      0.00000
     22       5.5726      0.00000
     23       6.0073      0.00000
     24       6.2333      0.00000
     25       6.3182      0.00000
     26       6.6706      0.00000
     27       6.9937      0.00000
     28       7.6322      0.00000
     29       7.6661      0.00000
     30       8.1853      0.00000
     31       8.4804      0.00000
     32       8.6936      0.00000

 k-point     3 :       0.3333    0.0000    0.0000
  band No.  band energies     occupation 
      1     -10.2467      2.00000
      2      -9.9250      2.00000
      3      -9.4697      2.00000
      4      -9.0872      2.00000
      5      -5.1476      2.00000
      6      -4.2555      2.00000
      7      -4.1634      2.00000
      8      -3.4192      2.00000
      9      -1.0057      2.00000
     10       0.3915      2.00000
     11       0.4882      2.00000
     12       0.7916      2.00000
     13       1.2963      2.00000
     14       1.3420      2.00000
     15       1.4213      2.00000
     16       1.7862      2.00000
     17       2.2100      2.00000
     18       2.5594      2.00000
     19       2.7580      2.00000
     20       3.3664      2.00000
     21       4.3256      0.00000
     22       4.6227      0.00000
     23       4.7098      0.00000
     24       5.1578      0.00000
     25       5.5653      0.00000
     26       5.9672      0.00000
     27       6.0653      0.00000
     28       6.3021      0.00000
     29       6.9930      0.00000
     30       7.0100      0.00000
     31       8.4690      0.00000
     32       9.0911      0.00000

 k-point     4 :       0.5000    0.0000    0.0000
  band No.  band energies     occupation 
      1      -9.7629      2.00000
      2      -9.7629      2.00000
      3      -9.4462      2.00000
      4      -9.4462      2.00000
      5      -5.0155      2.00000
      6      -5.0155      2.00000
      7      -4.0986      2.00000
      8      -4.0986      2.00000
      9      -0.1739      2.00000
     10      -0.1739      2.00000
     11       1.0544      2.00000
     12       1.0544      2.00000
     13       1.4221      2.00000
     14       1.4221      2.00000
     15       1.9365      2.00000
     16       1.9365      2.00000
     17       2.3796      2.00000
     18       2.3796      2.00000
     19       2.8494      2.00000
     20       2.8494      2.00000
     21       4.4510      0.00000
     22       4.4510      0.00000
     23       5.0178      0.00000
     24       5.0178      0.00000
     25       5.0373      0.00000
     26       5.0373      0.00000
     27       5.7479      0.00000
     28       5.7479      0.00000
     29       5.9710      0.00000
     30       5.9710      0.00000
     31       9.0351      0.00000
     32       9.0351      0.00000

 k-point     5 :       0.0000    0.1667    0.0000
  band No.  band energies     occupation 
      1     -10.6198      2.00000
      2     -10.2897      2.00000
      3      -9.4042      2.00000
      4      -8.9458      2.00000
      5      -4.6298      2.00000
      6      -4.1864      2.00000
      7      -3.0438      2.00000
      8      -2.6607      2.00000
      9      -1.5987      2.00000
     10      -0.0953      2.00000
     11       0.2808      2.00000
     12       0.4947      2.00000
     13       0.5015      2.00000
     14       0.6362      2.00000
     15       1.4174      2.00000
     16       1.8051      2.00000
     17       2.1275      2.00000
     18       2.5497      2.00000
     19       2.6423      2.00000
     20       2.7822      2.00000
     21       4.3502      0.00000
     22       5.9585      0.00000
     23       6.1733      0.00000
     24       6.4486      0.00000
     25       6.5661      0.00000
     26       6.8128      0.00000
     27       6.9319      0.00000
     28       7.2225      0.00000
     29       7.9206      0.00000
     30       7.9540      0.00000
     31       8.6182      0.00000
     32       8.7357      0.00000

 k-point     6 :       0.1667    0.1667    0.0000
  band No.  band energies     occupation 
      1     -10.4799      2.00000
      2     -10.1581      2.00000
      3      -9.3729      2.00000
      4      -8.9526      2.00000
      5      -4.8054      2.00000
      6      -4.1932      2.00000
      7      -3.2715      2.00000
      8      -3.0096      2.00000
      9      -1.4085      2.00000
     10      -0.7301      2.00000
     11      -0.5059      2.00000
     12       0.5680      2.00000
     13       0.8828      2.00000
     14       1.3230      2.00000
     15       1.4582      2.00000
     16       1.5100      2.00000
     17       2.6203      2.00000
     18       2.6317      2.00000
     19       2.7751      2.00000
     20       2.8617      2.00000
     21       4.3486      0.00000
     22       5.0440      0.00000
     23       5.4203      0.00000
     24       5.5665      0.00000
     25       6.4163      0.00000
     26       6.9320      0.00000
     27       7.3323      0.00000
     28       7.5423      0.00000
     29       7.9263      0.00000
     30       8.0503      0.00000
     31       8.2167      0.00000
     32       8.8483      0.00000

 k-point     7 :      -0.1667    0.1667    0.0000
  band No.  band energies     occupation 
      1     -10.4799      2.00000
      2     -10.1581      2.00000
      3      -9.3729      2.00000
      4      -8.9526      2.00000
      5      -4.8054      2.00000
      6      -4.1932      2.00000
      7      -3.2715      2.00000
      8      -3.0096      2.00000
      9      -1.4085      2.00000
     10      -0.7301      2.00000
     11      -0.5059      2.00000
     12       0.5680      2.00000
     13       0.8828      2.00000
     14       1.3230      2.00000
     15       1.4582      2.00000
     16       1.5100      2.00000
     17       2.6203      2.00000
     18       2.6317      2.00000
     19       2.7751      2.00000
     20       2.8617      2.00000
     21       4.3486      0.00000
     22       5.0440      0.00000
     23       5.4203      0.00000
     24       5.5665      0.00000
     25       6.4163      0.00000
     26       6.9320      0.00000
     27       7.3323      0.00000
     28       7.5423      0.00000
     29       7.9263      0.00000
     30       8.0503      0.00000
     31       8.2167      0.00000
     32       8.8483      0.00000

 k-point     8 :       0.3333    0.1667    0.0000
  band No.  band energies     occupation 
      1     -10.1055      2.00000
      2      -9.8052      2.00000
      3      -9.3896      2.00000
      4      -9.0550      2.00000
      5      -5.0678      2.00000
      6      -4.2255      2.00000
      7      -4.1256      2.00000
      8      -3.5304      2.00000
      9      -0.8729      2.00000
     10      -0.8527      2.00000
     11      -0.6239      2.00000
     12       0.4122      2.00000
     13       0.5528      2.00000
     14       1.1441      2.00000
     15       1.4206      2.00000
     16       1.9664      2.00000
     17       2.2431      2.00000
     18       2.5707      2.00000
     19       2.7603      2.00000
     20       2.9195      2.00000
     21       4.3828      0.00000
     22       4.7009      0.00000
     23       5.2859      0.00000
     24       5.5450      0.00000
     25       5.5830      0.00000
     26       6.5534      0.00000
     27       6.8302      0.00000
     28       7.5433      0.00000
     29       7.8187      0.00000
     30       8.2569      0.00000
     31       8.4189      0.00000
     32       8.7428      0.00000

 k-point     9 :      -0.3333    0.1667    0.0000
  band No.  band energies     occupation 
      1     -10.1055      2.00000
      2      -9.8052      2.00000
      3      -9.3896      2.00000
      4      -9.0550      2.00000
      5      -5.0678      2.00000
      6      -4.2255      2.00000
      7      -4.1256      2.00000
      8      -3.5304      2.00000
      9      -0.8729      2.00000
     10      -0.8527      2.00000
     11      -0.6239      2.00000
     12       0.4122      2.00000
     13       0.5528      2.00000
     14       1.1441      2.00000
     15       1.4206      2.00000
     16       1.9664      2.00000
     17       2.2431      2.00000
     18       2.5707      2.00000
     19       2.7603      2.00000
     20       2.9195      2.00000
     21       4.3828      0.00000
     22       4.7009      0.00000
     23       5.2859      0.00000
     24       5.5450      0.00000
     25       5.5830      0.00000
     26       6.5534      0.00000
     27       6.8302      0.00000
     28       7.5433      0.00000
     29       7.8187      0.00000
     30       8.2569      0.00000
     31       8.4189      0.00000
     32       8.7428      0.00000

 k-point    10 :       0.5000    0.1667    0.0000
  band No.  band energies     occupation 
      1      -9.6562      2.00000
      2      -9.6562      2.00000
      3      -9.3686      2.00000
      4      -9.3686      2.00000
      5      -4.8818      2.00000
      6      -4.8818      2.00000
      7      -4.0321      2.00000
      8      -4.0321      2.00000
      9      -0.4013      2.00000
     10      -0.4013      2.00000
     11      -0.1813      2.00000
     12      -0.1813      2.00000
     13       0.4178      2.00000
     14       0.4178      2.00000
     15       1.5909      2.00000
     16       1.5909      2.00000
     17       2.3149      2.00000
     18       2.3149      2.00000
     19       2.7965      2.00000
     20       2.7965      2.00000
     21       4.7685      0.00000
     22       4.7685      0.00000
     23       5.1967      0.00000
     24       5.1967      0.00000
     25       6.1696      0.00000
     26       6.1696      0.00000
     27       6.9823      0.00000
     28       6.9823      0.00000
     29       7.5253      0.00000
     30       7.5253      0.00000
     31       8.7430      0.00000
     32       8.7430      0.00000

 k-point    11 :       0.0000    0.3333    0.0000
  band No.  band energies     occupation 
      1     -10.1545      2.00000
      2      -9.8896      2.00000
      3      -9.2829      2.00000
      4      -9.0724      2.00000
      5      -5.2175      2.00000
      6      -4.7375      2.00000
      7      -4.3193      2.00000
      8      -3.7080      2.00000
      9      -1.0356      2.00000
     10       0.3243      2.00000
     11       0.7915      2.00000
     12       0.8249      2.00000
     13       1.0490      2.00000
     14       1.1158      2.00000
     15       1.8534      2.00000
     16       1.8703      2.00000
     17       2.3058      2.00000
     18       2.5360      2.00000
     19       2.6518      2.00000
     20       3.1712      2.00000
     21       4.5689      0.00000
     22       4.6610      0.00000
     23       5.3037      0.00000
     24       5.4892      0.00000
     25       5.8015      0.00000
     26       5.9018      0.00000
     27       6.0818      0.00000
     28       6.8145      0.00000
     29       7.1011      0.00000
     30       7.2088      0.00000
     31       8.0051      0.00000
     32       8.8485      0.00000

 k-point    12 :       0.1667    0.3333    0.0000
  band No.  band energies     occupation 
      1     -10.0365      2.00000
      2      -9.7829      2.00000
      3      -9.2523      2.00000
      4      -9.0533      2.00000
      5      -5.1231      2.00000
      6      -4.5958      2.00000
      7      -4.2442      2.00000
      8      -3.7596      2.00000
      9      -0.9009      2.00000
     10      -0.7408      2.00000
     11      -0.4957      2.00000
     12       0.4673      2.00000
     13       0.9997      2.00000
     14       1.1889      2.00000
     15       1.3275      2.00000
     16       1.8667      2.00000
     17       2.0008      2.00000
     18       2.3692      2.00000
     19       2.5709      2.00000
     20       2.9173      2.00000
     21       4.3998      0.00000
     22       5.0225      0.00000
     23       5.6743      0.00000
     24       5.7141      0.00000
     25       5.8907      0.00000
     26       6.5652      0.00000
     27       7.1559      0.00000
     28       7.5452      0.00000
     29       7.7535      0.00000
     30       8.1027      0.00000
     31       8.4911      0.00000
     32       8.7144      0.00000

 k-point    13 :      -0.1667    0.3333    0.0000
  band No.  band energies     occupation 
      1     -10.0365      2.00000
      2      -9.7829      2.00000
      3      -9.2523      2.00000
      4      -9.0533      2.00000
      5      -5.1231      2.00000
      6      -4.5958      2.00000
      7      -4.2442      2.00000
      8      -3.7596      2.00000
      9      -0.9009      2.00000
     10      -0.7408      2.00000
     11      -0.4957      2.00000
     12       0.4673      2.00000
     13       0.9997      2.00000
     14       1.1889      2.00000
     15       1.3275      2.00000
     16       1.8667      2.00000
     17       2.0008      2.00000
     18       2.3692      2.00000
     19       2.5709      2.00000
     20       2.9173      2.00000
     21       4.3998      0.00000
     22       5.0225      0.00000
     23       5.6743      0.00000
     24       5.7141      0.00000
     25       5.8907      0.00000
     26       6.5652      0.00000
     27       7.1559      0.00000
     28       7.5452      0.00000
     29       7.7535      0.00000
     30       8.1027      0.00000
     31       8.4911      0.00000
     32       8.7144      0.00000

 k-point    14 :       0.3333    0.3333    0.0000
  band No.  band energies     occupation 
      1      -9.7333      2.00000
      2      -9.5115      2.00000
      3      -9.2405      2.00000
      4      -9.0614      2.00000
      5      -4.8949      2.00000
      6      -4.2603      2.00000
      7      -4.2140      2.00000
      8      -3.9161      2.00000
      9      -1.5684      2.00000
     10      -1.2908      2.00000
     11      -0.7309      2.00000
     12      -0.4358      2.00000
     13       0.0055      2.00000
     14       0.4441      2.00000
     15       0.7798      2.00000
     16       1.0844      2.00000
     17       1.5382      2.00000
     18       1.9105      2.00000
     19       2.0928      2.00000
     20       2.4756      2.00000
     21       4.8040      0.00000
     22       6.1639      0.00000
     23       6.6745      0.00000
     24       6.7021      0.00000
     25       7.2177      0.00000
     26       7.4261      0.00000
     27       7.7579      0.00000
     28       7.8662      0.00000
     29       8.5256      0.00000
     30       8.6938      0.00000
     31       9.0079      0.00000
     32       9.3173      0.00000

 k-point    15 :      -0.3333    0.3333    0.0000
  band No.  band energies     occupation 
      1      -9.7333      2.00000
      2      -9.5115      2.00000
      3      -9.2405      2.00000
      4      -9.0614      2.00000
      5      -4.8949      2.00000
      6      -4.2603      2.00000
      7      -4.2140      2.00000
      8      -3.9161      2.00000
      9      -1.5684      2.00000
     10      -1.2908      2.00000
     11      -0.7309      2.00000
     12      -0.4358      2.00000
     13       0.0055      2.00000
     14       0.4441      2.00000
     15       0.7798      2.00000
     16       1.0844      2.00000
     17       1.5382      2.00000
     18       1.9105      2.00000
     19       2.0928      2.00000
     20       2.4756      2.00000
     21       4.8040      0.00000
     22       6.1639      0.00000
     23       6.6745      0.00000
     24       6.7021      0.00000
     25       7.2177      0.00000
     26       7.4261      0.00000
     27       7.7579      0.00000
     28       7.8662      0.00000
     29       8.5256      0.00000
     30       8.6938      0.00000
     31       9.0079      0.00000
     32       9.3173      0.00000

 k-point    16 :       0.5000    0.3333    0.0000
  band No.  band energies     occupation 
      1      -9.4035      2.00000
      2      -9.4035      2.00000
      3      -9.2177      2.00000
      4      -9.2177      2.00000
      5      -4.5698      2.00000
      6      -4.5698      2.00000
      7      -3.9966      2.00000
      8      -3.9966      2.00000
      9      -1.4599      2.00000
     10      -1.4599      2.00000
     11      -1.0833      2.00000
     12      -1.0833      2.00000
     13      -0.0127      2.00000
     14      -0.0127      2.00000
     15       0.7328      2.00000
     16       0.7328      2.00000
     17       1.2579      2.00000
     18       1.2579      2.00000
     19       2.1383      2.00000
     20       2.1383      2.00000
     21       5.7726      0.00000
     22       5.7726      0.00000
     23       7.2631      0.00000
     24       7.2631      0.00000
     25       7.8499      0.00000
     26       7.8499      0.00000
     27       8.0891      0.00000
     28       8.0891      0.00000
     29       8.7942      0.00000
     30       8.7942      0.00000
     31       9.1113      0.00000
     32       9.1113      0.00000

 k-point    17 :       0.0000    0.5000    0.0000
  band No.  band energies     occupation 
      1      -9.5380      2.00000
      2      -9.5380      2.00000
      3      -9.4425      2.00000
      4      -9.4425      2.00000
      5      -5.1870      2.00000
      6      -5.1870      2.00000
      7      -4.5644      2.00000
      8      -4.5644      2.00000
      9      -0.2054      2.00000
     10      -0.2054      2.00000
     11       1.2857      2.00000
     12       1.2857      2.00000
     13       1.3871      2.00000
     14       1.3871      2.00000
     15       1.8534      2.00000
     16       1.8534      2.00000
     17       2.5499      2.00000
     18       2.5499      2.00000
     19       2.6920      2.00000
     20       2.6920      2.00000
     21       4.8232      0.00000
     22       4.8232      0.00000
     23       4.8890      0.00000
     24       4.8890      0.00000
     25       5.3084      0.00000
     26       5.3084      0.00000
     27       5.8636      0.00000
     28       5.8636      0.00000
     29       6.3742      0.00000
     30       6.3742      0.00000
     31       8.5101      0.00000
     32       8.5101      0.00000

 k-point    18 :       0.1667    0.5000    0.0000
  band No.  band energies     occupation 
      1      -9.4648      2.00000
      2      -9.4648      2.00000
      3      -9.3797      2.00000
      4      -9.3797      2.00000
      5      -5.0263      2.00000
      6      -5.0263      2.00000
      7      -4.4586      2.00000
      8      -4.4586      2.00000
      9      -0.3389      2.00000
     10      -0.3389      2.00000
     11       0.0875      2.00000
     12       0.0875      2.00000
     13       0.6658      2.00000
     14       0.6658      2.00000
     15       1.4320      2.00000
     16       1.4320      2.00000
     17       1.9751      2.00000
     18       1.9751      2.00000
     19       2.6812      2.00000
     20       2.6812      2.00000
     21       4.7964      0.00000
     22       4.7964      0.00000
     23       5.8593      0.00000
     24       5.8593      0.00000
     25       6.5535      0.00000
     26       6.5535      0.00000
     27       6.8770      0.00000
     28       6.8770      0.00000
     29       7.6827      0.00000
     30       7.6827      0.00000
     31       8.1845      0.00000
     32       8.1845      0.00000

 k-point    19 :       0.3333    0.5000    0.0000
  band No.  band energies     occupation 
      1      -9.3042      2.00000
      2      -9.3042      2.00000
      3      -9.2496      2.00000
      4      -9.2496      2.00000
      5      -4.6205      2.00000
      6      -4.6205      2.00000
      7      -4.2378      2.00000
      8      -4.2378      2.00000
      9      -1.2335      2.00000
     10      -1.2335      2.00000
     11      -0.9614      2.00000
     12      -0.9614      2.00000
     13      -0.0398      2.00000
     14      -0.0398      2.00000
     15       0.6480      2.00000
     16       0.6480      2.00000
     17       1.1689      2.00000
     18       1.1689      2.00000
     19       2.1214      2.00000
     20       2.1214      2.00000
     21       5.8290      0.00000
     22       5.8290      0.00000
     23       7.3020      0.00000
     24       7.3020      0.00000
     25       7.9389      0.00000
     26       7.9389      0.00000
     27       8.0235      0.00000
     28       8.0235      0.00000
     29       8.7963      0.00000
     30       8.7963      0.00000
     31       9.2928      0.00000
     32       9.2928      0.00000

 k-point    20 :       0.5000    0.5000    0.0000
  band No.  band energies     occupation 
      1      -9.2108      2.00000
      2      -9.2108      2.00000
      3      -9.1870      2.00000
      4      -9.1870      2.00000
      5      -4.3259      2.00000
      6      -4.3259      2.00000
      7      -4.1464      2.00000
      8      -4.1464      2.00000
      9      -1.6663      2.00000
     10      -1.6663      2.00000
     11      -1.4351      2.00000
     12      -1.4351      2.00000
     13      -0.3453      2.00000
     14      -0.3453      2.00000
     15       0.0703      2.00000
     16       0.0703      2.00000
     17       1.3050      2.00000
     18       1.3050      2.00000
[...]
     32       7.6930      0.00000

 k-point    32 :       0.1667    0.3333    0.5000
  band No.  band energies     occupation 
      1      -9.9296      2.00000
      2      -9.9296      2.00000
      3      -9.1316      2.00000
      4      -9.1316      2.00000
      5      -4.8979      2.00000
      6      -4.8979      2.00000
      7      -4.0112      2.00000
      8      -4.0112      2.00000
      9      -0.6578      2.00000
     10      -0.6578      2.00000
     11       0.0651      2.00000
     12       0.0651      2.00000
     13       0.7797      2.00000
     14       0.7797      2.00000
     15       1.5664      2.00000
     16       1.5664      2.00000
     17       2.0553      2.00000
     18       2.0553      2.00000
     19       2.8008      2.00000
     20       2.8008      2.00000
     21       5.2081      0.00000
     22       5.2081      0.00000
     23       5.6696      0.00000
     24       5.6696      0.00000
     25       6.6700      0.00000
     26       6.6700      0.00000
     27       6.8357      0.00000
     28       6.8357      0.00000
     29       7.4803      0.00000
     30       7.4803      0.00000
     31       8.4570      0.00000
     32       8.4570      0.00000

 k-point    33 :      -0.1667    0.3333    0.5000
  band No.  band energies     occupation 
      1      -9.9296      2.00000
      2      -9.9296      2.00000
      3      -9.1316      2.00000
      4      -9.1316      2.00000
      5      -4.8979      2.00000
      6      -4.8979      2.00000
      7      -4.0112      2.00000
      8      -4.0112      2.00000
      9      -0.6578      2.00000
     10      -0.6578      2.00000
     11       0.0651      2.00000
     12       0.0651      2.00000
     13       0.7797      2.00000
     14       0.7797      2.00000
     15       1.5664      2.00000
     16       1.5664      2.00000
     17       2.0553      2.00000
     18       2.0553      2.00000
     19       2.8008      2.00000
     20       2.8008      2.00000
     21       5.2081      0.00000
     22       5.2081      0.00000
     23       5.6696      0.00000
     24       5.6696      0.00000
     25       6.6700      0.00000
     26       6.6700      0.00000
     27       6.8357      0.00000
     28       6.8357      0.00000
     29       7.4803      0.00000
     30       7.4803      0.00000
     31       8.4570      0.00000
     32       8.4570      0.00000

 k-point    34 :       0.3333    0.3333    0.5000
  band No.  band energies     occupation 
      1      -9.6442      2.00000
      2      -9.6442      2.00000
      3      -9.1292      2.00000
      4      -9.1292      2.00000
      5      -4.6397      2.00000
      6      -4.6397      2.00000
      7      -4.0340      2.00000
      8      -4.0340      2.00000
      9      -1.4014      2.00000
     10      -1.4014      2.00000
     11      -0.4088      2.00000
     12      -0.4088      2.00000
     13       0.0843      2.00000
     14       0.0843      2.00000
     15       0.8165      2.00000
     16       0.8165      2.00000
     17       1.6096      2.00000
     18       1.6096      2.00000
     19       2.4372      2.00000
     20       2.4372      2.00000
     21       5.9942      0.00000
     22       5.9942      0.00000
     23       6.3786      0.00000
     24       6.3786      0.00000
     25       6.8529      0.00000
     26       6.8529      0.00000
     27       7.7022      0.00000
     28       7.7022      0.00000
     29       8.3224      0.00000
     30       8.3224      0.00000
     31       9.4954      0.00000
     32       9.4954      0.00000

 k-point    35 :      -0.3333    0.3333    0.5000
  band No.  band energies     occupation 
      1      -9.6442      2.00000
      2      -9.6442      2.00000
      3      -9.1292      2.00000
      4      -9.1292      2.00000
      5      -4.6397      2.00000
      6      -4.6397      2.00000
      7      -4.0340      2.00000
      8      -4.0340      2.00000
      9      -1.4014      2.00000
     10      -1.4014      2.00000
     11      -0.4088      2.00000
     12      -0.4088      2.00000
     13       0.0843      2.00000
     14       0.0843      2.00000
     15       0.8165      2.00000
     16       0.8165      2.00000
     17       1.6096      2.00000
     18       1.6096      2.00000
     19       2.4372      2.00000
     20       2.4372      2.00000
     21       5.9942      0.00000
     22       5.9942      0.00000
     23       6.3786      0.00000
     24       6.3786      0.00000
     25       6.8529      0.00000
     26       6.8529      0.00000
     27       7.7022      0.00000
     28       7.7022      0.00000
     29       8.3224      0.00000
     30       8.3224      0.00000
     31       9.4954      0.00000
     32       9.4954      0.00000

 k-point    36 :       0.5000    0.3333    0.5000
  band No.  band energies     occupation 
      1      -9.4001      2.00000
      2      -9.4001      2.00000
      3      -9.2217      2.00000
      4      -9.2217      2.00000
      5      -4.5140      2.00000
      6      -4.5140      2.00000
      7      -4.0741      2.00000
      8      -4.0741      2.00000
      9      -1.2733      2.00000
     10      -1.2733      2.00000
     11      -1.2350      2.00000
     12      -1.2350      2.00000
     13       0.2146      2.00000
     14       0.2146      2.00000
     15       0.2494      2.00000
     16       0.2494      2.00000
     17       1.6177      2.00000
     18       1.6177      2.00000
     19       2.0561      2.00000
     20       2.0561      2.00000
     21       6.0688      0.00000
     22       6.0688      0.00000
     23       6.7893      0.00000
     24       6.7893      0.00000
     25       7.5453      0.00000
     26       7.5453      0.00000
     27       7.6480      0.00000
     28       7.6480      0.00000
     29       9.0719      0.00000
     30       9.0719      0.00000
     31       9.2554      0.00000
     32       9.2554      0.00000

 k-point    37 :       0.0000    0.5000    0.5000
  band No.  band energies     occupation 
      1      -9.4916      2.00000
      2      -9.4916      2.00000
      3      -9.4916      2.00000
      4      -9.4916      2.00000
      5      -4.9007      2.00000
      6      -4.9007      2.00000
      7      -4.9007      2.00000
      8      -4.9007      2.00000
      9       0.5863      2.00000
     10       0.5863      2.00000
     11       0.5863      2.00000
     12       0.5863      2.00000
     13       1.4942      2.00000
     14       1.4942      2.00000
     15       1.4942      2.00000
     16       1.4942      2.00000
     17       2.5423      2.00000
     18       2.5423      2.00000
     19       2.5423      2.00000
     20       2.5423      2.00000
     21       5.1808      0.00000
     22       5.1808      0.00000
     23       5.1808      0.00000
     24       5.1808      0.00000
     25       5.5633      0.00000
     26       5.5633      0.00000
     27       5.5633      0.00000
     28       5.5633      0.00000
     29       7.1370      0.00000
     30       7.1370      0.00000
     31       7.1370      0.00000
     32       7.1370      0.00000

 k-point    38 :       0.1667    0.5000    0.5000
  band No.  band energies     occupation 
      1      -9.4233      2.00000
      2      -9.4233      2.00000
      3      -9.4233      2.00000
      4      -9.4233      2.00000
      5      -4.7638      2.00000
      6      -4.7638      2.00000
      7      -4.7638      2.00000
      8      -4.7638      2.00000
      9       0.0364      2.00000
     10       0.0364      2.00000
     11       0.0364      2.00000
     12       0.0364      2.00000
     13       0.8502      2.00000
     14       0.8502      2.00000
     15       0.8502      2.00000
     16       0.8502      2.00000
     17       2.2388      2.00000
     18       2.2388      2.00000
     19       2.2388      2.00000
     20       2.2388      2.00000
     21       5.6590      0.00000
     22       5.6590      0.00000
     23       5.6590      0.00000
     24       5.6590      0.00000
     25       6.7866      0.00000
     26       6.7866      0.00000
     27       6.7866      0.00000
     28       6.7866      0.00000
     29       7.4817      0.00000
     30       7.4817      0.00000
     31       7.4817      0.00000
     32       7.4817      0.00000

 k-point    39 :       0.3333    0.5000    0.5000
  band No.  band energies     occupation 
      1      -9.2773      2.00000
      2      -9.2773      2.00000
      3      -9.2773      2.00000
      4      -9.2773      2.00000
      5      -4.4412      2.00000
      6      -4.4412      2.00000
      7      -4.4412      2.00000
      8      -4.4412      2.00000
      9      -1.0257      2.00000
     10      -1.0257      2.00000
     11      -1.0257      2.00000
     12      -1.0257      2.00000
     13       0.0711      2.00000
     14       0.0711      2.00000
     15       0.0711      2.00000
     16       0.0711      2.00000
     17       1.8407      2.00000
     18       1.8407      2.00000
     19       1.8407      2.00000
     20       1.8407      2.00000
     21       6.3812      0.00000
     22       6.3812      0.00000
     23       6.3812      0.00000
     24       6.3812      0.00000
     25       7.7319      0.00000
     26       7.7319      0.00000
     27       7.7319      0.00000
     28       7.7319      0.00000
     29       9.2495      0.00000
     30       9.2495      0.00000
     31       9.2495      0.00000
     32       9.2495      0.00000

 k-point    40 :       0.5000    0.5000    0.5000
  band No.  band energies     occupation 
      1      -9.1989      2.00000
      2      -9.1989      2.00000
      3      -9.1989      2.00000
      4      -9.1989      2.00000
      5      -4.2444      2.00000
      6      -4.2444      2.00000
      7      -4.2444      2.00000
      8      -4.2444      2.00000
      9      -1.4233      2.00000
     10      -1.4233      2.00000
     11      -1.4233      2.00000
     12      -1.4233      2.00000
     13      -0.4473      2.00000
     14      -0.4473      2.00000
     15      -0.4473      2.00000
     16      -0.4473      2.00000
     17       1.8640      2.00000
     18       1.8640      2.00000
     19       1.8640      2.00000
     20       1.8640      2.00000
     21       6.1725      0.00000
     22       6.1725      0.00000
     23       6.1725      0.00000
     24       6.1725      0.00000
     25       8.7278      0.00000
     26       8.7278      0.00000
     27       8.7278      0.00000
     28       8.7278      0.00000
     29      10.0498      0.00000
     30      10.0498      0.00000
     31      10.0498      0.00000
     32      10.0498      0.00000


--------------------------------------------------------------------------------------------------------


 soft charge-density along one line, spin component            1
         0         1         2         3         4         5         6         7         8         9
 total charge-density along one line
 
 pseudopotential strength for first ion, spin component:            1
 14.472  18.054   0.000   0.045   0.033   0.000   0.080   0.059
 18.054  22.537   0.000   0.056   0.041   0.000   0.101   0.075
  0.000   0.000   3.217   0.000   0.000   5.476   0.000   0.000
  0.045   0.056   0.000   3.213  -0.002   0.000   5.469  -0.003
  0.033   0.041   0.000  -0.002   3.217   0.000  -0.003   5.475
  0.000   0.000   5.476   0.000   0.000   9.377   0.000   0.000
  0.080   0.101   0.000   5.469  -0.003   0.000   9.366  -0.006
  0.059   0.075   0.000  -0.003   5.475   0.000  -0.006   9.376
  0.000   0.000   0.005   0.000   0.000   0.010   0.000   0.000
 -0.000  -0.000   0.012   0.000   0.000   0.022   0.000   0.000
 -0.004  -0.005  -0.000   0.011  -0.003  -0.000   0.020  -0.006
 -0.004  -0.005   0.000   0.010   0.012   0.000   0.018   0.022
 -0.000  -0.000  -0.000   0.000   0.010  -0.000   0.000   0.018
 total augmentation occupancy for first ion, spin component:            1
  2.666  -0.675   0.000   0.377   0.247  -0.000  -0.069  -0.041  -0.000  -0.000   0.003  -0.014  -0.013
 -0.675   0.678   0.000  -0.479  -0.331  -0.000   0.075   0.049  -0.000   0.000   0.001   0.011   0.012
  0.000   0.000   1.176  -0.000  -0.000  -0.201   0.000   0.000   0.111   0.026   0.000  -0.000   0.000
  0.377  -0.479  -0.000   1.319   0.025   0.000  -0.215   0.007   0.000  -0.000   0.124  -0.016   0.000
  0.247  -0.331  -0.000   0.025   1.125   0.000   0.007  -0.179   0.000  -0.000  -0.071   0.030  -0.011
 -0.000  -0.000  -0.201   0.000   0.000   0.038  -0.000  -0.000  -0.019  -0.004  -0.000  -0.000  -0.000
 -0.069   0.075   0.000  -0.215   0.007  -0.000   0.040  -0.003  -0.000  -0.000  -0.021   0.002  -0.000
 -0.041   0.049   0.000   0.007  -0.179  -0.000  -0.003   0.032  -0.000   0.000   0.012  -0.005   0.002
 -0.000  -0.000   0.111   0.000   0.000  -0.019  -0.000  -0.000   0.030   0.001   0.000  -0.000   0.000
 -0.000   0.000   0.026  -0.000  -0.000  -0.004  -0.000   0.000   0.001   0.010   0.000   0.000   0.000
  0.003   0.001   0.000   0.124  -0.071  -0.000  -0.021   0.012   0.000   0.000   0.033  -0.006   0.003
 -0.014   0.011  -0.000  -0.016   0.030  -0.000   0.002  -0.005  -0.000   0.000  -0.006   0.011  -0.001
 -0.013   0.012   0.000   0.000  -0.011  -0.000  -0.000   0.002   0.000   0.000   0.003  -0.001   0.008


------------------------ aborting loop because EDIFF is reached ----------------------------------------


    CHARGE:  cpu time      0.0036: real time      0.0036
    FORLOC:  cpu time      0.0002: real time      0.0002
    FORNL :  cpu time      0.0180: real time      0.0180
    STRESS:  cpu time      0.1843: real time      0.1850
    FORCOR:  cpu time      0.0037: real time      0.0037
    FORHAR:  cpu time      0.0008: real time      0.0008
    MIXING:  cpu time      0.0007: real time      0.0007
    OFIELD:  cpu time      0.0000: real time      0.0000

  FORCE on cell =-STRESS in cart. coord.  units (eV):
  Direction    XX          YY          ZZ          XY          YZ          ZX
  --------------------------------------------------------------------------------------
  Alpha Z    89.37656    89.37656    89.37656
  Ewald    -494.65387  -445.99042  -497.84386     0.00000     0.00000     0.00000
  Hartree    41.17163    56.54386    28.96405    -0.00000    -0.00000     0.00000
  E(xc)    -140.85603  -140.69967  -141.48027     0.00000     0.00000     0.00000
  Local    -118.80398  -177.02598  -105.71876     0.00000     0.00000     0.00000
  n-local   238.29819   239.10171   242.59210    -0.00000    -0.00000    -0.00000
  augment   -11.79530   -11.33870   -12.12896    -0.00000    -0.00000     0.00000
  Kinetic   398.84304   388.54517   397.56966     0.00000    -0.00000    -0.00000
  Fock        0.00000     0.00000     0.00000     0.00000     0.00000     0.00000
  -------------------------------------------------------------------------------------
  Total       1.58024    -1.48748     1.33051     0.00000    -0.00000    -0.00000
  in kB      13.35461   -12.57063    11.24409     0.00001    -0.00000    -0.00000
  external pressure =        4.01 kB  Pullay stress =        0.00 kB


 VOLUME and BASIS-vectors are now :
 -----------------------------------------------------------------------------
  energy-cutoff  :      360.00
  volume of cell :      189.58
      direct lattice vectors                 reciprocal lattice vectors
     4.150000000  0.000000000  0.000000000     0.240963855  0.000000000  0.000000000
     0.000000000  4.100000000  0.000000000     0.000000000  0.243902439  0.000000000
     0.000000000  0.000000000 11.142221000     0.000000000  0.000000000  0.089748713

  length of vectors
     4.150000000  4.100000000 11.142221000     0.240963855  0.243902439  0.089748713


 FORCES acting on ions
    electron-ion (+dipol)            ewald-force                    non-local-force                 convergence-correction
 -----------------------------------------------------------------------------------------------
   0.929E+01 0.586E-06 0.257E+02   -.115E+02 0.621E-14 -.285E+02   0.216E+01 -.283E-06 0.275E+01   -.153E-03 -.311E-06 -.122E-02
   0.929E+01 -.538E-06 -.257E+02   -.115E+02 -.247E-14 0.285E+02   0.216E+01 0.115E-06 -.275E+01   -.152E-03 0.524E-06 0.122E-02
   -.929E+01 0.362E-06 -.257E+02   0.115E+02 -.574E-14 0.285E+02   -.216E+01 -.227E-06 -.275E+01   0.152E-03 -.344E-06 0.122E-02
   -.929E+01 0.565E-07 0.257E+02   0.115E+02 0.451E-14 -.285E+02   -.216E+01 0.120E-06 0.275E+01   0.152E-03 -.141E-06 -.122E-02
   -.858E+01 0.327E-05 -.281E+02   0.957E+01 0.438E-14 0.299E+02   -.950E+00 -.130E-05 -.183E+01   0.375E-03 -.196E-05 0.221E-02
   -.858E+01 -.619E-06 0.281E+02   0.957E+01 -.652E-14 -.299E+02   -.950E+00 0.186E-06 0.183E+01   0.376E-03 0.479E-06 -.220E-02
   0.858E+01 -.158E-05 0.281E+02   -.957E+01 -.491E-14 -.299E+02   0.950E+00 0.555E-06 0.183E+01   -.376E-03 0.101E-05 -.221E-02
   0.858E+01 -.243E-05 -.281E+02   -.957E+01 0.799E-14 0.299E+02   0.950E+00 0.106E-05 -.183E+01   -.376E-03 0.130E-05 0.221E-02
 -----------------------------------------------------------------------------------------------
   0.223E-05 -.895E-06 0.993E-06   -.711E-14 0.343E-14 0.000E+00   0.170E-06 0.218E-06 -.458E-06   -.229E-05 0.557E-06 -.807E-06
 
 
 POSITION                                       TOTAL-FORCE (eV/Angst)
 -----------------------------------------------------------------------------------
      0.40196      1.02500      1.46071        -0.025721      0.000000      0.017574
      2.47696      3.07500      4.11040        -0.025721      0.000000     -0.017572
      3.74804      3.07500      9.68151         0.025721     -0.000000     -0.017575
      1.67304      1.02500      7.03182         0.025720      0.000000      0.017573
      0.01971      1.02500      3.99761         0.040310      0.000000     -0.001726
      2.09471      3.07500      1.57350         0.040310      0.000000      0.001727
      4.13029      3.07500      7.14461        -0.040309      0.000000      0.001726
      2.05529      1.02500      9.56872        -0.040309     -0.000000     -0.001727
 -----------------------------------------------------------------------------------
    total drift:                                0.000000     -0.000000     -0.000000


--------------------------------------------------------------------------------------------------------



  FREE ENERGIE OF THE ION-ELECTRON SYSTEM (eV)
  ---------------------------------------------------
  free  energy   TOTEN  =       -33.73630341 eV

  energy  without entropy=      -33.73630341  energy(sigma->0) =      -33.73630341
 


--------------------------------------------------------------------------------------------------------


    POTLOK:  cpu time      0.1138: real time      0.1144


--------------------------------------------------------------------------------------------------------


     LOOP+:  cpu time      4.9043: real time      4.9472
    4ORBIT:  cpu time      0.0000: real time      0.0000

 total amount of memory used by VASP MPI-rank0    38152. kBytes
=======================================================================

   base      :      30000. kBytes
   nonl-proj :       6352. kBytes
   fftplans  :        319. kBytes
   grid      :        462. kBytes
   one-center:         16. kBytes
   wavefun   :       1003. kBytes
 
  
  
 General timing and accounting informations for this job:
 ========================================================
  
                  Total CPU time used (sec):        5.654
                            User time (sec):        5.430
                          System time (sec):        0.224
                         Elapsed time (sec):        7.237
  
                   Maximum memory used (kb):      189264.
                   Average memory used (kb):          N/A
  
                          Minor page faults:        21596
                          Major page faults:           43
                 Voluntary context switches:         4724
