 vasp.6.4.2 20Jul23 (build Oct 12 2023 10:31:02) complex                         
 executed on              LinuxNV date 2025.05.17  20:41:25
 running  160 mpi-ranks, with    1 threads/rank, on   10 nodes
 distrk:  each k-point on   80 cores,    2 groups
 distr:  one band on NCORE=   5 cores,   16 groups


--------------------------------------------------------------------------------------------------------


 INCAR:
   ENCUT = 360.000000
   SIGMA = 0.050000
   EDIFF = 1.00e-06
   ALGO = Normal
   GGA = PE
   PREC = Normal
   SYSTEM = ./
   ICHARG = 2
   ISMEAR = 0
   ISPIN = 1
   ISTART = 0
   ISYM = 0
   KPAR = 2
   LMAXMIX = 4
   NELM = 100
   NPAR = 16
   LASPH = .TRUE.
   LCHARG = .FALSE.
   LWAVE = .FALSE.

 POTCAR:    PAW_PBE Ge 05Jan2001                  
 POTCAR:    PAW_PBE Se 06Sep2000                  
 POTCAR:    PAW_PBE Ge 05Jan2001                  
   VRHFIN =Ge: s2p2                                                                                 
   LEXCH  = PE                                                                                      
   EATOM  =   104.9960 eV,    7.7170 Ry                                                             
                                                                                                    
   TITEL  = PAW_PBE Ge 05Jan2001                                                                    
   LULTRA =        F    use ultrasoft PP ?                                                          
   IUNSCR =        1    unscreen: 0-lin 1-nonlin 2-no                                               
   RPACOR =    2.170    partial core radius                                                         
   POMASS =   72.610; ZVAL   =    4.000    mass and valenz                                          
   RCORE  =    2.300    outmost cutoff radius                                                       
   RWIGS  =    2.300; RWIGS  =    1.217    wigner-seitz radius (au A)                               
   ENMAX  =  173.807; ENMIN  =  130.355 eV                                                          
   ICORE  =        3    local potential                                                             
   LCOR   =        T    correct aug charges                                                         
   LPAW   =        T    paw PP                                                                      
   EAUG   =  385.843                                                                                
   DEXC   =    0.000                                                                                
   RMAX   =    2.342    core radius for proj-oper                                                   
   RAUG   =    1.300    factor for augmentation sphere                                              
   RDEP   =    2.318    radius for radial grids                                                     
   RDEPT  =    2.103    core radius for aug-charge                                                  
                                                                                                    
   Atomic configuration                                                                             
   10 entries                                                                                       
     n  l   j            E        occ.                                                              
     1  0  0.50    -10959.8463   2.0000                                                             
     2  0  0.50     -1371.6056   2.0000                                                             
     2  1  1.50     -1198.4791   6.0000                                                             
     3  0  0.50      -168.4733   2.0000                                                             
     3  1  1.50      -115.6019   6.0000                                                             
     3  2  2.50       -29.3106  10.0000                                                             
     4  0  0.50       -11.7309   2.0000                                                             
     4  1  0.50        -3.8952   2.0000                                                             
     4  2  1.50        -4.0817   0.0000                                                             
     4  3  2.50        -4.0817   0.0000                                                             
   Description                                                                                      
     l       E           TYP  RCUT    TYP  RCUT                                                     
     0    -11.7309493     23  2.300                                                                 
     0     -7.4578696     23  2.300                                                                 
     1     -3.8952261     23  2.300                                                                 
     1      6.1178114     23  2.300                                                                 
     2     -4.0817478     23  2.300                                                                 
     3     -1.3605826      7  2.300                                                                 
  local pseudopotential read in
  partial core-charges read in
  partial kinetic energy density read in
  atomic valenz-charges read in
  non local Contribution for L=            0  read in
    real space projection operators read in
  non local Contribution for L=            0  read in
    real space projection operators read in
  non local Contribution for L=            1  read in
    real space projection operators read in
  non local Contribution for L=            1  read in
    real space projection operators read in
  non local Contribution for L=            2  read in
    real space projection operators read in
    PAW grid and wavefunctions read in
 
   number of l-projection  operators is LMAX  =            5
   number of lm-projection operators is LMMAX =           13
 
 POTCAR:    PAW_PBE Se 06Sep2000                  
   VRHFIN =Se: s2p4                                                                                 
   LEXCH  = PE                                                                                      
   EATOM  =   257.1286 eV,   18.8984 Ry                                                             
                                                                                                    
   TITEL  = PAW_PBE Se 06Sep2000                                                                    
   LULTRA =        F    use ultrasoft PP ?                                                          
   IUNSCR =        1    unscreen: 0-lin 1-nonlin 2-no                                               
   RPACOR =    1.900    partial core radius                                                         
   POMASS =   78.960; ZVAL   =    6.000    mass and valenz                                          
   RCORE  =    2.100    outmost cutoff radius                                                       
   RWIGS  =    2.200; RWIGS  =    1.164    wigner-seitz radius (au A)                               
   ENMAX  =  211.555; ENMIN  =  158.666 eV                                                          
   ICORE  =        3    local potential                                                             
   LCOR   =        T    correct aug charges                                                         
   LPAW   =        T    paw PP                                                                      
   EAUG   =  446.842                                                                                
   DEXC   =    0.000                                                                                
   RMAX   =    2.147    core radius for proj-oper                                                   
   RAUG   =    1.300    factor for augmentation sphere                                              
   RDEP   =    2.177    radius for radial grids                                                     
   RDEPT  =    1.928    core radius for aug-charge                                                  
                                                                                                    
   Atomic configuration                                                                             
   10 entries                                                                                       
     n  l   j            E        occ.                                                              
     1  0  0.50    -12503.4787   2.0000                                                             
     2  0  0.50     -1606.9547   2.0000                                                             
     2  1  1.50     -1413.3140   6.0000                                                             
     3  0  0.50      -213.4885   2.0000                                                             
     3  1  1.50      -152.9538   6.0000                                                             
     3  2  2.50       -53.1221  10.0000                                                             
     4  0  0.50       -17.2865   2.0000                                                             
     4  1  0.50        -6.5110   4.0000                                                             
     4  2  2.50        -6.8029   0.0000                                                             
     4  3  2.50        -6.8029   0.0000                                                             
   Description                                                                                      
     l       E           TYP  RCUT    TYP  RCUT                                                     
     0    -17.2865377     23  2.100                                                                 
     0    -15.3094411     23  2.100                                                                 
     1     -6.5110275     23  2.100                                                                 
     1     -0.0695192     23  2.100                                                                 
     2     -6.8029130     23  2.100                                                                 
     3     -1.3605826      7  2.100                                                                 
  local pseudopotential read in
  partial core-charges read in
  partial kinetic energy density read in
  atomic valenz-charges read in
  non local Contribution for L=            0  read in
    real space projection operators read in
  non local Contribution for L=            0  read in
    real space projection operators read in
  non local Contribution for L=            1  read in
    real space projection operators read in
  non local Contribution for L=            1  read in
    real space projection operators read in
  non local Contribution for L=            2  read in
    real space projection operators read in
    PAW grid and wavefunctions read in
 
   number of l-projection  operators is LMAX  =            5
   number of lm-projection operators is LMMAX =           13
 
  PAW_PBE Ge 05Jan2001                  :
 energy of atom  1       EATOM= -104.9960
 kinetic energy error for atom=    0.0005 (will be added to EATOM!!)
  PAW_PBE Se 06Sep2000                  :
 energy of atom  2       EATOM= -257.1286
 kinetic energy error for atom=    0.0030 (will be added to EATOM!!)
 
 
 POSCAR: Ge Se
  positions in cartesian coordinates
  No initial velocities read in
 exchange correlation table for  LEXCH =        8
   RHO(1)=    0.500       N(1)  =     2000
   RHO(2)=  100.500       N(2)  =     4000
 


--------------------------------------------------------------------------------------------------------


 ion  position               nearest neighbor table
   1  0.134  0.641  0.116-   5 2.58   6 2.59   6 2.59
   2  0.634  0.141  0.384-   6 2.58   5 2.59   5 2.59
   3  0.750  0.881  0.884-   7 2.58   8 2.59   8 2.59
   4  0.250  0.381  0.616-   8 2.58   7 2.59   7 2.59
   5  0.134  0.517  0.355-   1 2.58   2 2.59   2 2.59
   6  0.634  0.017  0.145-   2 2.58   1 2.59   1 2.59
   7  0.750  0.005  0.645-   3 2.58   4 2.59   4 2.59
   8  0.250  0.505  0.855-   4 2.58   3 2.59   3 2.59
 

IMPORTANT INFORMATION: All symmetrisations will be switched off!
NOSYMM: (Re-)initialisation of all symmetry stuff for point group C_1.


----------------------------------------------------------------------------------------

                                     Primitive cell                                     

  volume of cell :     184.8593

  direct lattice vectors                    reciprocal lattice vectors
     3.858100176  0.000000000  0.000000000     0.259194929  0.000000000  0.000000000
     0.000000000  4.526575088  0.000000000     0.000000000  0.220917577  0.000000000
     0.000000000  0.000000000 10.585176468     0.000000000  0.000000000  0.094471736

  length of vectors
     3.858100176  4.526575088 10.585176468     0.259194929  0.220917577  0.094471736

  position of ions in fractional coordinates (direct lattice)
     0.134057680  0.640935253  0.116293234
     0.634057728  0.140935279  0.383706663
     0.749999529  0.880803548  0.883706698
     0.249998913  0.380803590  0.616293301
     0.134057752  0.516680341  0.354521754
     0.634057631  0.016680441  0.145478256
     0.749999119  0.005058363  0.645478205
     0.249999423  0.505058446  0.854521738

  ion indices of the primitive-cell ions
   primitive index   ion index
                 1           1
                 2           2
                 3           3
                 4           4
                 5           5
                 6           6
                 7           7
                 8           8

----------------------------------------------------------------------------------------

 
 
 KPOINTS: KPOINTS created by Atomic Simulation Env

Automatic generation of k-mesh.
 Grid dimensions read from file:
 generate k-points for:    6    6    2

 Generating k-lattice:

  Cartesian coordinates                     Fractional coordinates (reciprocal lattice)
     0.043199155  0.000000000  0.000000000     0.166666667  0.000000000  0.000000000
     0.000000000  0.036819596  0.000000000     0.000000000  0.166666667  0.000000000
     0.000000000  0.000000000  0.047235868     0.000000000  0.000000000  0.500000000

  Length of vectors
     0.043199155  0.036819596  0.047235868

  Shift w.r.t. Gamma in fractional coordinates (k-lattice)
     0.000000000  0.000000000  0.000000000

 
 Subroutine IBZKPT returns following result:
 ===========================================
 
 Found     40 irreducible k-points:
 
 Following reciprocal coordinates:
            Coordinates               Weight
  0.000000  0.000000  0.000000      1.000000
  0.166667  0.000000  0.000000      2.000000
  0.333333  0.000000  0.000000      2.000000
  0.500000  0.000000  0.000000      1.000000
  0.000000  0.166667  0.000000      2.000000
  0.166667  0.166667  0.000000      2.000000
  0.166667 -0.166667  0.000000      2.000000
  0.333333  0.166667  0.000000      2.000000
  0.333333 -0.166667  0.000000      2.000000
  0.500000  0.166667  0.000000      2.000000
  0.000000  0.333333  0.000000      2.000000
  0.166667  0.333333  0.000000      2.000000
  0.166667 -0.333333  0.000000      2.000000
  0.333333  0.333333  0.000000      2.000000
  0.333333 -0.333333  0.000000      2.000000
  0.500000  0.333333  0.000000      2.000000
  0.000000  0.500000  0.000000      1.000000
  0.166667  0.500000  0.000000      2.000000
  0.333333  0.500000  0.000000      2.000000
  0.500000  0.500000  0.000000      1.000000
  0.000000  0.000000  0.500000      1.000000
  0.166667  0.000000  0.500000      2.000000
  0.333333  0.000000  0.500000      2.000000
  0.500000  0.000000  0.500000      1.000000
  0.000000  0.166667  0.500000      2.000000
  0.166667  0.166667  0.500000      2.000000
  0.166667 -0.166667  0.500000      2.000000
  0.333333  0.166667  0.500000      2.000000
  0.333333 -0.166667  0.500000      2.000000
  0.500000  0.166667  0.500000      2.000000
  0.000000  0.333333  0.500000      2.000000
  0.166667  0.333333  0.500000      2.000000
  0.166667 -0.333333  0.500000      2.000000
  0.333333  0.333333  0.500000      2.000000
  0.333333 -0.333333  0.500000      2.000000
  0.500000  0.333333  0.500000      2.000000
  0.000000  0.500000  0.500000      1.000000
  0.166667  0.500000  0.500000      2.000000
  0.333333  0.500000  0.500000      2.000000
  0.500000  0.500000  0.500000      1.000000
 
 Following cartesian coordinates:
            Coordinates               Weight
  0.000000  0.000000  0.000000      1.000000
  0.043199  0.000000  0.000000      2.000000
  0.086398  0.000000  0.000000      2.000000
  0.129597  0.000000  0.000000      1.000000
  0.000000  0.036820  0.000000      2.000000
  0.043199  0.036820  0.000000      2.000000
  0.043199 -0.036820  0.000000      2.000000
  0.086398  0.036820  0.000000      2.000000
  0.086398 -0.036820  0.000000      2.000000
  0.129597  0.036820  0.000000      2.000000
  0.000000  0.073639  0.000000      2.000000
  0.043199  0.073639  0.000000      2.000000
  0.043199 -0.073639  0.000000      2.000000
  0.086398  0.073639  0.000000      2.000000
  0.086398 -0.073639  0.000000      2.000000
  0.129597  0.073639  0.000000      2.000000
  0.000000  0.110459  0.000000      1.000000
  0.043199  0.110459  0.000000      2.000000
  0.086398  0.110459  0.000000      2.000000
  0.129597  0.110459  0.000000      1.000000
  0.000000  0.000000  0.047236      1.000000
  0.043199  0.000000  0.047236      2.000000
  0.086398  0.000000  0.047236      2.000000
  0.129597  0.000000  0.047236      1.000000
  0.000000  0.036820  0.047236      2.000000
  0.043199  0.036820  0.047236      2.000000
  0.043199 -0.036820  0.047236      2.000000
  0.086398  0.036820  0.047236      2.000000
  0.086398 -0.036820  0.047236      2.000000
  0.129597  0.036820  0.047236      2.000000
  0.000000  0.073639  0.047236      2.000000
  0.043199  0.073639  0.047236      2.000000
  0.043199 -0.073639  0.047236      2.000000
  0.086398  0.073639  0.047236      2.000000
  0.086398 -0.073639  0.047236      2.000000
  0.129597  0.073639  0.047236      2.000000
  0.000000  0.110459  0.047236      1.000000
  0.043199  0.110459  0.047236      2.000000
  0.086398  0.110459  0.047236      2.000000
  0.129597  0.110459  0.047236      1.000000
 


--------------------------------------------------------------------------------------------------------




 Dimension of arrays:
   k-points           NKPTS =     40   k-points in BZ     NKDIM =     40   number of bands    NBANDS=     32
   number of dos      NEDOS =    301   number of ions     NIONS =      8
   non local maximal  LDIM  =      5   non local SUM 2l+1 LMDIM =     13
   total plane-waves  NPLWV =  21600
   max r-space proj   IRMAX =      1   max aug-charges    IRDMAX=   6549
   dimension x,y,z NGX =    18 NGY =   24 NGZ =   50
   dimension x,y,z NGXF=    36 NGYF=   48 NGZF=  100
   support grid    NGXF=    36 NGYF=   48 NGZF=  100
   ions per type =               4   4
   NGX,Y,Z   is equivalent  to a cutoff of   7.76,  8.81,  7.85 a.u.
   NGXF,Y,Z  is equivalent  to a cutoff of  15.51, 17.63, 15.71 a.u.

 SYSTEM =  ./                                      
 POSCAR =  Ge Se                                   

 Startparameter for this run:
   NWRITE =      2    write-flag & timer
   PREC   = normal    normal or accurate (medium, high low for compatibility)
   ISTART =      0    job   : 0-new  1-cont  2-samecut
   ICHARG =      2    charge: 1-file 2-atom 10-const
   ISPIN  =      1    spin polarized calculation?
   LNONCOLLINEAR =      F non collinear calculations
   LSORBIT =      F    spin-orbit coupling
   INIWAV =      1    electr: 0-lowe 1-rand  2-diag
   LASPH  =      T    aspherical Exc in radial PAW
 Electronic Relaxation 1
   ENCUT  =  360.0 eV  26.46 Ry    5.14 a.u.   5.97  7.00 16.38*2*pi/ulx,y,z
   ENINI  =  360.0     initial cutoff
   ENAUG  =  446.8 eV  augmentation charge cutoff
   NELM   =    100;   NELMIN=  2; NELMDL= -5     # of ELM steps 
   EDIFF  = 0.1E-05   stopping-criterion for ELM
   LREAL  =      F    real-space projection
   NLSPLINE    = F    spline interpolate recip. space projectors
   LCOMPAT=      F    compatible to vasp.4.4
   GGA_COMPAT  = T    GGA compatible to vasp.4.4-vasp.4.6
   LMAXPAW     = -100 max onsite density
   LMAXMIX     =    4 max onsite mixed and CHGCAR
   VOSKOWN=      0    Vosko Wilk Nusair interpolation
   ROPT   =    0.00000   0.00000
 Ionic relaxation
   EDIFFG = 0.1E-04   stopping-criterion for IOM
   NSW    =      0    number of steps for IOM
   NBLOCK =      1;   KBLOCK =      1    inner block; outer block 
   IBRION =     -1    ionic relax: 0-MD 1-quasi-New 2-CG
   NFREE  =      0    steps in history (QN), initial steepest desc. (CG)
   ISIF   =      2    stress and relaxation
   IWAVPR =     10    prediction:  0-non 1-charg 2-wave 3-comb
   ISYM   =      0    0-nonsym 1-usesym 2-fastsym
   LCORR  =      T    Harris-Foulkes like correction to forces

   POTIM  = 0.5000    time-step for ionic-motion
   TEIN   =    0.0    initial temperature
   TEBEG  =    0.0;   TEEND  =   0.0 temperature during run
   SMASS  =  -3.00    Nose mass-parameter (am)
   estimated Nose-frequenzy (Omega)   =  0.10E-29 period in steps = 0.13E+47 mass=  -0.340E-27a.u.
   SCALEE = 1.0000    scale energy and forces
   NPACO  =    256;   APACO  = 10.0  distance and # of slots for P.C.
   PSTRESS=    0.0 pullay stress

  Mass of Ions in am
   POMASS =  72.61 78.96
  Ionic Valenz
   ZVAL   =   4.00  6.00
  Atomic Wigner-Seitz radii
   RWIGS  =  -1.00 -1.00
  virtual crystal weights 
   VCA    =   1.00  1.00
   NELECT =      40.0000    total number of electrons
   NUPDOWN=      -1.0000    fix difference up-down

 DOS related values:
   EMIN   =  10.00;   EMAX   =-10.00  energy-range for DOS
   EFERMI =   0.00;   METHOD = LEGACY      
   ISMEAR =     0;   SIGMA  =   0.05  broadening in eV -4-tet -1-fermi 0-gaus

 Electronic relaxation 2 (details)
   IALGO  =     38    algorithm
   LDIAG  =      T    sub-space diagonalisation (order eigenvalues)
   LSUBROT=      F    optimize rotation matrix (better conditioning)
   TURBO    =      0    0=normal 1=particle mesh
   IRESTART =      0    0=no restart 2=restart with 2 vectors
   NREBOOT  =      0    no. of reboots
   NMIN     =      0    reboot dimension
   EREF     =   0.00    reference energy to select bands
   IMIX   =      4    mixing-type and parameters
     AMIX     =   0.40;   BMIX     =  1.00
     AMIX_MAG =   1.60;   BMIX_MAG =  1.00
     AMIN     =   0.10
     WC   =   100.;   INIMIX=   1;  MIXPRE=   1;  MAXMIX= -45

 Intra band minimization:
   WEIMIN = 0.0000     energy-eigenvalue tresh-hold
   EBREAK =  0.78E-08  absolut break condition
   DEPER  =   0.30     relativ break condition  

   TIME   =   0.40     timestep for ELM

  volume/ion in A,a.u.               =      23.11       155.94
  Fermi-wavevector in a.u.,A,eV,Ry     =   0.982836  1.857291 13.142773  0.965967
  Thomas-Fermi vector in A             =   2.113949
 
 Write flags
   LWAVE        =      F    write WAVECAR
   LDOWNSAMPLE  =      F    k-point downsampling of WAVECAR
   LCHARG       =      F    write CHGCAR
   LVTOT        =      F    write LOCPOT, total local potential
   LVHAR        =      F    write LOCPOT, Hartree potential only
   LELF         =      F    write electronic localiz. function (ELF)
   LORBIT       =      0    0 simple, 1 ext, 2 COOP (PROOUT), +10 PAW based schemes


 Dipole corrections
   LMONO  =      F    monopole corrections only (constant potential shift)
   LDIPOL =      F    correct potential (dipole corrections)
   IDIPOL =      0    1-x, 2-y, 3-z, 4-all directions 
   EPSILON=  1.0000000 bulk dielectric constant

 Exchange correlation treatment:
   GGA     =    PE    GGA type
   LEXCH   =     8    internal setting for exchange type
   LIBXC   =     F    Libxc                    
   VOSKOWN =     0    Vosko Wilk Nusair interpolation
   LHFCALC =     F    Hartree Fock is set to
   LHFONE  =     F    Hartree Fock one center treatment
   AEXX    =    0.0000 exact exchange contribution

 Linear response parameters
   LEPSILON=     F    determine dielectric tensor
   LRPA    =     F    only Hartree local field effects (RPA)
   LNABLA  =     F    use nabla operator in PAW spheres
   LVEL    =     F    velocity operator in full k-point grid
   CSHIFT  =0.1000    complex shift for real part using Kramers Kronig
   OMEGAMAX=  -1.0    maximum frequency
   DEG_THRESHOLD= 0.2000000E-02 threshold for treating states as degnerate
   RTIME   =   -0.100 relaxation time in fs
  (WPLASMAI=    0.000 imaginary part of plasma frequency in eV, 0.658/RTIME)
   DFIELD  = 0.0000000 0.0000000 0.0000000 field for delta impulse in time
 
  Optional k-point grid parameters
   LKPOINTS_OPT  =     F    use optional k-point grid
   KPOINTS_OPT_MODE=     1    mode for optional k-point grid
 
 Orbital magnetization related:
   ORBITALMAG=     F  switch on orbital magnetization
   LCHIMAG   =     F  perturbation theory with respect to B field
   DQ        =  0.001000  dq finite difference perturbation B field
   LLRAUG    =     F  two centre corrections for induced B field
   LBONE     =     F  B-component reconstruction in AE one-centre
   LVGVCALC  =     T  calculate vGv susceptibility
   LVGVAPPL  =     F  apply vGv susceptibility instead of pGv for G=0

 Random number generation:
   RANDOM_GENERATOR = DEFAULT
   PCG_SEED         = not used


--------------------------------------------------------------------------------------------------------


 Static calculation
 charge density and potential will be updated during run
 non-spin polarized calculation
 Variant of blocked Davidson
 Davidson routine will perform the subspace rotation
 perform sub-space diagonalisation
    after iterative eigenvector-optimisation
 modified Broyden-mixing scheme, WC =      100.0
 initial mixing is a Kerker type mixing with AMIX =  0.4000 and BMIX =      1.0000
 Hartree-type preconditioning will be used
 using additional bands            12
 reciprocal scheme for non local part
 use partial core corrections
 calculate Harris-corrections to forces 
   (improved forces if not selfconsistent)
 use gradient corrections 
 use of overlap-Matrix (Vanderbilt PP)
 Gauss-broadening in eV      SIGMA  =   0.05


--------------------------------------------------------------------------------------------------------


  energy-cutoff  :      360.00
  volume of cell :      184.86
      direct lattice vectors                 reciprocal lattice vectors
     3.858100176  0.000000000  0.000000000     0.259194929  0.000000000  0.000000000
     0.000000000  4.526575088  0.000000000     0.000000000  0.220917577  0.000000000
     0.000000000  0.000000000 10.585176468     0.000000000  0.000000000  0.094471736

  length of vectors
     3.858100176  4.526575088 10.585176468     0.259194929  0.220917577  0.094471736


 
 k-points in units of 2pi/SCALE and weight: KPOINTS created by Atomic Simulation Env
   0.00000000  0.00000000  0.00000000       0.014
   0.04319915  0.00000000  0.00000000       0.028
   0.08639831  0.00000000  0.00000000       0.028
   0.12959746  0.00000000  0.00000000       0.014
   0.00000000  0.03681960  0.00000000       0.028
   0.04319915  0.03681960  0.00000000       0.028
   0.04319915 -0.03681960  0.00000000       0.028
   0.08639831  0.03681960  0.00000000       0.028
   0.08639831 -0.03681960  0.00000000       0.028
   0.12959746  0.03681960  0.00000000       0.028
   0.00000000  0.07363919  0.00000000       0.028
   0.04319915  0.07363919  0.00000000       0.028
   0.04319915 -0.07363919  0.00000000       0.028
   0.08639831  0.07363919  0.00000000       0.028
   0.08639831 -0.07363919  0.00000000       0.028
   0.12959746  0.07363919  0.00000000       0.028
   0.00000000  0.11045879  0.00000000       0.014
   0.04319915  0.11045879  0.00000000       0.028
   0.08639831  0.11045879  0.00000000       0.028
   0.12959746  0.11045879  0.00000000       0.014
   0.00000000  0.00000000  0.04723587       0.014
   0.04319915  0.00000000  0.04723587       0.028
   0.08639831  0.00000000  0.04723587       0.028
   0.12959746  0.00000000  0.04723587       0.014
   0.00000000  0.03681960  0.04723587       0.028
   0.04319915  0.03681960  0.04723587       0.028
   0.04319915 -0.03681960  0.04723587       0.028
   0.08639831  0.03681960  0.04723587       0.028
   0.08639831 -0.03681960  0.04723587       0.028
   0.12959746  0.03681960  0.04723587       0.028
   0.00000000  0.07363919  0.04723587       0.028
   0.04319915  0.07363919  0.04723587       0.028
   0.04319915 -0.07363919  0.04723587       0.028
   0.08639831  0.07363919  0.04723587       0.028
   0.08639831 -0.07363919  0.04723587       0.028
   0.12959746  0.07363919  0.04723587       0.028
   0.00000000  0.11045879  0.04723587       0.014
   0.04319915  0.11045879  0.04723587       0.028
   0.08639831  0.11045879  0.04723587       0.028
   0.12959746  0.11045879  0.04723587       0.014
 
 k-points in reciprocal lattice and weights: KPOINTS created by Atomic Simulation Env
   0.00000000  0.00000000  0.00000000       0.014
   0.16666667  0.00000000  0.00000000       0.028
   0.33333333  0.00000000  0.00000000       0.028
   0.50000000  0.00000000  0.00000000       0.014
   0.00000000  0.16666667  0.00000000       0.028
   0.16666667  0.16666667  0.00000000       0.028
   0.16666667 -0.16666667  0.00000000       0.028
   0.33333333  0.16666667  0.00000000       0.028
   0.33333333 -0.16666667  0.00000000       0.028
   0.50000000  0.16666667  0.00000000       0.028
   0.00000000  0.33333333  0.00000000       0.028
   0.16666667  0.33333333  0.00000000       0.028
   0.16666667 -0.33333333  0.00000000       0.028
   0.33333333  0.33333333  0.00000000       0.028
   0.33333333 -0.33333333  0.00000000       0.028
   0.50000000  0.33333333  0.00000000       0.028
   0.00000000  0.50000000  0.00000000       0.014
   0.16666667  0.50000000  0.00000000       0.028
   0.33333333  0.50000000  0.00000000       0.028
   0.50000000  0.50000000  0.00000000       0.014
   0.00000000  0.00000000  0.50000000       0.014
   0.16666667  0.00000000  0.50000000       0.028
   0.33333333  0.00000000  0.50000000       0.028
   0.50000000  0.00000000  0.50000000       0.014
   0.00000000  0.16666667  0.50000000       0.028
   0.16666667  0.16666667  0.50000000       0.028
   0.16666667 -0.16666667  0.50000000       0.028
   0.33333333  0.16666667  0.50000000       0.028
   0.33333333 -0.16666667  0.50000000       0.028
   0.50000000  0.16666667  0.50000000       0.028
   0.00000000  0.33333333  0.50000000       0.028
   0.16666667  0.33333333  0.50000000       0.028
   0.16666667 -0.33333333  0.50000000       0.028
   0.33333333  0.33333333  0.50000000       0.028
   0.33333333 -0.33333333  0.50000000       0.028
   0.50000000  0.33333333  0.50000000       0.028
   0.00000000  0.50000000  0.50000000       0.014
   0.16666667  0.50000000  0.50000000       0.028
   0.33333333  0.50000000  0.50000000       0.028
   0.50000000  0.50000000  0.50000000       0.014
 
 position of ions in fractional coordinates (direct lattice) 
   0.13405768  0.64093525  0.11629323
   0.63405773  0.14093528  0.38370666
   0.74999953  0.88080355  0.88370670
   0.24999891  0.38080359  0.61629330
   0.13405775  0.51668034  0.35452175
   0.63405763  0.01668044  0.14547826
   0.74999912  0.00505836  0.64547820
   0.24999942  0.50505845  0.85452174
 
 position of ions in cartesian coordinates  (Angst):
   0.51720796  2.90124155  1.23098441
   2.44625823  0.63795412  4.06160274
   2.89357331  3.98702340  9.35419135
   0.96452085  1.72373604  6.52357335
   0.51720824  2.33879236  3.75267533
   2.44625786  0.07550527  1.53991301
   2.89357173  0.02289706  6.83250071
   0.96452282  2.28618498  9.04526339
 


--------------------------------------------------------------------------------------------------------


 k-point   1 :   0.0000 0.0000 0.0000  plane waves:    2825
 k-point   2 :   0.1667 0.0000 0.0000  plane waves:    2856
 k-point   3 :   0.3333 0.0000 0.0000  plane waves:    2864
 k-point   4 :   0.5000 0.0000 0.0000  plane waves:    2880
 k-point   5 :   0.0000 0.1667 0.0000  plane waves:    2850
 k-point   6 :   0.1667 0.1667 0.0000  plane waves:    2853
 k-point   7 :   0.1667-0.1667 0.0000  plane waves:    2853
 k-point   8 :   0.3333 0.1667 0.0000  plane waves:    2873
 k-point   9 :   0.3333-0.1667 0.0000  plane waves:    2873
 k-point  10 :   0.5000 0.1667 0.0000  plane waves:    2866
 k-point  11 :   0.0000 0.3333 0.0000  plane waves:    2864
 k-point  12 :   0.1667 0.3333 0.0000  plane waves:    2871
 k-point  13 :   0.1667-0.3333 0.0000  plane waves:    2871
 k-point  14 :   0.3333 0.3333 0.0000  plane waves:    2883
 k-point  15 :   0.3333-0.3333 0.0000  plane waves:    2883
 k-point  16 :   0.5000 0.3333 0.0000  plane waves:    2880
 k-point  17 :   0.0000 0.5000 0.0000  plane waves:    2874
 k-point  18 :   0.1667 0.5000 0.0000  plane waves:    2880
 k-point  19 :   0.3333 0.5000 0.0000  plane waves:    2888
 k-point  20 :   0.5000 0.5000 0.0000  plane waves:    2896
 k-point  21 :   0.0000 0.0000 0.5000  plane waves:    2828
 k-point  22 :   0.1667 0.0000 0.5000  plane waves:    2838
 k-point  23 :   0.3333 0.0000 0.5000  plane waves:    2868
 k-point  24 :   0.5000 0.0000 0.5000  plane waves:    2852
 k-point  25 :   0.0000 0.1667 0.5000  plane waves:    2846
 k-point  26 :   0.1667 0.1667 0.5000  plane waves:    2868
 k-point  27 :   0.1667-0.1667 0.5000  plane waves:    2868
 k-point  28 :   0.3333 0.1667 0.5000  plane waves:    2866
 k-point  29 :   0.3333-0.1667 0.5000  plane waves:    2866
 k-point  30 :   0.5000 0.1667 0.5000  plane waves:    2884
 k-point  31 :   0.0000 0.3333 0.5000  plane waves:    2852
 k-point  32 :   0.1667 0.3333 0.5000  plane waves:    2862
 k-point  33 :   0.1667-0.3333 0.5000  plane waves:    2862
 k-point  34 :   0.3333 0.3333 0.5000  plane waves:    2874
 k-point  35 :   0.3333-0.3333 0.5000  plane waves:    2874
 k-point  36 :   0.5000 0.3333 0.5000  plane waves:    2892
 k-point  37 :   0.0000 0.5000 0.5000  plane waves:    2872
 k-point  38 :   0.1667 0.5000 0.5000  plane waves:    2856
 k-point  39 :   0.3333 0.5000 0.5000  plane waves:    2876
 k-point  40 :   0.5000 0.5000 0.5000  plane waves:    2872

 maximum and minimum number of plane-waves per node :       592      553

 maximum number of plane-waves:      2896
 maximum index in each direction: 
   IXMAX=    5   IYMAX=    7   IZMAX=   16
   IXMIN=   -6   IYMIN=   -7   IZMIN=  -16


 parallel 3D FFT for wavefunctions:
    minimum data exchange during FFTs selected (reduces bandwidth)
 parallel 3D FFT for charge:
    minimum data exchange during FFTs selected (reduces bandwidth)


 total amount of memory used by VASP MPI-rank0    36587. kBytes
=======================================================================

   base      :      30000. kBytes
   nonl-proj :       5001. kBytes
   fftplans  :        306. kBytes
   grid      :        466. kBytes
   one-center:         16. kBytes
   wavefun   :        798. kBytes
 
     INWAV:  cpu time      0.0000: real time      0.0001
 Broyden mixing: mesh for mixing (old mesh)
   NGX = 11   NGY = 15   NGZ = 33
  (NGX  = 36   NGY  = 48   NGZ  =100)
  gives a total of   5445 points

 initial charge density was supplied:
 charge density of overlapping atoms calculated
 number of electron      40.0000000 magnetization 
 keeping initial charge density in first step


--------------------------------------------------------------------------------------------------------


 Maximum index for augmentation-charges           345 (set IRDMAX)


--------------------------------------------------------------------------------------------------------


 First call to EWALD:  gamma=   0.311
 Maximum number of real-space cells 4x 3x 2
 Maximum number of reciprocal cells 2x 2x 5

    FEWALD:  cpu time      0.0011: real time      0.0011


--------------------------------------- Ionic step        1  -------------------------------------------




--------------------------------------- Iteration      1(   1)  ---------------------------------------


    POTLOK:  cpu time      0.0080: real time      0.0081
    SETDIJ:  cpu time      0.2196: real time      0.2200
     EDDAV:  cpu time      0.3061: real time      0.3078
       DOS:  cpu time      0.0011: real time      0.0011
    --------------------------------------------
      LOOP:  cpu time      0.5348: real time      0.5371

 eigenvalue-minimisations  :  2560
 total energy-change (2. order) : 0.1324009E+03  (-0.1301500E+04)
 number of electron      40.0000000 magnetization 
 augmentation part       40.0000000 magnetization 

 Free energy of the ion-electron system (eV)
  ---------------------------------------------------
  alpha Z        PSCENC =        91.66130333
  Ewald energy   TEWEN  =     -1440.49755531
  -Hartree energ DENC   =      -121.66614911
  -exchange      EXHF   =         0.00000000
  -V(xc)+E(xc)   XCENC  =       -32.53211363
  PAW double counting   =      1193.78262552    -1080.73714043
  entropy T*S    EENTRO =        -0.00346773
  eigenvalues    EBANDS =        73.90883169
  atomic energy  EATOM  =      1448.48460880
  Solvation  Ediel_sol  =         0.00000000
  ---------------------------------------------------
  free energy    TOTEN  =       132.40094312 eV

  energy without entropy =      132.40441085  energy(sigma->0) =      132.40267699


--------------------------------------------------------------------------------------------------------




--------------------------------------- Iteration      1(   2)  ---------------------------------------


     EDDAV:  cpu time      0.4293: real time      0.4330
       DOS:  cpu time      0.0011: real time      0.0011
    --------------------------------------------
      LOOP:  cpu time      0.4304: real time      0.4340

 eigenvalue-minimisations  :  3776
 total energy-change (2. order) :-0.1569303E+03  (-0.1527996E+03)
 number of electron      40.0000000 magnetization 
 augmentation part       40.0000000 magnetization 

 Free energy of the ion-electron system (eV)
  ---------------------------------------------------
  alpha Z        PSCENC =        91.66130333
  Ewald energy   TEWEN  =     -1440.49755531
  -Hartree energ DENC   =      -121.66614911
  -exchange      EXHF   =         0.00000000
  -V(xc)+E(xc)   XCENC  =       -32.53211363
  PAW double counting   =      1193.78262552    -1080.73714043
  entropy T*S    EENTRO =        -0.00208828
  eigenvalues    EBANDS =       -83.02286693
  atomic energy  EATOM  =      1448.48460880
  Solvation  Ediel_sol  =         0.00000000
  ---------------------------------------------------
  free energy    TOTEN  =       -24.52937605 eV

  energy without entropy =      -24.52728776  energy(sigma->0) =      -24.52833191


--------------------------------------------------------------------------------------------------------




--------------------------------------- Iteration      1(   3)  ---------------------------------------


     EDDAV:  cpu time      0.3575: real time      0.3593
       DOS:  cpu time      0.0010: real time      0.0010
    --------------------------------------------
      LOOP:  cpu time      0.3584: real time      0.3602

 eigenvalue-minimisations  :  3136
 total energy-change (2. order) :-0.8351056E+01  (-0.8331007E+01)
 number of electron      40.0000000 magnetization 
 augmentation part       40.0000000 magnetization 

 Free energy of the ion-electron system (eV)
  ---------------------------------------------------
  alpha Z        PSCENC =        91.66130333
  Ewald energy   TEWEN  =     -1440.49755531
  -Hartree energ DENC   =      -121.66614911
  -exchange      EXHF   =         0.00000000
  -V(xc)+E(xc)   XCENC  =       -32.53211363
  PAW double counting   =      1193.78262552    -1080.73714043
  entropy T*S    EENTRO =        -0.00142433
  eigenvalues    EBANDS =       -91.37458650
  atomic energy  EATOM  =      1448.48460880
  Solvation  Ediel_sol  =         0.00000000
  ---------------------------------------------------
  free energy    TOTEN  =       -32.88043166 eV

  energy without entropy =      -32.87900734  energy(sigma->0) =      -32.87971950


--------------------------------------------------------------------------------------------------------




--------------------------------------- Iteration      1(   4)  ---------------------------------------


     EDDAV:  cpu time      0.4495: real time      0.4521
       DOS:  cpu time      0.0119: real time      0.0120
    --------------------------------------------
      LOOP:  cpu time      0.4614: real time      0.4641

 eigenvalue-minimisations  :  3408
 total energy-change (2. order) :-0.5715751E-01  (-0.5714550E-01)
 number of electron      40.0000000 magnetization 
 augmentation part       40.0000000 magnetization 

 Free energy of the ion-electron system (eV)
  ---------------------------------------------------
  alpha Z        PSCENC =        91.66130333
  Ewald energy   TEWEN  =     -1440.49755531
  -Hartree energ DENC   =      -121.66614911
  -exchange      EXHF   =         0.00000000
  -V(xc)+E(xc)   XCENC  =       -32.53211363
  PAW double counting   =      1193.78262552    -1080.73714043
  entropy T*S    EENTRO =        -0.00142320
  eigenvalues    EBANDS =       -91.43174513
  atomic energy  EATOM  =      1448.48460880
  Solvation  Ediel_sol  =         0.00000000
  ---------------------------------------------------
  free energy    TOTEN  =       -32.93758917 eV

  energy without entropy =      -32.93616596  energy(sigma->0) =      -32.93687757


--------------------------------------------------------------------------------------------------------




--------------------------------------- Iteration      1(   5)  ---------------------------------------


     EDDAV:  cpu time      0.3953: real time      0.3975
       DOS:  cpu time      0.0010: real time      0.0010
    CHARGE:  cpu time      0.0054: real time      0.0055
    MIXING:  cpu time      0.0004: real time      0.0004
    --------------------------------------------
      LOOP:  cpu time      0.4021: real time      0.4044

 eigenvalue-minimisations  :  3104
 total energy-change (2. order) :-0.3753110E-03  (-0.3753016E-03)
 number of electron      40.0000032 magnetization 
 augmentation part       -7.4585342 magnetization 

 Broyden mixing:
  rms(total) = 0.72148E+00    rms(broyden)= 0.72147E+00
  rms(prec ) = 0.78914E+00
  weight for this iteration     100.00

 Free energy of the ion-electron system (eV)
  ---------------------------------------------------
  alpha Z        PSCENC =        91.66130333
  Ewald energy   TEWEN  =     -1440.49755531
  -Hartree energ DENC   =      -121.66614911
  -exchange      EXHF   =         0.00000000
  -V(xc)+E(xc)   XCENC  =       -32.53211363
  PAW double counting   =      1193.78262552    -1080.73714043
  entropy T*S    EENTRO =        -0.00142318
  eigenvalues    EBANDS =       -91.43212046
  atomic energy  EATOM  =      1448.48460880
  Solvation  Ediel_sol  =         0.00000000
  ---------------------------------------------------
  free energy    TOTEN  =       -32.93796448 eV

  energy without entropy =      -32.93654130  energy(sigma->0) =      -32.93725289


--------------------------------------------------------------------------------------------------------




--------------------------------------- Iteration      1(   6)  ---------------------------------------


    POTLOK:  cpu time      0.0075: real time      0.0077
    SETDIJ:  cpu time      0.2169: real time      0.2175
     EDDAV:  cpu time      0.3840: real time      0.3860
       DOS:  cpu time      0.0010: real time      0.0010
    CHARGE:  cpu time      0.0051: real time      0.0052
    MIXING:  cpu time      0.0004: real time      0.0004
    --------------------------------------------
      LOOP:  cpu time      0.6150: real time      0.6178

 eigenvalue-minimisations  :  3312
 total energy-change (2. order) : 0.3033779E+00  (-0.6247487E-01)
 number of electron      40.0000031 magnetization 
 augmentation part       -7.4027492 magnetization 

 Broyden mixing:
  rms(total) = 0.45462E+00    rms(broyden)= 0.45462E+00
  rms(prec ) = 0.47275E+00
  weight for this iteration     100.00

 eigenvalues of (default mixing * dielectric matrix)
  average eigenvalue GAMMA=   2.3617
  2.3617

 Free energy of the ion-electron system (eV)
  ---------------------------------------------------
  alpha Z        PSCENC =        91.66130333
  Ewald energy   TEWEN  =     -1440.49755531
  -Hartree energ DENC   =      -127.18737579
  -exchange      EXHF   =         0.00000000
  -V(xc)+E(xc)   XCENC  =       -31.97381795
  PAW double counting   =      1489.60918319    -1376.89981158
  entropy T*S    EENTRO =        -0.00176183
  eigenvalues    EBANDS =       -85.82935945
  atomic energy  EATOM  =      1448.48460880
  Solvation  Ediel_sol  =         0.00000000
  ---------------------------------------------------
  free energy    TOTEN  =       -32.63458659 eV

  energy without entropy =      -32.63282476  energy(sigma->0) =      -32.63370567


--------------------------------------------------------------------------------------------------------




--------------------------------------- Iteration      1(   7)  ---------------------------------------


    POTLOK:  cpu time      0.0073: real time      0.0074
    SETDIJ:  cpu time      0.2152: real time      0.2158
     EDDAV:  cpu time      0.3697: real time      0.3715
       DOS:  cpu time      0.0010: real time      0.0010
    CHARGE:  cpu time      0.0051: real time      0.0051
    MIXING:  cpu time      0.0004: real time      0.0004
    --------------------------------------------
      LOOP:  cpu time      0.5987: real time      0.6013

 eigenvalue-minimisations  :  3184
 total energy-change (2. order) : 0.1181972E-01  (-0.1912116E-01)
 number of electron      40.0000031 magnetization 
 augmentation part       -7.3811980 magnetization 

 Broyden mixing:
  rms(total) = 0.11008E+00    rms(broyden)= 0.11008E+00
  rms(prec ) = 0.11817E+00
  weight for this iteration     100.00

 eigenvalues of (default mixing * dielectric matrix)
  average eigenvalue GAMMA=   1.8021
  1.2001  2.4041

 Free energy of the ion-electron system (eV)
  ---------------------------------------------------
  alpha Z        PSCENC =        91.66130333
  Ewald energy   TEWEN  =     -1440.49755531
  -Hartree energ DENC   =      -130.35006147
  -exchange      EXHF   =         0.00000000
  -V(xc)+E(xc)   XCENC  =       -31.48801212
  PAW double counting   =      1898.26169189    -1785.84833843
  entropy T*S    EENTRO =        -0.00188729
  eigenvalues    EBANDS =       -82.84451627
  atomic energy  EATOM  =      1448.48460880
  Solvation  Ediel_sol  =         0.00000000
  ---------------------------------------------------
  free energy    TOTEN  =       -32.62276687 eV

  energy without entropy =      -32.62087959  energy(sigma->0) =      -32.62182323


--------------------------------------------------------------------------------------------------------




--------------------------------------- Iteration      1(   8)  ---------------------------------------


    POTLOK:  cpu time      0.0073: real time      0.0074
    SETDIJ:  cpu time      0.2184: real time      0.2190
     EDDAV:  cpu time      0.3544: real time      0.3568
       DOS:  cpu time      0.0010: real time      0.0010
    CHARGE:  cpu time      0.0052: real time      0.0052
    MIXING:  cpu time      0.0005: real time      0.0005
    --------------------------------------------
      LOOP:  cpu time      0.5867: real time      0.5899

 eigenvalue-minimisations  :  2928
 total energy-change (2. order) : 0.2017664E-02  (-0.1876556E-02)
 number of electron      40.0000031 magnetization 
 augmentation part       -7.3890104 magnetization 

 Broyden mixing:
  rms(total) = 0.16670E-01    rms(broyden)= 0.16670E-01
  rms(prec ) = 0.19659E-01
  weight for this iteration     100.00

 eigenvalues of (default mixing * dielectric matrix)
  average eigenvalue GAMMA=   1.6947
  2.5031  1.2905  1.2905

 Free energy of the ion-electron system (eV)
  ---------------------------------------------------
  alpha Z        PSCENC =        91.66130333
  Ewald energy   TEWEN  =     -1440.49755531
  -Hartree energ DENC   =      -130.32446096
  -exchange      EXHF   =         0.00000000
  -V(xc)+E(xc)   XCENC  =       -31.39725936
  PAW double counting   =      2016.73409208    -1904.37045305
  entropy T*S    EENTRO =        -0.00181350
  eigenvalues    EBANDS =       -82.90921123
  atomic energy  EATOM  =      1448.48460880
  Solvation  Ediel_sol  =         0.00000000
  ---------------------------------------------------
  free energy    TOTEN  =       -32.62074921 eV

  energy without entropy =      -32.61893571  energy(sigma->0) =      -32.61984246


--------------------------------------------------------------------------------------------------------




--------------------------------------- Iteration      1(   9)  ---------------------------------------


    POTLOK:  cpu time      0.0072: real time      0.0073
    SETDIJ:  cpu time      0.2157: real time      0.2164
     EDDAV:  cpu time      0.3986: real time      0.4003
       DOS:  cpu time      0.0010: real time      0.0010
    CHARGE:  cpu time      0.0052: real time      0.0052
    MIXING:  cpu time      0.0005: real time      0.0005
    --------------------------------------------
      LOOP:  cpu time      0.6283: real time      0.6308

 eigenvalue-minimisations  :  3136
 total energy-change (2. order) :-0.4455558E-03  (-0.2213421E-03)
 number of electron      40.0000031 magnetization 
 augmentation part       -7.3890476 magnetization 

 Broyden mixing:
  rms(total) = 0.65073E-02    rms(broyden)= 0.65073E-02
  rms(prec ) = 0.74039E-02
  weight for this iteration     100.00

 eigenvalues of (default mixing * dielectric matrix)
  average eigenvalue GAMMA=   1.6499
  2.3717  1.1834  1.1834  1.8610

 Free energy of the ion-electron system (eV)
  ---------------------------------------------------
  alpha Z        PSCENC =        91.66130333
  Ewald energy   TEWEN  =     -1440.49755531
  -Hartree energ DENC   =      -130.52719799
  -exchange      EXHF   =         0.00000000
  -V(xc)+E(xc)   XCENC  =       -31.36654878
  PAW double counting   =      2029.68690995    -1917.32997137
  entropy T*S    EENTRO =        -0.00181100
  eigenvalues    EBANDS =       -82.73093239
  atomic energy  EATOM  =      1448.48460880
  Solvation  Ediel_sol  =         0.00000000
  ---------------------------------------------------
  free energy    TOTEN  =       -32.62119476 eV

  energy without entropy =      -32.61938377  energy(sigma->0) =      -32.62028927


--------------------------------------------------------------------------------------------------------




--------------------------------------- Iteration      1(  10)  ---------------------------------------


    POTLOK:  cpu time      0.0074: real time      0.0075
    SETDIJ:  cpu time      0.2204: real time      0.2210
     EDDAV:  cpu time      0.3909: real time      0.3930
       DOS:  cpu time      0.0010: real time      0.0011
    CHARGE:  cpu time      0.0051: real time      0.0051
    MIXING:  cpu time      0.0005: real time      0.0005
    --------------------------------------------
      LOOP:  cpu time      0.6252: real time      0.6282

 eigenvalue-minimisations  :  3376
 total energy-change (2. order) :-0.1047693E-03  (-0.1764199E-04)
 number of electron      40.0000031 magnetization 
 augmentation part       -7.3887093 magnetization 

 Broyden mixing:
  rms(total) = 0.23936E-02    rms(broyden)= 0.23936E-02
  rms(prec ) = 0.30294E-02
  weight for this iteration     100.00

 eigenvalues of (default mixing * dielectric matrix)
  average eigenvalue GAMMA=   1.7576
  2.7002  2.4748  1.0535  1.2797  1.2797

 Free energy of the ion-electron system (eV)
  ---------------------------------------------------
  alpha Z        PSCENC =        91.66130333
  Ewald energy   TEWEN  =     -1440.49755531
  -Hartree energ DENC   =      -130.60342800
  -exchange      EXHF   =         0.00000000
  -V(xc)+E(xc)   XCENC  =       -31.35912556
  PAW double counting   =      2025.07495636    -1912.71501638
  entropy T*S    EENTRO =        -0.00180900
  eigenvalues    EBANDS =       -82.66523375
  atomic energy  EATOM  =      1448.48460880
  Solvation  Ediel_sol  =         0.00000000
  ---------------------------------------------------
  free energy    TOTEN  =       -32.62129953 eV

  energy without entropy =      -32.61949053  energy(sigma->0) =      -32.62039503


--------------------------------------------------------------------------------------------------------




--------------------------------------- Iteration      1(  11)  ---------------------------------------


    POTLOK:  cpu time      0.0072: real time      0.0074
    SETDIJ:  cpu time      0.2154: real time      0.2159
     EDDAV:  cpu time      0.3416: real time      0.3437
       DOS:  cpu time      0.0010: real time      0.0010
    CHARGE:  cpu time      0.0051: real time      0.0051
    MIXING:  cpu time      0.0005: real time      0.0005
    --------------------------------------------
      LOOP:  cpu time      0.5708: real time      0.5736

 eigenvalue-minimisations  :  2912
 total energy-change (2. order) :-0.3947263E-04  (-0.4977637E-05)
 number of electron      40.0000031 magnetization 
 augmentation part       -7.3888708 magnetization 

 Broyden mixing:
  rms(total) = 0.83079E-03    rms(broyden)= 0.83078E-03
  rms(prec ) = 0.96641E-03
  weight for this iteration     100.00

 eigenvalues of (default mixing * dielectric matrix)
  average eigenvalue GAMMA=   1.7030
  2.7365  2.4270  1.6171  0.9073  1.2651  1.2651

 Free energy of the ion-electron system (eV)
  ---------------------------------------------------
  alpha Z        PSCENC =        91.66130333
  Ewald energy   TEWEN  =     -1440.49755531
  -Hartree energ DENC   =      -130.63665237
  -exchange      EXHF   =         0.00000000
  -V(xc)+E(xc)   XCENC  =       -31.35291129
  PAW double counting   =      2025.38734563    -1913.02650588
  entropy T*S    EENTRO =        -0.00180618
  eigenvalues    EBANDS =       -82.63916573
  atomic energy  EATOM  =      1448.48460880
  Solvation  Ediel_sol  =         0.00000000
  ---------------------------------------------------
  free energy    TOTEN  =       -32.62133901 eV

  energy without entropy =      -32.61953282  energy(sigma->0) =      -32.62043591


--------------------------------------------------------------------------------------------------------




--------------------------------------- Iteration      1(  12)  ---------------------------------------


    POTLOK:  cpu time      0.0081: real time      0.0082
    SETDIJ:  cpu time      0.2147: real time      0.2154
     EDDAV:  cpu time      0.4234: real time      0.4254
       DOS:  cpu time      0.0010: real time      0.0010
    CHARGE:  cpu time      0.0053: real time      0.0053
    MIXING:  cpu time      0.0005: real time      0.0005
    --------------------------------------------
      LOOP:  cpu time      0.6530: real time      0.6558

 eigenvalue-minimisations  :  3616
 total energy-change (2. order) :-0.1844825E-05  (-0.4051311E-06)
 number of electron      40.0000031 magnetization 
 augmentation part       -7.3887818 magnetization 

 Broyden mixing:
  rms(total) = 0.40161E-03    rms(broyden)= 0.40161E-03
  rms(prec ) = 0.43658E-03
  weight for this iteration     100.00

 eigenvalues of (default mixing * dielectric matrix)
  average eigenvalue GAMMA=   1.7607
  3.0066  2.5685  2.0621  0.9827  1.2713  1.2167  1.2167

 Free energy of the ion-electron system (eV)
  ---------------------------------------------------
  alpha Z        PSCENC =        91.66130333
  Ewald energy   TEWEN  =     -1440.49755531
  -Hartree energ DENC   =      -130.65024049
  -exchange      EXHF   =         0.00000000
  -V(xc)+E(xc)   XCENC  =       -31.35174448
  PAW double counting   =      2025.23010293    -1912.86929045
  entropy T*S    EENTRO =        -0.00180577
  eigenvalues    EBANDS =       -82.62671940
  atomic energy  EATOM  =      1448.48460880
  Solvation  Ediel_sol  =         0.00000000
  ---------------------------------------------------
  free energy    TOTEN  =       -32.62134085 eV

  energy without entropy =      -32.61953508  energy(sigma->0) =      -32.62043796


--------------------------------------------------------------------------------------------------------




--------------------------------------- Iteration      1(  13)  ---------------------------------------


    POTLOK:  cpu time      0.0073: real time      0.0074
    SETDIJ:  cpu time      0.2153: real time      0.2159
     EDDAV:  cpu time      0.2864: real time      0.2883
       DOS:  cpu time      0.0010: real time      0.0010
    --------------------------------------------
      LOOP:  cpu time      0.5099: real time      0.5126

 eigenvalue-minimisations  :  2032
 total energy-change (2. order) :-0.1712409E-06  (-0.9777044E-07)
 number of electron      40.0000031 magnetization 
 augmentation part       -7.3887818 magnetization 

 Free energy of the ion-electron system (eV)
  ---------------------------------------------------
  alpha Z        PSCENC =        91.66130333
  Ewald energy   TEWEN  =     -1440.49755531
  -Hartree energ DENC   =      -130.65588965
  -exchange      EXHF   =         0.00000000
  -V(xc)+E(xc)   XCENC  =       -31.35138093
  PAW double counting   =      2024.84172744    -1912.48072352
  entropy T*S    EENTRO =        -0.00180534
  eigenvalues    EBANDS =       -82.62162584
  atomic energy  EATOM  =      1448.48460880
  Solvation  Ediel_sol  =         0.00000000
  ---------------------------------------------------
  free energy    TOTEN  =       -32.62134102 eV

  energy without entropy =      -32.61953569  energy(sigma->0) =      -32.62043835


--------------------------------------------------------------------------------------------------------




 average (electrostatic) potential at core
  the test charge radii are     1.1631  1.0808
  (the norm of the test charge is              1.0000)
       1 -32.9766       2 -32.9766       3 -32.9766       4 -32.9766       5 -54.6739
       6 -54.6739       7 -54.6739       8 -54.6739
 
 
 
 E-fermi :   4.3854     XC(G=0):  -9.4650     alpha+bet : -9.1315

 Fermi energy:         4.3854140819

 k-point     1 :       0.0000    0.0000    0.0000
  band No.  band energies     occupation 
      1     -10.8586      2.00000
      2     -10.3122      2.00000
      3      -9.6379      2.00000
      4      -8.9054      2.00000
      5      -4.6146      2.00000
      6      -3.6252      2.00000
      7      -2.7722      2.00000
      8      -2.6104      2.00000
      9      -1.1441      2.00000
     10      -0.2671      2.00000
     11       0.3164      2.00000
     12       0.5270      2.00000
     13       0.8020      2.00000
     14       0.9821      2.00000
     15       1.4193      2.00000
     16       1.6275      2.00000
     17       1.8678      2.00000
     18       2.2165      2.00000
     19       3.1905      2.00000
     20       3.6295      2.00000
     21       4.8392      0.00000
     22       5.4957      0.00000
     23       5.9460      0.00000
     24       6.4913      0.00000
     25       6.6295      0.00000
     26       7.4086      0.00000
     27       7.4683      0.00000
     28       8.3972      0.00000
     29       8.8017      0.00000
     30       8.9646      0.00000
     31       9.5798      0.00000
     32       9.6131      0.00000

 k-point     2 :       0.1667    0.0000    0.0000
  band No.  band energies     occupation 
      1     -10.6650      2.00000
      2     -10.1420      2.00000
      3      -9.5047      2.00000
      4      -8.8725      2.00000
      5      -4.8384      2.00000
      6      -3.8544      2.00000
      7      -3.1887      2.00000
      8      -2.6491      2.00000
      9      -1.4438      2.00000
     10      -0.1298      2.00000
     11      -0.0238      2.00000
     12       0.4793      2.00000
     13       0.8764      2.00000
     14       0.9241      2.00000
     15       1.3408      2.00000
     16       1.4631      2.00000
     17       1.6479      2.00000
     18       2.3909      2.00000
     19       3.3357      2.00000
     20       3.8792      2.00000
     21       4.6978      0.00000
     22       5.7456      0.00000
     23       6.2998      0.00000
     24       6.3608      0.00000
     25       6.6428      0.00000
     26       6.9511      0.00000
     27       7.3200      0.00000
     28       7.6743      0.00000
     29       8.3416      0.00000
     30       8.4329      0.00000
     31       9.3654      0.00000
     32       9.6455      0.00000

 k-point     3 :       0.3333    0.0000    0.0000
  band No.  band energies     occupation 
      1     -10.1315      2.00000
      2      -9.6990      2.00000
      3      -9.2467      2.00000
      4      -8.9438      2.00000
      5      -5.3039      2.00000
      6      -4.3396      2.00000
      7      -4.2378      2.00000
      8      -3.1673      2.00000
      9      -1.4250      2.00000
     10      -0.2333      2.00000
     11       0.2666      2.00000
     12       0.6193      2.00000
     13       0.9946      2.00000
     14       1.1639      2.00000
     15       1.3646      2.00000
     16       1.4294      2.00000
     17       1.4799      2.00000
     18       2.4858      2.00000
     19       3.5009      2.00000
     20       4.0331      2.00000
     21       4.5870      0.00000
     22       4.6538      0.00000
     23       5.1197      0.00000
     24       5.8748      0.00000
     25       5.9399      0.00000
     26       6.0404      0.00000
     27       6.2577      0.00000
     28       7.2847      0.00000
     29       7.4384      0.00000
     30       7.4985      0.00000
     31       8.9661      0.00000
     32       9.7558      0.00000

 k-point     4 :       0.5000    0.0000    0.0000
  band No.  band energies     occupation 
      1      -9.4490      2.00000
      2      -9.4489      2.00000
      3      -9.2455      2.00000
      4      -9.2455      2.00000
      5      -5.2537      2.00000
      6      -5.2537      2.00000
      7      -4.0250      2.00000
      8      -4.0250      2.00000
      9      -0.7018      2.00000
     10      -0.7018      2.00000
     11       0.8354      2.00000
     12       0.8354      2.00000
     13       1.0814      2.00000
     14       1.0814      2.00000
     15       1.2950      2.00000
     16       1.2950      2.00000
     17       2.0180      2.00000
     18       2.0180      2.00000
     19       3.6278      2.00000
     20       3.6278      2.00000
     21       4.4463      0.08493
     22       4.4463      0.08492
     23       5.3860      0.00000
     24       5.3860      0.00000
     25       5.5690      0.00000
     26       5.5690      0.00000
     27       6.1501      0.00000
     28       6.1501      0.00000
     29       6.5809      0.00000
     30       6.5809      0.00000
     31       9.1529      0.00000
     32       9.1529      0.00000

 k-point     5 :       0.0000    0.1667    0.0000
  band No.  band energies     occupation 
      1     -10.7413      2.00000
      2     -10.2131      2.00000
      3      -9.6314      2.00000
      4      -8.9968      2.00000
      5      -4.8121      2.00000
      6      -3.8369      2.00000
      7      -3.4964      2.00000
      8      -2.3526      2.00000
      9      -1.5186      2.00000
     10       0.2041      2.00000
     11       0.4462      2.00000
     12       0.7510      2.00000
     13       1.0441      2.00000
     14       1.2482      2.00000
     15       1.4250      2.00000
     16       1.5601      2.00000
     17       2.0829      2.00000
     18       2.3703      2.00000
     19       3.4011      2.00000
     20       4.0501      2.00000
     21       4.6421      0.00000
     22       5.5914      0.00000
     23       5.6520      0.00000
     24       6.1025      0.00000
     25       6.5888      0.00000
     26       6.9655      0.00000
     27       7.0003      0.00000
     28       7.9712      0.00000
     29       8.0696      0.00000
     30       8.6233      0.00000
     31       9.4355      0.00000
     32      10.0537      0.00000

 k-point     6 :       0.1667    0.1667    0.0000
  band No.  band energies     occupation 
      1     -10.5543      2.00000
      2     -10.0480      2.00000
      3      -9.5034      2.00000
      4      -8.9469      2.00000
      5      -4.9776      2.00000
      6      -3.8692      2.00000
      7      -3.4746      2.00000
      8      -2.8260      2.00000
      9      -1.5014      2.00000
     10      -0.6420      2.00000
     11      -0.1317      2.00000
     12       0.7355      2.00000
     13       1.0811      2.00000
     14       1.0920      2.00000
     15       1.2950      2.00000
     16       1.7796      2.00000
     17       1.8121      2.00000
     18       2.5768      2.00000
     19       3.5177      2.00000
     20       4.0381      2.00000
     21       4.6089      0.00000
     22       5.5654      0.00000
     23       5.7133      0.00000
     24       5.8143      0.00000
     25       7.0608      0.00000
     26       7.0849      0.00000
     27       7.1376      0.00000
     28       7.8376      0.00000
     29       7.9430      0.00000
     30       8.2113      0.00000
     31       9.5957      0.00000
     32       9.6368      0.00000

 k-point     7 :       0.1667   -0.1667    0.0000
  band No.  band energies     occupation 
      1     -10.5514      2.00000
      2     -10.0497      2.00000
      3      -9.4971      2.00000
      4      -8.9580      2.00000
      5      -4.8961      2.00000
      6      -3.9646      2.00000
      7      -3.7432      2.00000
      8      -2.3802      2.00000
      9      -1.5712      2.00000
     10      -0.7037      2.00000
     11       0.1077      2.00000
     12       0.5459      2.00000
     13       0.7941      2.00000
     14       1.2017      2.00000
     15       1.4642      2.00000
     16       1.5870      2.00000
     17       1.7238      2.00000
     18       2.6962      2.00000
     19       3.4208      2.00000
     20       4.2981      1.98652
     21       4.6144      0.00000
     22       5.2775      0.00000
     23       6.0465      0.00000
     24       6.1088      0.00000
     25       6.9057      0.00000
     26       6.9187      0.00000
     27       7.3541      0.00000
     28       7.4478      0.00000
     29       7.8674      0.00000
     30       8.4068      0.00000
     31       9.0343      0.00000
     32       9.5352      0.00000

 k-point     8 :       0.3333    0.1667    0.0000
  band No.  band energies     occupation 
      1     -10.0420      2.00000
      2      -9.6263      2.00000
      3      -9.2524      2.00000
      4      -8.9606      2.00000
      5      -5.3203      2.00000
      6      -4.2318      2.00000
      7      -4.0628      2.00000
      8      -3.4329      2.00000
      9      -1.3247      2.00000
     10      -0.9046      2.00000
     11      -0.4360      2.00000
     12       0.3808      2.00000
     13       0.7641      2.00000
     14       0.9794      2.00000
     15       1.2184      2.00000
     16       1.5159      2.00000
     17       1.9538      2.00000
     18       2.1464      2.00000
     19       3.5182      2.00000
     20       3.7799      2.00000
     21       4.5478      0.00000
     22       5.3206      0.00000
     23       5.3318      0.00000
     24       5.8148      0.00000
     25       5.9272      0.00000
     26       6.7574      0.00000
     27       6.8828      0.00000
     28       7.6990      0.00000
     29       7.8976      0.00000
     30       8.7515      0.00000
     31       9.3345      0.00000
     32       9.3724      0.00000

 k-point     9 :       0.3333   -0.1667    0.0000
  band No.  band energies     occupation 
      1     -10.0365      2.00000
      2      -9.6283      2.00000
      3      -9.2313      2.00000
      4      -8.9920      2.00000
      5      -5.1731      2.00000
      6      -4.4797      2.00000
      7      -4.2347      2.00000
      8      -3.0812      2.00000
      9      -1.3590      2.00000
     10      -0.8994      2.00000
     11      -0.2188      2.00000
     12       0.3418      2.00000
     13       0.3463      2.00000
     14       1.1500      2.00000
     15       1.2944      2.00000
     16       1.5884      2.00000
     17       1.6823      2.00000
     18       2.0950      2.00000
     19       3.4252      2.00000
     20       4.2925      1.99142
     21       4.3872      0.95971
     22       5.0996      0.00000
     23       5.5077      0.00000
     24       6.2002      0.00000
     25       6.2855      0.00000
     26       6.3673      0.00000
     27       7.0348      0.00000
     28       7.4045      0.00000
     29       7.4359      0.00000
     30       8.4298      0.00000
     31       9.0606      0.00000
     32       9.9541      0.00000

 k-point    10 :       0.5000    0.1667    0.0000
  band No.  band energies     occupation 
      1      -9.4080      2.00000
      2      -9.4026      2.00000
      3      -9.2209      2.00000
      4      -9.2072      2.00000
      5      -5.2499      2.00000
      6      -5.0823      2.00000
      7      -4.0831      2.00000
      8      -3.8826      2.00000
      9      -0.8152      2.00000
     10      -0.7317      2.00000
     11       0.0579      2.00000
     12       0.1302      2.00000
     13       0.3203      2.00000
     14       0.5061      2.00000
     15       1.0867      2.00000
     16       1.1192      2.00000
     17       1.9025      2.00000
     18       2.0646      2.00000
     19       3.6231      2.00000
     20       3.8755      2.00000
     21       4.6289      0.00000
     22       4.6615      0.00000
     23       5.7014      0.00000
     24       5.7919      0.00000
     25       6.1168      0.00000
     26       6.5892      0.00000
     27       6.6188      0.00000
     28       6.6802      0.00000
     29       7.5103      0.00000
     30       7.7704      0.00000
     31       8.7783      0.00000
     32       9.2714      0.00000

 k-point    11 :       0.0000    0.3333    0.0000
  band No.  band energies     occupation 
      1     -10.4172      2.00000
      2      -9.9487      2.00000
      3      -9.6952      2.00000
      4      -9.2657      2.00000
      5      -5.0991      2.00000
      6      -4.4018      2.00000
      7      -3.9857      2.00000
      8      -2.9368      2.00000
      9      -1.3550      2.00000
     10       0.2415      2.00000
     11       0.8080      2.00000
     12       1.1770      2.00000
     13       1.3606      2.00000
     14       1.5245      2.00000
     15       1.8999      2.00000
     16       1.9473      2.00000
     17       2.0691      2.00000
     18       3.3414      2.00000
     19       3.5998      2.00000
     20       4.1233      2.00000
     21       4.8313      0.00000
     22       4.9056      0.00000
     23       5.2614      0.00000
     24       5.6099      0.00000
     25       6.2813      0.00000
     26       6.3338      0.00000
     27       6.5622      0.00000
     28       7.1968      0.00000
     29       7.2078      0.00000
     30       7.7550      0.00000
     31       9.7407      0.00000
     32      10.4273      0.00000

 k-point    12 :       0.1667    0.3333    0.0000
  band No.  band energies     occupation 
      1     -10.2472      2.00000
      2      -9.8015      2.00000
      3      -9.5674      2.00000
      4      -9.1813      2.00000
      5      -5.1263      2.00000
      6      -4.2694      2.00000
      7      -3.8637      2.00000
      8      -3.1596      2.00000
      9      -1.2656      2.00000
     10      -0.6337      2.00000
     11      -0.1237      2.00000
     12       0.2828      2.00000
     13       0.5096      2.00000
     14       1.0297      2.00000
     15       1.7173      2.00000
     16       1.8891      2.00000
     17       2.7221      2.00000
     18       2.8313      2.00000
     19       3.6226      2.00000
     20       4.0675      2.00000
     21       4.7871      0.00000
     22       5.2812      0.00000
     23       5.8507      0.00000
     24       6.1979      0.00000
     25       6.3811      0.00000
     26       6.6136      0.00000
     27       6.8537      0.00000
     28       7.6986      0.00000
     29       7.9628      0.00000
     30       8.2511      0.00000
     31       9.6196      0.00000
     32       9.8183      0.00000

 k-point    13 :       0.1667   -0.3333    0.0000
  band No.  band energies     occupation 
      1     -10.2423      2.00000
      2      -9.8038      2.00000
      3      -9.5601      2.00000
      4      -9.1947      2.00000
      5      -5.0148      2.00000
      6      -4.4514      2.00000
      7      -3.9860      2.00000
      8      -2.9004      2.00000
      9      -1.2177      2.00000
     10      -0.7329      2.00000
     11       0.0936      2.00000
     12       0.2148      2.00000
     13       0.3287      2.00000
     14       1.0328      2.00000
     15       1.8007      2.00000
     16       1.8612      2.00000
     17       2.6070      2.00000
     18       2.6670      2.00000
     19       3.6328      2.00000
     20       4.3864      0.97741
     21       4.7034      0.00000
     22       5.5326      0.00000
     23       5.5992      0.00000
     24       6.3229      0.00000
     25       6.3333      0.00000
     26       6.8924      0.00000
     27       6.9902      0.00000
     28       7.4533      0.00000
     29       7.6319      0.00000
     30       8.2454      0.00000
     31       9.3403      0.00000
     32       9.7063      0.00000

 k-point    14 :       0.3333    0.3333    0.0000
  band No.  band energies     occupation 
      1      -9.7978      2.00000
      2      -9.4454      2.00000
      3      -9.2998      2.00000
      4      -9.0614      2.00000
      5      -5.2153      2.00000
      6      -4.2924      2.00000
      7      -3.7688      2.00000
      8      -3.7359      2.00000
      9      -1.4839      2.00000
     10      -1.2082      2.00000
     11      -0.8306      2.00000
     12      -0.4087      2.00000
     13       0.3017      2.00000
     14       0.4455      2.00000
     15       0.5832      2.00000
     16       1.3859      2.00000
     17       1.4132      2.00000
     18       2.1504      2.00000
     19       3.6790      2.00000
     20       3.7181      2.00000
     21       4.6004      0.00000
     22       6.0622      0.00000
     23       6.2593      0.00000
     24       6.3783      0.00000
     25       7.0188      0.00000
     26       7.6612      0.00000
     27       7.9726      0.00000
     28       8.4721      0.00000
     29       8.4848      0.00000
     30       9.3384      0.00000
     31       9.6530      0.00000
     32       9.8521      0.00000

 k-point    15 :       0.3333   -0.3333    0.0000
  band No.  band energies     occupation 
      1      -9.7896      2.00000
      2      -9.4463      2.00000
      3      -9.2728      2.00000
      4      -9.1029      2.00000
      5      -4.9512      2.00000
      6      -4.6997      2.00000
      7      -4.0881      2.00000
      8      -3.2050      2.00000
      9      -1.5091      2.00000
     10      -1.1854      2.00000
     11      -0.5966      2.00000
     12      -0.4389      2.00000
     13      -0.0236      2.00000
     14       0.3331      2.00000
     15       0.9188      2.00000
     16       1.1432      2.00000
     17       1.2166      2.00000
     18       2.3309      2.00000
     19       3.4439      2.00000
     20       4.1371      2.00000
     21       4.8961      0.00000
     22       5.7215      0.00000
     23       6.0172      0.00000
     24       6.7495      0.00000
     25       7.0729      0.00000
     26       7.6877      0.00000
     27       7.7988      0.00000
     28       8.0403      0.00000
     29       8.5033      0.00000
     30       9.2868      0.00000
     31       9.5374      0.00000
     32       9.6260      0.00000

 k-point    16 :       0.5000    0.3333    0.0000
  band No.  band energies     occupation 
      1      -9.3185      2.00000
      2      -9.3056      2.00000
      3      -9.1650      2.00000
      4      -9.1370      2.00000
      5      -5.1514      2.00000
      6      -4.7770      2.00000
      7      -4.1287      2.00000
      8      -3.6776      2.00000
      9      -1.1307      2.00000
     10      -1.0249      2.00000
     11      -0.8348      2.00000
     12      -0.7649      2.00000
     13      -0.1865      2.00000
     14      -0.0767      2.00000
     15       0.6318      2.00000
     16       0.8064      2.00000
     17       1.1047      2.00000
     18       1.2153      2.00000
     19       3.4861      2.00000
     20       4.0649      2.00000
     21       5.0107      0.00000
     22       5.2774      0.00000
     23       6.7899      0.00000
     24       7.0843      0.00000
     25       7.2973      0.00000
     26       7.4842      0.00000
     27       8.0756      0.00000
     28       8.2482      0.00000
     29       8.9607      0.00000
     30       9.1573      0.00000
     31       9.3312      0.00000
     32       9.6973      0.00000

 k-point    17 :       0.0000    0.5000    0.0000
  band No.  band energies     occupation 
      1      -9.9919      2.00000
      2      -9.9919      2.00000
      3      -9.6099      2.00000
      4      -9.6099      2.00000
      5      -5.0064      2.00000
      6      -5.0064      2.00000
      7      -3.6638      2.00000
      8      -3.6638      2.00000
      9      -0.6458      2.00000
     10      -0.6458      2.00000
     11       1.2663      2.00000
     12       1.2663      2.00000
     13       1.6776      2.00000
     14       1.6776      2.00000
     15       2.1333      2.00000
     16       2.1333      2.00000
     17       2.8910      2.00000
     18       2.8910      2.00000
     19       3.7467      2.00000
     20       3.7467      2.00000
     21       4.8436      0.00000
     22       4.8436      0.00000
     23       5.6423      0.00000
     24       5.6423      0.00000
     25       5.7690      0.00000
     26       5.7690      0.00000
     27       6.5939      0.00000
     28       6.5939      0.00000
     29       7.0068      0.00000
     30       7.0068      0.00000
     31      10.3415      0.00000
     32      10.3415      0.00000

 k-point    18 :       0.1667    0.5000    0.0000
  band No.  band energies     occupation 
      1      -9.8451      2.00000
      2      -9.8430      2.00000
      3      -9.4944      2.00000
      4      -9.4920      2.00000
      5      -4.9814      2.00000
      6      -4.8512      2.00000
      7      -3.6903      2.00000
      8      -3.5415      2.00000
      9      -0.6888      2.00000
     10      -0.5152      2.00000
     11      -0.2053      2.00000
     12      -0.1766      2.00000
     13       0.4782      2.00000
     14       0.6354      2.00000
     15       1.7361      2.00000
     16       1.9583      2.00000
     17       2.8129      2.00000
     18       3.1028      2.00000
     19       3.8487      2.00000
     20       3.9028      2.00000
     21       5.1135      0.00000
     22       5.2414      0.00000
     23       5.9734      0.00000
     24       6.0725      0.00000
     25       6.4268      0.00000
     26       6.5078      0.00000
     27       7.0563      0.00000
     28       7.5297      0.00000
     29       7.7794      0.00000
     30       8.0150      0.00000
     31       9.7696      0.00000
     32       9.9248      0.00000

[...]
     32       9.1052      0.00000

 k-point    32 :       0.1667    0.3333    0.5000
  band No.  band energies     occupation 
      1     -10.0899      2.00000
      2     -10.0899      2.00000
      3      -9.3085      2.00000
      4      -9.3085      2.00000
      5      -4.7167      2.00000
      6      -4.7167      2.00000
      7      -3.6591      2.00000
      8      -3.6591      2.00000
      9      -0.5147      2.00000
     10      -0.5147      2.00000
     11       0.0164      2.00000
     12       0.0164      2.00000
     13       0.9264      2.00000
     14       0.9264      2.00000
     15       1.4896      2.00000
     16       1.4896      2.00000
     17       2.6336      2.00000
     18       2.6336      2.00000
     19       3.2760      2.00000
     20       3.2760      2.00000
     21       5.5042      0.00000
     22       5.5042      0.00000
     23       6.3383      0.00000
     24       6.3383      0.00000
     25       6.8692      0.00000
     26       6.8692      0.00000
     27       7.2344      0.00000
     28       7.2344      0.00000
     29       8.2016      0.00000
     30       8.2016      0.00000
     31       8.9815      0.00000
     32       8.9815      0.00000

 k-point    33 :       0.1667   -0.3333    0.5000
  band No.  band energies     occupation 
      1     -10.0861      2.00000
      2     -10.0861      2.00000
      3      -9.3135      2.00000
      4      -9.3135      2.00000
      5      -4.7200      2.00000
      6      -4.7199      2.00000
      7      -3.6585      2.00000
      8      -3.6585      2.00000
      9      -0.5251      2.00000
     10      -0.5251      2.00000
     11       0.0825      2.00000
     12       0.0825      2.00000
     13       0.8703      2.00000
     14       0.8703      2.00000
     15       1.5257      2.00000
     16       1.5257      2.00000
     17       2.7365      2.00000
     18       2.7365      2.00000
     19       3.1015      2.00000
     20       3.1015      2.00000
     21       5.4751      0.00000
     22       5.4751      0.00000
     23       6.2629      0.00000
     24       6.2629      0.00000
     25       6.7256      0.00000
     26       6.7256      0.00000
     27       7.7298      0.00000
     28       7.7298      0.00000
     29       8.0806      0.00000
     30       8.0806      0.00000
     31       9.0957      0.00000
     32       9.0957      0.00000

 k-point    34 :       0.3333    0.3333    0.5000
  band No.  band energies     occupation 
      1      -9.6681      2.00000
      2      -9.6681      2.00000
      3      -9.1372      2.00000
      4      -9.1372      2.00000
      5      -4.7283      2.00000
      6      -4.7283      2.00000
      7      -3.9021      2.00000
      8      -3.9021      2.00000
      9      -1.1898      2.00000
     10      -1.1898      2.00000
     11      -0.5007      2.00000
     12      -0.5006      2.00000
     13       0.3543      2.00000
     14       0.3543      2.00000
     15       0.9151      2.00000
     16       0.9151      2.00000
     17       1.9402      2.00000
     18       1.9402      2.00000
     19       2.8848      2.00000
     20       2.8848      2.00000
     21       5.9553      0.00000
     22       5.9553      0.00000
     23       6.5524      0.00000
     24       6.5524      0.00000
     25       7.3068      0.00000
     26       7.3068      0.00000
     27       8.2036      0.00000
     28       8.2036      0.00000
     29       8.7892      0.00000
     30       8.7892      0.00000
     31       9.6485      0.00000
     32       9.6485      0.00000

 k-point    35 :       0.3333   -0.3333    0.5000
  band No.  band energies     occupation 
      1      -9.6596      2.00000
      2      -9.6596      2.00000
      3      -9.1479      2.00000
      4      -9.1479      2.00000
      5      -4.7263      2.00000
      6      -4.7263      2.00000
      7      -3.9022      2.00000
      8      -3.9022      2.00000
      9      -1.2564      2.00000
     10      -1.2564      2.00000
     11      -0.3675      2.00000
     12      -0.3675      2.00000
     13       0.2961      2.00000
     14       0.2961      2.00000
     15       0.9590      2.00000
     16       0.9590      2.00000
     17       2.0086      2.00000
     18       2.0086      2.00000
     19       2.6893      2.00000
     20       2.6893      2.00000
     21       5.9974      0.00000
     22       5.9974      0.00000
     23       6.5053      0.00000
     24       6.5053      0.00000
     25       7.6466      0.00000
     26       7.6466      0.00000
     27       8.1813      0.00000
     28       8.1813      0.00000
     29       8.5320      0.00000
     30       8.5320      0.00000
     31       9.5814      0.00000
     32       9.5814      0.00000

 k-point    36 :       0.5000    0.3333    0.5000
  band No.  band energies     occupation 
      1      -9.2657      2.00000
      2      -9.2657      2.00000
      3      -9.2036      2.00000
      4      -9.2036      2.00000
      5      -4.7916      2.00000
      6      -4.7916      2.00000
      7      -4.1922      2.00000
      8      -4.1922      2.00000
      9      -0.9133      2.00000
     10      -0.9133      2.00000
     11      -0.6751      2.00000
     12      -0.6751      2.00000
     13      -0.0916      2.00000
     14      -0.0916      2.00000
     15       0.3359      2.00000
     16       0.3359      2.00000
     17       2.0504      2.00000
     18       2.0505      2.00000
     19       2.3809      2.00000
     20       2.3809      2.00000
     21       6.1370      0.00000
     22       6.1370      0.00000
     23       6.8752      0.00000
     24       6.8752      0.00000
     25       7.3957      0.00000
     26       7.3957      0.00000
     27       8.0929      0.00000
     28       8.0929      0.00000
     29       9.1426      0.00000
     30       9.1426      0.00000
     31       9.3056      0.00000
     32       9.3056      0.00000

 k-point    37 :       0.0000    0.5000    0.5000
  band No.  band energies     occupation 
      1      -9.9794      2.00000
      2      -9.9794      2.00000
      3      -9.6281      2.00000
      4      -9.6281      2.00000
      5      -4.7013      2.00000
      6      -4.7013      2.00000
      7      -4.1810      2.00000
      8      -4.1810      2.00000
      9       0.4725      2.00000
     10       0.4725      2.00000
     11       0.9305      2.00000
     12       0.9305      2.00000
     13       1.3060      2.00000
     14       1.3060      2.00000
     15       1.6886      2.00000
     16       1.6886      2.00000
     17       3.0619      2.00000
     18       3.0619      2.00000
     19       3.2025      2.00000
     20       3.2025      2.00000
     21       5.1628      0.00000
     22       5.1628      0.00000
     23       5.1979      0.00000
     24       5.1979      0.00000
     25       6.5469      0.00000
     26       6.5469      0.00000
     27       6.7090      0.00000
     28       6.7090      0.00000
     29       7.9908      0.00000
     30       7.9908      0.00000
     31       8.7891      0.00000
     32       8.7891      0.00000

 k-point    38 :       0.1667    0.5000    0.5000
  band No.  band energies     occupation 
      1      -9.8306      2.00000
      2      -9.8306      2.00000
      3      -9.5122      2.00000
      4      -9.5122      2.00000
      5      -4.6371      2.00000
      6      -4.6371      2.00000
      7      -4.0875      2.00000
      8      -4.0875      2.00000
      9      -0.2529      2.00000
     10      -0.2529      2.00000
     11       0.1131      2.00000
     12       0.1131      2.00000
     13       0.9374      2.00000
     14       0.9374      2.00000
     15       1.0958      2.00000
     16       1.0958      2.00000
     17       2.7111      2.00000
     18       2.7111      2.00000
     19       3.2695      2.00000
     20       3.2695      2.00000
     21       5.6738      0.00000
     22       5.6738      0.00000
     23       6.1326      0.00000
     24       6.1326      0.00000
     25       7.0568      0.00000
     26       7.0568      0.00000
     27       7.5132      0.00000
     28       7.5132      0.00000
     29       8.1960      0.00000
     30       8.1960      0.00000
     31       8.7874      0.00000
     32       8.7874      0.00000

 k-point    39 :       0.3333    0.5000    0.5000
  band No.  band energies     occupation 
      1      -9.4728      2.00000
      2      -9.4728      2.00000
      3      -9.2666      2.00000
      4      -9.2666      2.00000
      5      -4.6163      2.00000
      6      -4.6163      2.00000
      7      -4.0220      2.00000
      8      -4.0220      2.00000
      9      -1.2343      2.00000
     10      -1.2343      2.00000
     11      -0.8599      2.00000
     12      -0.8599      2.00000
     13       0.3613      2.00000
     14       0.3613      2.00000
     15       0.6922      2.00000
     16       0.6922      2.00000
     17       1.8414      2.00000
     18       1.8414      2.00000
     19       2.5980      2.00000
     20       2.5980      2.00000
     21       6.3769      0.00000
     22       6.3769      0.00000
     23       7.2690      0.00000
     24       7.2690      0.00000
     25       7.7182      0.00000
     26       7.7182      0.00000
     27       8.3072      0.00000
     28       8.3072      0.00000
     29       9.1819      0.00000
     30       9.1819      0.00000
     31       9.5985      0.00000
     32       9.5985      0.00000

 k-point    40 :       0.5000    0.5000    0.5000
  band No.  band energies     occupation 
      1      -9.2100      2.00000
      2      -9.2100      2.00000
      3      -9.1770      2.00000
      4      -9.1770      2.00000
      5      -4.7196      2.00000
      6      -4.7196      2.00000
      7      -4.1069      2.00000
      8      -4.1069      2.00000
      9      -1.1426      2.00000
     10      -1.1426      2.00000
     11      -0.8299      2.00000
     12      -0.8299      2.00000
     13      -0.5211      2.00000
     14      -0.5211      2.00000
     15      -0.0005      2.00000
     16      -0.0005      2.00000
     17       2.0300      2.00000
     18       2.0300      2.00000
     19       2.3833      2.00000
     20       2.3833      2.00000
     21       6.0439      0.00000
     22       6.0439      0.00000
     23       7.2881      0.00000
     24       7.2881      0.00000
     25       8.3101      0.00000
     26       8.3101      0.00000
     27       8.6159      0.00000
     28       8.6159      0.00000
     29       9.7587      0.00000
     30       9.7587      0.00000
     31      10.1650      0.00000
     32      10.1650      0.00000


--------------------------------------------------------------------------------------------------------


 soft charge-density along one line, spin component            1
         0         1         2         3         4         5         6         7         8         9
 total charge-density along one line
 
 pseudopotential strength for first ion, spin component:            1
 14.378  17.934   0.039   0.026   0.003   0.071   0.047   0.005
 17.934  22.384   0.050   0.033   0.004   0.089   0.060   0.007
  0.039   0.050   3.204  -0.001  -0.000   5.452  -0.001  -0.000
  0.026   0.033  -0.001   3.201   0.000  -0.001   5.447   0.000
  0.003   0.004  -0.000   0.000   3.205  -0.000   0.000   5.455
  0.071   0.089   5.452  -0.001  -0.000   9.335  -0.002  -0.000
  0.047   0.060  -0.001   5.447   0.000  -0.002   9.327   0.000
  0.005   0.007  -0.000   0.000   5.455  -0.000   0.000   9.340
 -0.000  -0.000   0.001  -0.000   0.007   0.001  -0.000   0.013
 -0.002  -0.002   0.006   0.013  -0.000   0.011   0.022  -0.000
 -0.005  -0.006  -0.003   0.007  -0.000  -0.007   0.013  -0.001
  0.000   0.000  -0.000   0.001   0.006  -0.000   0.001   0.012
  0.002   0.002  -0.012   0.000   0.001  -0.021   0.000   0.001
 total augmentation occupancy for first ion, spin component:            1
  2.945  -0.874   0.348   0.233   0.001  -0.069  -0.043   0.003  -0.005  -0.003   0.023  -0.002   0.012
 -0.874   0.808  -0.422  -0.301  -0.014   0.070   0.045   0.000   0.006  -0.005  -0.023   0.006  -0.007
  0.348  -0.422   1.252   0.008  -0.009  -0.212   0.002   0.003   0.001   0.039  -0.101   0.004   0.003
  0.233  -0.301   0.008   1.503   0.002   0.001  -0.254  -0.001   0.005  -0.015   0.056  -0.004  -0.005
  0.001  -0.014  -0.009   0.002   1.287   0.003  -0.000  -0.231   0.146   0.005   0.002   0.031  -0.001
 -0.069   0.070  -0.212   0.001   0.003   0.040  -0.001  -0.001  -0.000  -0.007   0.018  -0.001  -0.000
 -0.043   0.045   0.002  -0.254  -0.000  -0.001   0.051   0.000  -0.001   0.003  -0.009  -0.000   0.001
  0.003   0.000   0.003  -0.001  -0.231  -0.001   0.000   0.046  -0.027  -0.001  -0.000  -0.005   0.000
 -0.005   0.006   0.001   0.005   0.146  -0.000  -0.001  -0.027   0.031  -0.001  -0.001   0.003   0.000
 -0.003  -0.005   0.039  -0.015   0.005  -0.007   0.003  -0.001  -0.001   0.015  -0.006  -0.002   0.001
  0.023  -0.023  -0.101   0.056   0.002   0.018  -0.009  -0.000  -0.001  -0.006   0.037  -0.001  -0.002
 -0.002   0.006   0.004  -0.004   0.031  -0.001  -0.000  -0.005   0.003  -0.002  -0.001   0.013   0.000
  0.012  -0.007   0.003  -0.005  -0.001  -0.000   0.001   0.000   0.000   0.001  -0.002   0.000   0.009


------------------------ aborting loop because EDIFF is reached ----------------------------------------


    CHARGE:  cpu time      0.0051: real time      0.0052
    FORLOC:  cpu time      0.0002: real time      0.0002
    FORNL :  cpu time      0.0244: real time      0.0245
    STRESS:  cpu time      0.2435: real time      0.2443
    FORCOR:  cpu time      0.0065: real time      0.0066
    FORHAR:  cpu time      0.0015: real time      0.0016
    MIXING:  cpu time      0.0006: real time      0.0006
    OFIELD:  cpu time      0.0000: real time      0.0000

  FORCE on cell =-STRESS in cart. coord.  units (eV):
  Direction    XX          YY          ZZ          XY          YZ          ZX
  --------------------------------------------------------------------------------------
  Alpha Z    91.66130    91.66130    91.66130
  Ewald    -469.36658  -538.40863  -432.72441    -8.07055     0.00006     0.00003
  Hartree    52.29731    26.05324    52.30610    -2.63374     0.00002    -0.00000
  E(xc)    -142.23856  -142.28503  -142.00680    -0.04016    -0.00000     0.00000
  Local    -154.43895   -66.24568  -193.39944    10.52150    -0.00007    -0.00002
  n-local   242.72365   241.83270   243.62699     0.05528     0.00000     0.00000
  augment   -11.44188   -11.87492   -11.66964     0.00389     0.00000     0.00000
  Kinetic   392.81175   400.62020   406.35675    -1.49840    -0.00001    -0.00002
  Fock        0.00000     0.00000     0.00000     0.00000     0.00000     0.00000
  -------------------------------------------------------------------------------------
  Total       2.00804     1.35319    14.15085    -1.66218     0.00000    -0.00001
  in kB      17.40366    11.72812   122.64556   -14.40616     0.00003    -0.00008
  external pressure =       50.59 kB  Pullay stress =        0.00 kB


 VOLUME and BASIS-vectors are now :
 -----------------------------------------------------------------------------
  energy-cutoff  :      360.00
  volume of cell :      184.86
      direct lattice vectors                 reciprocal lattice vectors
     3.858100176  0.000000000  0.000000000     0.259194929  0.000000000  0.000000000
     0.000000000  4.526575088  0.000000000     0.000000000  0.220917577  0.000000000
     0.000000000  0.000000000 10.585176468     0.000000000  0.000000000  0.094471736

  length of vectors
     3.858100176  4.526575088 10.585176468     0.259194929  0.220917577  0.094471736


 FORCES acting on ions
    electron-ion (+dipol)            ewald-force                    non-local-force                 convergence-correction
 -----------------------------------------------------------------------------------------------
   -.186E-02 0.163E+02 0.124E+02   -.310E+00 -.187E+02 -.139E+02   0.260E+00 0.215E+01 0.184E+01   -.123E-03 -.787E-04 -.331E-03
   -.187E-02 0.163E+02 -.124E+02   -.310E+00 -.187E+02 0.139E+02   0.260E+00 0.215E+01 -.184E+01   -.123E-03 -.789E-04 0.330E-03
   0.187E-02 -.163E+02 -.124E+02   0.310E+00 0.187E+02 0.139E+02   -.260E+00 -.215E+01 -.184E+01   0.124E-03 0.783E-04 0.330E-03
   0.185E-02 -.163E+02 0.124E+02   0.310E+00 0.187E+02 -.139E+02   -.260E+00 -.215E+01 0.184E+01   0.124E-03 0.785E-04 -.329E-03
   0.155E+01 -.211E+02 -.151E+02   -.120E+01 0.227E+02 0.161E+02   -.489E+00 -.135E+01 -.103E+01   0.333E-03 -.203E-03 0.580E-03
   0.155E+01 -.211E+02 0.151E+02   -.120E+01 0.227E+02 -.161E+02   -.489E+00 -.135E+01 0.103E+01   0.332E-03 -.204E-03 -.581E-03
   -.155E+01 0.211E+02 0.151E+02   0.120E+01 -.227E+02 -.161E+02   0.488E+00 0.135E+01 0.103E+01   -.333E-03 0.204E-03 -.578E-03
   -.155E+01 0.211E+02 -.151E+02   0.120E+01 -.227E+02 0.161E+02   0.488E+00 0.135E+01 -.103E+01   -.333E-03 0.203E-03 0.580E-03
 -----------------------------------------------------------------------------------------------
   0.646E-04 -.183E-06 0.114E-05   0.311E-14 0.355E-14 -.711E-14   -.304E-04 0.189E-03 -.109E-05   -.184E-06 0.156E-07 0.713E-06
 
 
 POSITION                                       TOTAL-FORCE (eV/Angst)
 -----------------------------------------------------------------------------------
      0.51721      2.90124      1.23098        -0.051225     -0.218817      0.368360
      2.44626      0.63795      4.06160        -0.051225     -0.218820     -0.368350
      2.89357      3.98702      9.35419         0.051357      0.218798     -0.368327
      0.96452      1.72374      6.52357         0.051361      0.218795      0.368322
      0.51721      2.33879      3.75268        -0.137566      0.328210     -0.008504
      2.44626      0.07551      1.53991        -0.137565      0.328206      0.008498
      2.89357      0.02290      6.83250         0.137431     -0.328185      0.008476
      0.96452      2.28618      9.04526         0.137433     -0.328187     -0.008475
 -----------------------------------------------------------------------------------
    total drift:                                0.000034      0.000188      0.000001


--------------------------------------------------------------------------------------------------------



  FREE ENERGIE OF THE ION-ELECTRON SYSTEM (eV)
  ---------------------------------------------------
  free  energy   TOTEN  =       -32.62134102 eV

  energy  without entropy=      -32.61953569  energy(sigma->0) =      -32.62043835
 


--------------------------------------------------------------------------------------------------------


    POTLOK:  cpu time      0.2235: real time      0.2243


--------------------------------------------------------------------------------------------------------


     LOOP+:  cpu time      7.6911: real time      7.7304
    4ORBIT:  cpu time      0.0000: real time      0.0000

 total amount of memory used by VASP MPI-rank0    36587. kBytes
=======================================================================

   base      :      30000. kBytes
   nonl-proj :       5001. kBytes
   fftplans  :        306. kBytes
   grid      :        466. kBytes
   one-center:         16. kBytes
   wavefun   :        798. kBytes
 
  
  
 General timing and accounting informations for this job:
 ========================================================
  
                  Total CPU time used (sec):        9.311
                            User time (sec):        9.039
                          System time (sec):        0.273
                         Elapsed time (sec):        9.616
  
                   Maximum memory used (kb):      174628.
                   Average memory used (kb):          N/A
  
                          Minor page faults:        17371
                          Major page faults:           48
                 Voluntary context switches:         2022
