 running  160 mpi-ranks, with    1 threads/rank, on   10 nodes
 distrk:  each k-point on   80 cores,    2 groups
 distr:  one band on    5 cores,   16 groups
 vasp.6.4.2 20Jul23 (build Oct 12 2023 10:31:02) complex                         
 POSCAR found type information on POSCAR GeSe
 POSCAR found :  2 types and       8 ions
 Reading from existing POTCAR
 scaLAPACK will be used
 Reading from existing POTCAR
 LDA part: xc-table for Pade appr. of Perdew
 POSCAR, INCAR and KPOINTS ok, starting setup
 FFT: planning ... GRIDC
 FFT: planning ... GRID_SOFT
 FFT: planning ... GRID
 WAVECAR not read
 entering main loop
       N       E                     dE             d eps       ncg     rms          rms(c)
DAV:   1     0.162828183951E+03    0.16283E+03   -0.15888E+04  2560   0.104E+03
DAV:   2    -0.223940840526E+02   -0.18522E+03   -0.17985E+03  3616   0.155E+02
DAV:   3    -0.337950006708E+02   -0.11401E+02   -0.11366E+02  3440   0.443E+01
DAV:   4    -0.338842150256E+02   -0.89214E-01   -0.89201E-01  3104   0.443E+00
DAV:   5    -0.338848040044E+02   -0.58898E-03   -0.58897E-03  3408   0.368E-01    0.650E+00
DAV:   6    -0.335287086550E+02    0.35610E+00   -0.72057E-01  3328   0.286E+00    0.410E+00
DAV:   7    -0.335153615292E+02    0.13347E-01   -0.21611E-01  3136   0.168E+00    0.123E+00
DAV:   8    -0.335142433306E+02    0.11182E-02   -0.19764E-02  3040   0.547E-01    0.180E-01
DAV:   9    -0.335146569687E+02   -0.41364E-03   -0.29774E-03  3344   0.244E-01    0.677E-02
DAV:  10    -0.335147758315E+02   -0.11886E-03   -0.25500E-04  3248   0.685E-02    0.243E-02
DAV:  11    -0.335148084177E+02   -0.32586E-04   -0.41667E-05  3136   0.290E-02    0.117E-02
DAV:  12    -0.335148101459E+02   -0.17282E-05   -0.57340E-06  3504   0.106E-02    0.368E-03
DAV:  13    -0.335148105244E+02   -0.37846E-06   -0.12941E-06  2144   0.521E-03
   1 F= -.33514811E+02 E0= -.33514811E+02  d E =-.579467E-08
