 vasp.6.4.2 20Jul23 (build Oct 12 2023 10:31:02) complex                         
 executed on              LinuxNV date 2024.11.02  00:33:03
 running  128 mpi-ranks, with    1 threads/rank, on    2 nodes
 distrk:  each k-point on   64 cores,    2 groups
 distr:  one band on NCORE=   8 cores,    8 groups


--------------------------------------------------------------------------------------------------------


 INCAR:
   ENCUT = 520.000000
   SIGMA = 0.050000
   EDIFF = 1.00e-06
   ALGO = N
   GGA = PE
   PREC = Accurate
   SYSTEM = 01_AOPT
   ICHARG = 0
   ISMEAR = 0
   ISPIN = 2
   ISTART = 1
   ISYM = -1
   KPAR = 2
   LORBIT = 11
   NBANDS = 220
   NELM = 100
   NELMIN = 5
   NPAR = 8
   LASPH = .TRUE.
   LCHARG = .FALSE.
   LWAVE = .FALSE.
   LREAL = .FALSE.

 POTCAR:    PAW_PBE Ge 05Jan2001                  
 POTCAR:    PAW_PBE Se 06Sep2000                  
 -----------------------------------------------------------------------------
|                                                                             |
|           W    W    AA    RRRRR   N    N  II  N    N   GGGG   !!!           |
|           W    W   A  A   R    R  NN   N  II  NN   N  G    G  !!!           |
|           W    W  A    A  R    R  N N  N  II  N N  N  G       !!!           |
|           W WW W  AAAAAA  RRRRR   N  N N  II  N  N N  G  GGG   !            |
|           WW  WW  A    A  R   R   N   NN  II  N   NN  G    G                |
|           W    W  A    A  R    R  N    N  II  N    N   GGGG   !!!           |
|                                                                             |
|     You use a magnetic or noncollinear calculation, but did not specify     |
|     the initial magnetic moment with the MAGMOM tag. Note that a            |
|     default of 1 will be used for all atoms. This ferromagnetic setup       |
|     may break the symmetry of the crystal, in particular it may rule        |
|     out finding an antiferromagnetic solution. Thence, we recommend         |
|     setting the initial magnetic moment manually or verifying carefully     |
|     that this magnetic setup is desired.                                    |
|                                                                             |
 -----------------------------------------------------------------------------

 POTCAR:    PAW_PBE Ge 05Jan2001                  
   VRHFIN =Ge: s2p2                                                                                 
   LEXCH  = PE                                                                                      
   EATOM  =   104.9960 eV,    7.7170 Ry                                                             
                                                                                                    
   TITEL  = PAW_PBE Ge 05Jan2001                                                                    
   LULTRA =        F    use ultrasoft PP ?                                                          
   IUNSCR =        1    unscreen: 0-lin 1-nonlin 2-no                                               
   RPACOR =    2.170    partial core radius                                                         
   POMASS =   72.610; ZVAL   =    4.000    mass and valenz                                          
   RCORE  =    2.300    outmost cutoff radius                                                       
   RWIGS  =    2.300; RWIGS  =    1.217    wigner-seitz radius (au A)                               
   ENMAX  =  173.807; ENMIN  =  130.355 eV                                                          
   ICORE  =        3    local potential                                                             
   LCOR   =        T    correct aug charges                                                         
   LPAW   =        T    paw PP                                                                      
   EAUG   =  385.843                                                                                
   DEXC   =    0.000                                                                                
   RMAX   =    2.342    core radius for proj-oper                                                   
   RAUG   =    1.300    factor for augmentation sphere                                              
   RDEP   =    2.318    radius for radial grids                                                     
   RDEPT  =    2.103    core radius for aug-charge                                                  
                                                                                                    
   Atomic configuration                                                                             
   10 entries                                                                                       
     n  l   j            E        occ.                                                              
     1  0  0.50    -10959.8463   2.0000                                                             
     2  0  0.50     -1371.6056   2.0000                                                             
     2  1  1.50     -1198.4791   6.0000                                                             
     3  0  0.50      -168.4733   2.0000                                                             
     3  1  1.50      -115.6019   6.0000                                                             
     3  2  2.50       -29.3106  10.0000                                                             
     4  0  0.50       -11.7309   2.0000                                                             
     4  1  0.50        -3.8952   2.0000                                                             
     4  2  1.50        -4.0817   0.0000                                                             
     4  3  2.50        -4.0817   0.0000                                                             
   Description                                                                                      
     l       E           TYP  RCUT    TYP  RCUT                                                     
     0    -11.7309493     23  2.300                                                                 
     0     -7.4578696     23  2.300                                                                 
     1     -3.8952261     23  2.300                                                                 
     1      6.1178114     23  2.300                                                                 
     2     -4.0817478     23  2.300                                                                 
     3     -1.3605826      7  2.300                                                                 
  local pseudopotential read in
  partial core-charges read in
  partial kinetic energy density read in
  atomic valenz-charges read in
  non local Contribution for L=            0  read in
    real space projection operators read in
  non local Contribution for L=            0  read in
    real space projection operators read in
  non local Contribution for L=            1  read in
    real space projection operators read in
  non local Contribution for L=            1  read in
    real space projection operators read in
  non local Contribution for L=            2  read in
    real space projection operators read in
    PAW grid and wavefunctions read in
 
   number of l-projection  operators is LMAX  =            5
   number of lm-projection operators is LMMAX =           13
 
 POTCAR:    PAW_PBE Se 06Sep2000                  
   VRHFIN =Se: s2p4                                                                                 
   LEXCH  = PE                                                                                      
   EATOM  =   257.1286 eV,   18.8984 Ry                                                             
                                                                                                    
   TITEL  = PAW_PBE Se 06Sep2000                                                                    
   LULTRA =        F    use ultrasoft PP ?                                                          
   IUNSCR =        1    unscreen: 0-lin 1-nonlin 2-no                                               
   RPACOR =    1.900    partial core radius                                                         
   POMASS =   78.960; ZVAL   =    6.000    mass and valenz                                          
   RCORE  =    2.100    outmost cutoff radius                                                       
   RWIGS  =    2.200; RWIGS  =    1.164    wigner-seitz radius (au A)                               
   ENMAX  =  211.555; ENMIN  =  158.666 eV                                                          
   ICORE  =        3    local potential                                                             
   LCOR   =        T    correct aug charges                                                         
   LPAW   =        T    paw PP                                                                      
   EAUG   =  446.842                                                                                
   DEXC   =    0.000                                                                                
   RMAX   =    2.147    core radius for proj-oper                                                   
   RAUG   =    1.300    factor for augmentation sphere                                              
   RDEP   =    2.177    radius for radial grids                                                     
   RDEPT  =    1.928    core radius for aug-charge                                                  
                                                                                                    
   Atomic configuration                                                                             
   10 entries                                                                                       
     n  l   j            E        occ.                                                              
     1  0  0.50    -12503.4787   2.0000                                                             
     2  0  0.50     -1606.9547   2.0000                                                             
     2  1  1.50     -1413.3140   6.0000                                                             
     3  0  0.50      -213.4885   2.0000                                                             
     3  1  1.50      -152.9538   6.0000                                                             
     3  2  2.50       -53.1221  10.0000                                                             
     4  0  0.50       -17.2865   2.0000                                                             
     4  1  0.50        -6.5110   4.0000                                                             
     4  2  2.50        -6.8029   0.0000                                                             
     4  3  2.50        -6.8029   0.0000                                                             
   Description                                                                                      
     l       E           TYP  RCUT    TYP  RCUT                                                     
     0    -17.2865377     23  2.100                                                                 
     0    -15.3094411     23  2.100                                                                 
     1     -6.5110275     23  2.100                                                                 
     1     -0.0695192     23  2.100                                                                 
     2     -6.8029130     23  2.100                                                                 
     3     -1.3605826      7  2.100                                                                 
  local pseudopotential read in
  partial core-charges read in
  partial kinetic energy density read in
  atomic valenz-charges read in
  non local Contribution for L=            0  read in
    real space projection operators read in
  non local Contribution for L=            0  read in
    real space projection operators read in
  non local Contribution for L=            1  read in
    real space projection operators read in
  non local Contribution for L=            1  read in
    real space projection operators read in
  non local Contribution for L=            2  read in
    real space projection operators read in
    PAW grid and wavefunctions read in
 
   number of l-projection  operators is LMAX  =            5
   number of lm-projection operators is LMMAX =           13
 
 -----------------------------------------------------------------------------
|                                                                             |
|               ----> ADVICE to this user running VASP <----                  |
|                                                                             |
|     You have a (more or less) 'large supercell' and for larger cells it     |
|     might be more efficient to use real-space projection operators.         |
|     Therefore, try LREAL= Auto in the INCAR file.                           |
|     Mind: For very accurate calculation, you might also keep the            |
|     reciprocal projection scheme (i.e. LREAL=.FALSE.).                      |
|                                                                             |
 -----------------------------------------------------------------------------

  PAW_PBE Ge 05Jan2001                  :
 energy of atom  1       EATOM= -104.9960
 kinetic energy error for atom=    0.0002 (will be added to EATOM!!)
  PAW_PBE Se 06Sep2000                  :
 energy of atom  2       EATOM= -257.1286
 kinetic energy error for atom=    0.0007 (will be added to EATOM!!)
 
 
 POSCAR: Ge Se
  positions in cartesian coordinates
  No initial velocities read in
 exchange correlation table for  LEXCH =        8
   RHO(1)=    0.500       N(1)  =     2000
   RHO(2)=  100.500       N(2)  =     4000
 


--------------------------------------------------------------------------------------------------------


 ion  position               nearest neighbor table
   1  0.093  0.046  0.131-  45 2.53  55 2.58  54 2.65
   2  0.242  0.881  0.372-  48 2.44  67 2.51  45 2.67
   3  0.594  0.177  0.378-  56 2.56  68 2.57  44 2.69
   4  0.584  0.545  0.380-  69 2.48  72 2.62
   5  0.561  0.869  0.346-  70 2.47  44 2.56  48 2.80
   6  0.913  0.195  0.382-  46 2.55  55 2.65  56 2.77
   7  0.904  0.551  0.380-  47 2.60  71 2.62  72 2.70
   8  0.915  0.860  0.362-  53 2.62  45 2.71
   9  0.079  0.162  0.636-  57 2.47  51 2.69
  10  0.075  0.486  0.622-  58 2.57  38 2.66  43 2.86
  11  0.091  0.814  0.622-  39 2.52  59 2.73  52 2.79
  12  0.415  0.164  0.621-  40 2.60  60 2.64  51 2.72
  13  0.434  0.512  0.643-  61 2.50  41 2.57  42 2.61
  14  0.399  0.829  0.624-  62 2.57  42 2.66
  15  0.754  0.167  0.631-  63 2.51  37 2.64
  16  0.754  0.498  0.657-  43 2.53  64 2.60  41 2.63
  17  0.242  0.508  0.383-  66 2.56  50 2.66  49 2.72
  18  0.227  0.215  0.378-  54 2.45  49 2.68  46 2.69
  19  0.758  0.840  0.642-  65 2.49  37 2.68  52 2.75
  20  0.926  0.659  0.867-  52 2.48  64 2.67  58 2.69
  21  0.929  0.986  0.860-  37 2.58  59 2.62  57 2.78
  22  0.058  0.377  0.124-  66 2.57  71 2.63  46 2.63
  23  0.077  0.693  0.138-  47 2.51  67 2.67  53 2.78  66 2.78
  24  0.388  0.052  0.127-  48 2.52  54 2.58  68 2.60
  25  0.410  0.370  0.140-  49 2.47  69 2.61
  26  0.755  0.028  0.115-  55 2.59  44 2.82
  27  0.731  0.377  0.112-  69 2.65  56 2.69  71 2.83
  28  0.401  0.702  0.153-  50 2.48  67 2.56  70 2.70
  29  0.239  0.335  0.868-  38 2.52  60 2.75
  30  0.217  0.640  0.869-  61 2.62  39 2.64  58 2.75
  31  0.249  0.979  0.867-  51 2.52  62 2.58  59 2.65
  32  0.572  0.317  0.862-  60 2.56  41 2.60  63 2.65
  33  0.597  0.685  0.877-  65 2.61  64 2.62  42 2.70
  34  0.550  0.005  0.859-  40 2.46  62 2.74
  35  0.897  0.309  0.867-  43 2.59  57 2.59  63 2.75
  36  0.726  0.695  0.133-  72 2.61  70 2.77  53 2.83
  37  0.892  0.007  0.632-  21 2.58  15 2.64  19 2.68
  38  0.227  0.337  0.641-  29 2.52  10 2.66
  39  0.230  0.668  0.634-  11 2.52  30 2.64
  40  0.562  0.017  0.637-  34 2.46  12 2.60
  41  0.586  0.372  0.636-  13 2.57  32 2.60  16 2.63
  42  0.554  0.683  0.638-  13 2.61  14 2.66  33 2.70
  43  0.891  0.351  0.639-  16 2.53  35 2.59  10 2.86
  44  0.717  0.001  0.364-   5 2.56   3 2.69  26 2.82
  45  0.072  0.010  0.354-   1 2.53   2 2.67   8 2.71
  46  0.054  0.341  0.358-   6 2.55  22 2.63  18 2.69
  47  0.065  0.683  0.364-  23 2.51   7 2.60
  48  0.387  0.011  0.350-   2 2.44  24 2.52   5 2.80
  49  0.393  0.352  0.362-  25 2.47  18 2.68  17 2.72
  50  0.386  0.664  0.372-  28 2.48  17 2.66
  51  0.247  0.027  0.646-  31 2.52   9 2.69  12 2.72
  52  0.912  0.682  0.645-  20 2.48  19 2.75  11 2.79
  53  0.905  0.835  0.128-   8 2.62  23 2.78  36 2.83
  54  0.242  0.195  0.159-  18 2.45  24 2.58   1 2.65
  55  0.918  0.154  0.147-   1 2.58  26 2.59   6 2.65
  56  0.734  0.324  0.347-   3 2.56  27 2.69   6 2.77
  57  0.052  0.171  0.856-   9 2.47  35 2.59  21 2.78
  58  0.058  0.489  0.853-  10 2.57  20 2.69  30 2.75
  59  0.085  0.845  0.866-  21 2.62  31 2.65  11 2.73
  60  0.408  0.195  0.857-  32 2.56  12 2.64  29 2.75
  61  0.392  0.524  0.863-  13 2.50  30 2.62
  62  0.403  0.842  0.856-  14 2.57  31 2.58  34 2.74
  63  0.725  0.171  0.855-  15 2.51  32 2.65  35 2.75
  64  0.748  0.540  0.887-  16 2.60  33 2.62  20 2.67
  65  0.723  0.852  0.863-  19 2.49  33 2.61
  66  0.209  0.514  0.156-  17 2.56  22 2.57  23 2.78
  67  0.241  0.830  0.153-   2 2.51  28 2.56  23 2.67
  68  0.552  0.178  0.151-   3 2.57  24 2.60
  69  0.568  0.505  0.161-   4 2.48  25 2.61  27 2.65
  70  0.563  0.844  0.124-   5 2.47  28 2.70  36 2.77
  71  0.904  0.521  0.145-   7 2.62  22 2.63  27 2.83
  72  0.737  0.688  0.368-  36 2.61   4 2.62   7 2.70
 

IMPORTANT INFORMATION: All symmetrisations will be switched off!
NOSYMM: (Re-)initialisation of all symmetry stuff for point group C_1.


----------------------------------------------------------------------------------------

                                     Primitive cell                                     

  volume of cell :    1726.9981

  direct lattice vectors                    reciprocal lattice vectors
    12.454857289 -0.000005291 -0.000004276     0.080289961  0.000000034  0.000000035
    -0.000005318 12.517401549  0.000001839     0.000000034  0.079888785 -0.000000015
    -0.000004896  0.000002095 11.077427635     0.000000031 -0.000000013  0.090273666

  length of vectors
    12.454857289 12.517401549 11.077427635     0.080289961  0.079888785  0.090273666

  position of ions in fractional coordinates (direct lattice)
     0.093395817  0.046396523  0.131217122
     0.242002672  0.881260888  0.372067186
     0.593902622  0.176840552  0.378467185
     0.583916219  0.544837491  0.379647807
     0.561122696  0.868897170  0.345511423
     0.912639665  0.194977003  0.381675241
     0.904151398  0.551400966  0.379672191
     0.915222378  0.859806374  0.362009891
     0.078734529  0.161779175  0.636056524
     0.075489734  0.485569301  0.621831470
     0.090777392  0.813785679  0.622209715
     0.414792209  0.164243662  0.621096150
     0.434449876  0.511742878  0.643457282
     0.399221905  0.828991489  0.624446504
     0.754454978  0.166781383  0.630518680
     0.753729535  0.498384218  0.656902365
     0.241981042  0.507843264  0.383440094
     0.227397135  0.214870100  0.378189753
     0.757793402  0.840032761  0.642166118
     0.925547099  0.658773310  0.866912451
     0.929424592  0.986240251  0.860255445
     0.057629022  0.377424396  0.123967004
     0.076700396  0.693167512  0.137898900
     0.388328179  0.051964888  0.127246596
     0.409932171  0.369849954  0.140135243
     0.755259875  0.028478522  0.114859500
     0.731193902  0.377195167  0.111817810
     0.401100246  0.702342214  0.152678246
     0.239381733  0.335453781  0.867733832
     0.217334032  0.640468510  0.869188920
     0.248916849  0.979329636  0.866927609
     0.572493723  0.317490051  0.861913065
     0.596782116  0.685256718  0.877421129
     0.549883856  0.004607781  0.858512017
     0.896771042  0.308962868  0.867423762
     0.726141307  0.694589986  0.133017587
     0.892143415  0.006654838  0.632341135
     0.226507638  0.336510623  0.640547270
     0.229817907  0.667667989  0.633695876
     0.561700434  0.017304291  0.637040726
     0.586003346  0.372250738  0.635560421
     0.554276812  0.682973005  0.638017511
     0.891342124  0.350526127  0.638666266
     0.717150008  0.001011743  0.364255531
     0.072196830  0.010127799  0.354311234
     0.053840429  0.341011368  0.357903138
     0.064596488  0.683391307  0.363945019
     0.387456628  0.010804502  0.350317360
     0.392503407  0.351720722  0.361675458
     0.386313445  0.664215688  0.371836974
     0.246942196  0.026677820  0.645578235
     0.911541252  0.682023293  0.645219189
     0.904796502  0.834831587  0.127765615
     0.242179438  0.195228494  0.158757754
     0.917763395  0.154271047  0.147017516
     0.734274858  0.323662877  0.347138319
     0.052334068  0.171430475  0.856446565
     0.057807958  0.489308450  0.852786177
     0.084509185  0.845003555  0.866137968
     0.408226441  0.194610323  0.857078937
     0.392043575  0.523641604  0.863270324
     0.402700583  0.841648158  0.855560671
     0.725277706  0.170780638  0.855099382
     0.747795017  0.540309525  0.886795561
     0.722791720  0.851569347  0.862913288
     0.208782870  0.514415045  0.155684782
     0.240616458  0.830071023  0.153387790
     0.552428826  0.178131083  0.150753433
     0.567884140  0.504990786  0.161468528
     0.562754532  0.843943137  0.124006326
     0.904380737  0.520876402  0.145475436
     0.737214385  0.688243803  0.368323134

  ion indices of the primitive-cell ions
   primitive index   ion index
                 1           1
                 2           2
                 3           3
                 4           4
                 5           5
                 6           6
                 7           7
                 8           8
                 9           9
                10          10
                11          11
                12          12
                13          13
                14          14
                15          15
                16          16
                17          17
                18          18
                19          19
                20          20
                21          21
                22          22
                23          23
                24          24
                25          25
                26          26
                27          27
                28          28
                29          29
                30          30
                31          31
                32          32
                33          33
                34          34
                35          35
                36          36
                37          37
                38          38
                39          39
                40          40
                41          41
                42          42
                43          43
                44          44
                45          45
                46          46
                47          47
                48          48
                49          49
                50          50
                51          51
                52          52
                53          53
                54          54
                55          55
                56          56
                57          57
                58          58
                59          59
                60          60
                61          61
                62          62
                63          63
                64          64
                65          65
                66          66
                67          67
                68          68
                69          69
                70          70
                71          71
                72          72

----------------------------------------------------------------------------------------

 
 
 KPOINTS: KPOINTS created by Atomic Simulation Env

Automatic generation of k-mesh.
 Grid dimensions read from file:
 generate k-points for:    2    2    2

 Generating k-lattice:

  Cartesian coordinates                     Fractional coordinates (reciprocal lattice)
     0.040144980  0.000000017  0.000000018     0.500000000  0.000000000  0.000000000
     0.000000017  0.039944392 -0.000000008     0.000000000  0.500000000 -0.000000000
     0.000000015 -0.000000007  0.045136833     0.000000000 -0.000000000  0.500000000

  Length of vectors
     0.040144980  0.039944392  0.045136833

  Shift w.r.t. Gamma in fractional coordinates (k-lattice)
     0.000000000  0.000000000  0.000000000

 
 Subroutine IBZKPT returns following result:
 ===========================================
 
 Found      8 irreducible k-points:
 
 Following reciprocal coordinates:
            Coordinates               Weight
  0.000000  0.000000  0.000000      1.000000
  0.500000  0.000000  0.000000      1.000000
  0.000000  0.500000  0.000000      1.000000
  0.500000  0.500000  0.000000      1.000000
  0.000000  0.000000  0.500000      1.000000
  0.500000  0.000000  0.500000      1.000000
  0.000000  0.500000  0.500000      1.000000
  0.500000  0.500000  0.500000      1.000000
 
 Following cartesian coordinates:
            Coordinates               Weight
  0.000000  0.000000  0.000000      1.000000
  0.040145  0.000000  0.000000      1.000000
  0.000000  0.039944 -0.000000      1.000000
  0.040145  0.039944  0.000000      1.000000
  0.000000 -0.000000  0.045137      1.000000
  0.040145  0.000000  0.045137      1.000000
  0.000000  0.039944  0.045137      1.000000
  0.040145  0.039944  0.045137      1.000000
 
 -----------------------------------------------------------------------------
|                                                                             |
|           W    W    AA    RRRRR   N    N  II  N    N   GGGG   !!!           |
|           W    W   A  A   R    R  NN   N  II  NN   N  G    G  !!!           |
|           W    W  A    A  R    R  N N  N  II  N N  N  G       !!!           |
|           W WW W  AAAAAA  RRRRR   N  N N  II  N  N N  G  GGG   !            |
|           WW  WW  A    A  R   R   N   NN  II  N   NN  G    G                |
|           W    W  A    A  R    R  N    N  II  N    N   GGGG   !!!           |
|                                                                             |
|     The number of bands has been changed from the values supplied in        |
|     the INCAR file. This is a result of running the parallel version.       |
|     The orbitals not found in the WAVECAR file will be initialized with     |
|     random numbers, which is usually adequate. For correlated               |
|     calculations, however, you should redo the groundstate calculation.     |
|     I found NBANDS = 220. Now, NBANDS = 224.                                |
|                                                                             |
 -----------------------------------------------------------------------------



--------------------------------------------------------------------------------------------------------




 Dimension of arrays:
   k-points           NKPTS =      8   k-points in BZ     NKDIM =      8   number of bands    NBANDS=    224
   number of dos      NEDOS =    301   number of ions     NIONS =     72
   non local maximal  LDIM  =      5   non local SUM 2l+1 LMDIM =     13
   total plane-waves  NPLWV = 774144
   max r-space proj   IRMAX =      1   max aug-charges    IRDMAX=  24560
   dimension x,y,z NGX =    96 NGY =   96 NGZ =   84
   dimension x,y,z NGXF=   192 NGYF=  192 NGZF=  168
   support grid    NGXF=   192 NGYF=  192 NGZF=  168
   ions per type =              36  36
   NGX,Y,Z   is equivalent  to a cutoff of  12.81, 12.75, 12.61 a.u.
   NGXF,Y,Z  is equivalent  to a cutoff of  25.63, 25.50, 25.21 a.u.

 SYSTEM =  01_AOPT                                 
 POSCAR =  Ge Se                                   

 Startparameter for this run:
   NWRITE =      2    write-flag & timer
   PREC   = accura    normal or accurate (medium, high low for compatibility)
   ISTART =      0    job   : 0-new  1-cont  2-samecut
   ICHARG =      2    charge: 1-file 2-atom 10-const
   ISPIN  =      2    spin polarized calculation?
   LNONCOLLINEAR =      F non collinear calculations
   LSORBIT =      F    spin-orbit coupling
   INIWAV =      1    electr: 0-lowe 1-rand  2-diag
   LASPH  =      T    aspherical Exc in radial PAW
 Electronic Relaxation 1
   ENCUT  =  520.0 eV  38.22 Ry    6.18 a.u.  23.16 23.27 20.60*2*pi/ulx,y,z
   ENINI  =  520.0     initial cutoff
   ENAUG  =  446.8 eV  augmentation charge cutoff
   NELM   =    100;   NELMIN=  5; NELMDL=  0     # of ELM steps 
   EDIFF  = 0.1E-05   stopping-criterion for ELM
   LREAL  =      F    real-space projection
   NLSPLINE    = F    spline interpolate recip. space projectors
   LCOMPAT=      F    compatible to vasp.4.4
   GGA_COMPAT  = T    GGA compatible to vasp.4.4-vasp.4.6
   LMAXPAW     = -100 max onsite density
   LMAXMIX     =    2 max onsite mixed and CHGCAR
   VOSKOWN=      0    Vosko Wilk Nusair interpolation
   ROPT   =    0.00000   0.00000
 Ionic relaxation
   EDIFFG = 0.1E-04   stopping-criterion for IOM
   NSW    =      0    number of steps for IOM
   NBLOCK =      1;   KBLOCK =      1    inner block; outer block 
   IBRION =     -1    ionic relax: 0-MD 1-quasi-New 2-CG
   NFREE  =      0    steps in history (QN), initial steepest desc. (CG)
   ISIF   =      2    stress and relaxation
   IWAVPR =     10    prediction:  0-non 1-charg 2-wave 3-comb
   ISYM   =     -1    0-nonsym 1-usesym 2-fastsym
   LCORR  =      T    Harris-Foulkes like correction to forces

   POTIM  = 0.5000    time-step for ionic-motion
   TEIN   =    0.0    initial temperature
   TEBEG  =    0.0;   TEEND  =   0.0 temperature during run
   SMASS  =  -3.00    Nose mass-parameter (am)
   estimated Nose-frequenzy (Omega)   =  0.10E-29 period in steps = 0.13E+47 mass=  -0.354E-26a.u.
   SCALEE = 1.0000    scale energy and forces
   NPACO  =    256;   APACO  = 10.0  distance and # of slots for P.C.
   PSTRESS=    0.0 pullay stress

  Mass of Ions in am
   POMASS =  72.61 78.96
  Ionic Valenz
   ZVAL   =   4.00  6.00
  Atomic Wigner-Seitz radii
   RWIGS  =  -1.00 -1.00
  virtual crystal weights 
   VCA    =   1.00  1.00
   NELECT =     360.0000    total number of electrons
   NUPDOWN=      -1.0000    fix difference up-down

 DOS related values:
   EMIN   =  10.00;   EMAX   =-10.00  energy-range for DOS
   EFERMI =   0.00;   METHOD = LEGACY      
   ISMEAR =     0;   SIGMA  =   0.05  broadening in eV -4-tet -1-fermi 0-gaus

 Electronic relaxation 2 (details)
   IALGO  =     38    algorithm
   LDIAG  =      T    sub-space diagonalisation (order eigenvalues)
   LSUBROT=      F    optimize rotation matrix (better conditioning)
   TURBO    =      0    0=normal 1=particle mesh
   IRESTART =      0    0=no restart 2=restart with 2 vectors
   NREBOOT  =      0    no. of reboots
   NMIN     =      0    reboot dimension
   EREF     =   0.00    reference energy to select bands
   IMIX   =      4    mixing-type and parameters
     AMIX     =   0.40;   BMIX     =  1.00
     AMIX_MAG =   1.60;   BMIX_MAG =  1.00
     AMIN     =   0.10
     WC   =   100.;   INIMIX=   1;  MIXPRE=   1;  MAXMIX= -45

 Intra band minimization:
   WEIMIN = 0.0000     energy-eigenvalue tresh-hold
   EBREAK =  0.11E-08  absolut break condition
   DEPER  =   0.30     relativ break condition  

   TIME   =   0.40     timestep for ELM

  volume/ion in A,a.u.               =      23.99       161.87
  Fermi-wavevector in a.u.,A,eV,Ry     =   0.970685  1.834329 12.819812  0.942230
  Thomas-Fermi vector in A             =   2.100841
 
 Write flags
   LWAVE        =      F    write WAVECAR
   LDOWNSAMPLE  =      F    k-point downsampling of WAVECAR
   LCHARG       =      F    write CHGCAR
   LVTOT        =      F    write LOCPOT, total local potential
   LVHAR        =      F    write LOCPOT, Hartree potential only
   LELF         =      F    write electronic localiz. function (ELF)
   LORBIT       =     11    0 simple, 1 ext, 2 COOP (PROOUT), +10 PAW based schemes


 Dipole corrections
   LMONO  =      F    monopole corrections only (constant potential shift)
   LDIPOL =      F    correct potential (dipole corrections)
   IDIPOL =      0    1-x, 2-y, 3-z, 4-all directions 
   EPSILON=  1.0000000 bulk dielectric constant

 Exchange correlation treatment:
   GGA     =    PE    GGA type
   LEXCH   =     8    internal setting for exchange type
   LIBXC   =     F    Libxc                    
   VOSKOWN =     0    Vosko Wilk Nusair interpolation
   LHFCALC =     F    Hartree Fock is set to
   LHFONE  =     F    Hartree Fock one center treatment
   AEXX    =    0.0000 exact exchange contribution

 Linear response parameters
   LEPSILON=     F    determine dielectric tensor
   LRPA    =     F    only Hartree local field effects (RPA)
   LNABLA  =     F    use nabla operator in PAW spheres
   LVEL    =     F    velocity operator in full k-point grid
   CSHIFT  =0.1000    complex shift for real part using Kramers Kronig
   OMEGAMAX=  -1.0    maximum frequency
   DEG_THRESHOLD= 0.2000000E-02 threshold for treating states as degnerate
   RTIME   =   -0.100 relaxation time in fs
  (WPLASMAI=    0.000 imaginary part of plasma frequency in eV, 0.658/RTIME)
   DFIELD  = 0.0000000 0.0000000 0.0000000 field for delta impulse in time
 
  Optional k-point grid parameters
   LKPOINTS_OPT  =     F    use optional k-point grid
   KPOINTS_OPT_MODE=     1    mode for optional k-point grid
 
 Orbital magnetization related:
   ORBITALMAG=     F  switch on orbital magnetization
   LCHIMAG   =     F  perturbation theory with respect to B field
   DQ        =  0.001000  dq finite difference perturbation B field
   LLRAUG    =     F  two centre corrections for induced B field
   LBONE     =     F  B-component reconstruction in AE one-centre
   LVGVCALC  =     T  calculate vGv susceptibility
   LVGVAPPL  =     F  apply vGv susceptibility instead of pGv for G=0

 Random number generation:
   RANDOM_GENERATOR = DEFAULT
   PCG_SEED         = not used


--------------------------------------------------------------------------------------------------------


 Static calculation
 charge density and potential will be updated during run
 spin polarized calculation
 Variant of blocked Davidson
 Davidson routine will perform the subspace rotation
 perform sub-space diagonalisation
    after iterative eigenvector-optimisation
 modified Broyden-mixing scheme, WC =      100.0
 initial mixing is a Kerker type mixing with AMIX =  0.4000 and BMIX =      1.0000
 Hartree-type preconditioning will be used
 using additional bands            44
 reciprocal scheme for non local part
 use partial core corrections
 calculate Harris-corrections to forces 
   (improved forces if not selfconsistent)
 use gradient corrections 
 use of overlap-Matrix (Vanderbilt PP)
 Gauss-broadening in eV      SIGMA  =   0.05


--------------------------------------------------------------------------------------------------------


  energy-cutoff  :      520.00
  volume of cell :     1727.00
      direct lattice vectors                 reciprocal lattice vectors
    12.454857289 -0.000005291 -0.000004276     0.080289961  0.000000034  0.000000035
    -0.000005318 12.517401549  0.000001839     0.000000034  0.079888785 -0.000000015
    -0.000004896  0.000002095 11.077427635     0.000000031 -0.000000013  0.090273666

  length of vectors
    12.454857289 12.517401549 11.077427635     0.080289961  0.079888785  0.090273666


 
 k-points in units of 2pi/SCALE and weight: KPOINTS created by Atomic Simulation Env
   0.00000000  0.00000000  0.00000000       0.125
   0.04014498  0.00000002  0.00000002       0.125
   0.00000002  0.03994439 -0.00000001       0.125
   0.04014500  0.03994441  0.00000001       0.125
   0.00000002 -0.00000001  0.04513683       0.125
   0.04014500  0.00000001  0.04513685       0.125
   0.00000003  0.03994439  0.04513683       0.125
   0.04014501  0.03994440  0.04513684       0.125
 
 k-points in reciprocal lattice and weights: KPOINTS created by Atomic Simulation Env
   0.00000000  0.00000000  0.00000000       0.125
   0.50000000  0.00000000  0.00000000       0.125
   0.00000000  0.50000000  0.00000000       0.125
   0.50000000  0.50000000  0.00000000       0.125
   0.00000000  0.00000000  0.50000000       0.125
   0.50000000  0.00000000  0.50000000       0.125
   0.00000000  0.50000000  0.50000000       0.125
   0.50000000  0.50000000  0.50000000       0.125
 
 position of ions in fractional coordinates (direct lattice) 
   0.09339582  0.04639652  0.13121712
   0.24200267  0.88126089  0.37206719
   0.59390262  0.17684055  0.37846718
   0.58391622  0.54483749  0.37964781
   0.56112270  0.86889717  0.34551142
   0.91263967  0.19497700  0.38167524
   0.90415140  0.55140097  0.37967219
   0.91522238  0.85980637  0.36200989
   0.07873453  0.16177918  0.63605652
   0.07548973  0.48556930  0.62183147
   0.09077739  0.81378568  0.62220972
   0.41479221  0.16424366  0.62109615
   0.43444988  0.51174288  0.64345728
   0.39922191  0.82899149  0.62444650
   0.75445498  0.16678138  0.63051868
   0.75372954  0.49838422  0.65690237
   0.24198104  0.50784326  0.38344009
   0.22739714  0.21487010  0.37818975
   0.75779340  0.84003276  0.64216612
   0.92554710  0.65877331  0.86691245
   0.92942459  0.98624025  0.86025545
   0.05762902  0.37742440  0.12396700
   0.07670040  0.69316751  0.13789890
   0.38832818  0.05196489  0.12724660
   0.40993217  0.36984995  0.14013524
   0.75525988  0.02847852  0.11485950
   0.73119390  0.37719517  0.11181781
   0.40110025  0.70234221  0.15267825
   0.23938173  0.33545378  0.86773383
   0.21733403  0.64046851  0.86918892
   0.24891685  0.97932964  0.86692761
   0.57249372  0.31749005  0.86191306
   0.59678212  0.68525672  0.87742113
   0.54988386  0.00460778  0.85851202
   0.89677104  0.30896287  0.86742376
   0.72614131  0.69458999  0.13301759
   0.89214341  0.00665484  0.63234113
   0.22650764  0.33651062  0.64054727
   0.22981791  0.66766799  0.63369588
   0.56170043  0.01730429  0.63704073
   0.58600335  0.37225074  0.63556042
   0.55427681  0.68297301  0.63801751
   0.89134212  0.35052613  0.63866627
   0.71715001  0.00101174  0.36425553
   0.07219683  0.01012780  0.35431123
   0.05384043  0.34101137  0.35790314
   0.06459649  0.68339131  0.36394502
   0.38745663  0.01080450  0.35031736
   0.39250341  0.35172072  0.36167546
   0.38631345  0.66421569  0.37183697
   0.24694220  0.02667782  0.64557824
   0.91154125  0.68202329  0.64521919
   0.90479650  0.83483159  0.12776562
   0.24217944  0.19522849  0.15875775
   0.91776340  0.15427105  0.14701752
   0.73427486  0.32366288  0.34713832
   0.05233407  0.17143048  0.85644657
   0.05780796  0.48930845  0.85278618
   0.08450918  0.84500356  0.86613797
   0.40822644  0.19461032  0.85707894
   0.39204358  0.52364160  0.86327032
   0.40270058  0.84164816  0.85556067
   0.72527771  0.17078064  0.85509938
   0.74779502  0.54030952  0.88679556
   0.72279172  0.85156935  0.86291329
   0.20878287  0.51441504  0.15568478
   0.24061646  0.83007102  0.15338779
   0.55242883  0.17813108  0.15075343
   0.56788414  0.50499079  0.16146853
   0.56275453  0.84394314  0.12400633
   0.90438074  0.52087640  0.14547544
   0.73721439  0.68824380  0.36832313
 
 position of ions in cartesian coordinates  (Angst):
   1.16323069  0.58076369  1.45354786
   3.01410224 11.03109590  4.12154791
   7.39696961  2.21358185  4.19244064
   7.27258842  6.81994736  4.20551961
   6.98869679 10.87633253  3.82737698
  11.36679388  2.44060140  4.22797632
  11.26107184  6.90210331  4.20578837
  11.39895775 10.76253756  4.01013604
   0.98062335  2.02505582  7.04587008
   0.94020824  6.07806682  6.88829368
   1.13061208 10.18648295  6.89248420
   5.16617385  2.05590298  6.88014618
   5.41100533  6.40569014  7.12785056
   4.97224439 10.37681854  6.91726078
   9.39662510  2.08766687  6.98452214
   9.38758793  6.23847277  7.27678611
   3.01383476  6.35687758  4.24752979
   2.83219587  2.68961491  4.18936905
   9.43820106 10.51502472  7.11354701
  11.52754929  8.24612698  9.60315719
  11.57584120 12.34516213  9.52941528
   0.71775863  4.72437267  1.37323597
   0.95528812  8.67665597  1.52756603
   4.83657115  0.65046359  1.40956340
   5.10564403  4.62955851  1.55233694
   9.40665325  0.35647334  1.27234462
   9.10691314  4.72149973  1.23865127
   4.99564184  8.79149772  1.69128180
   2.98145929  4.19901023  9.61225832
   2.70685669  8.01700219  9.62837761
   3.10021438 12.25866280  9.60332859
   7.13032171  3.97414923  9.54777774
   7.43282815  8.57763219  9.71956777
   6.84872072  0.05767634  9.51010240
  11.16914945  3.86740935  9.60882068
   9.04398200  8.69445821  1.47349087
  11.11151578  0.08329788  7.00470936
   2.82111538  4.21223873  7.09561568
   2.86234258  8.35746843  7.01972046
   6.99589554  0.21660312  7.05677017
   7.29858296  4.65961019  7.04037276
   6.90343183  8.54904576  7.06759169
  11.10153396  4.38767291  7.07477618
   8.93199922  0.01266137  4.03501122
   0.89919942  0.12677409  3.92485676
   0.67057129  4.26857670  3.96464650
   0.80453462  8.55428382  4.03157559
   4.82571523  0.13524298  3.88061357
   4.88857028  4.40262819  4.00643268
   4.81147348  8.31425322  4.11899675
   3.07562651  0.33393703  7.15134518
  11.35310942  8.53715595  7.14736623
  11.26910624 10.44991768  1.41531202
   3.01630852  2.44375251  1.75862686
  11.43061057  1.93106810  1.62857225
   9.14528515  4.05141503  3.84539706
   0.65180825  2.14586561  9.48722494
   0.71998309  6.12487183  9.44667782
   1.05254110 10.57725018  9.59458185
   5.08439684  2.43601520  9.49422851
   4.88283977  6.55463196  9.56281383
   5.01556962 10.53524761  9.47741125
   9.03322523  2.13772778  9.47229873
   9.31367301  6.76326918  9.82341144
   9.00225897 10.65943345  9.55885798
   2.60035736  6.43913890  1.72458696
   2.99683848 10.39033135  1.69914265
   6.88042050  2.22973568  1.66995821
   7.07291245  6.32116977  1.78865443
   7.00902229 10.56397241  1.37367025
  11.26392954  6.52001459  1.61149071
   9.18189450  8.61502092  4.08007098
 


--------------------------------------------------------------------------------------------------------


 k-point   1 :   0.0000 0.0000 0.0000  plane waves:   46477
 k-point   2 :   0.5000 0.0000 0.0000  plane waves:   46522
 k-point   3 :   0.0000 0.5000 0.0000  plane waves:   46498
 k-point   4 :   0.5000 0.5000 0.0000  plane waves:   46552
 k-point   5 :   0.0000 0.0000 0.5000  plane waves:   46566
 k-point   6 :   0.5000 0.0000 0.5000  plane waves:   46468
 k-point   7 :   0.0000 0.5000 0.5000  plane waves:   46524
 k-point   8 :   0.5000 0.5000 0.5000  plane waves:   46472

 maximum and minimum number of plane-waves per node :      5848     5771

 maximum number of plane-waves:     46566
 maximum index in each direction: 
   IXMAX=   23   IYMAX=   23   IZMAX=   20
   IXMIN=  -23   IYMIN=  -23   IZMIN=  -21


 parallel 3D FFT for wavefunctions:
    minimum data exchange during FFTs selected (reduces bandwidth)
 parallel 3D FFT for charge:
    minimum data exchange during FFTs selected (reduces bandwidth)


 total amount of memory used by VASP MPI-rank0   111163. kBytes
=======================================================================

   base      :      30000. kBytes
   nonl-proj :      16467. kBytes
   fftplans  :       6179. kBytes
   grid      :      15593. kBytes
   one-center:        146. kBytes
   wavefun   :      42778. kBytes
 
     INWAV:  cpu time      0.0000: real time      0.0001
 Broyden mixing: mesh for mixing (old mesh)
   NGX = 47   NGY = 47   NGZ = 41
  (NGX  =192   NGY  =192   NGZ  =168)
  gives a total of  90569 points

 initial charge density was supplied:
 charge density of overlapping atoms calculated
 number of electron     360.0000000 magnetization      72.0000000
 keeping initial charge density in first step


--------------------------------------------------------------------------------------------------------


 Maximum index for augmentation-charges           644 (set IRDMAX)


--------------------------------------------------------------------------------------------------------


 First call to EWALD:  gamma=   0.148
 Maximum number of real-space cells 3x 3x 3
 Maximum number of reciprocal cells 3x 3x 3

    FEWALD:  cpu time      0.0021: real time      0.0021


--------------------------------------- Ionic step        1  -------------------------------------------




--------------------------------------- Iteration      1(   1)  ---------------------------------------


    POTLOK:  cpu time      0.1410: real time      0.1423
    SETDIJ:  cpu time      0.5948: real time      0.5964
     EDDAV:  cpu time      8.6552: real time      8.7012
       DOS:  cpu time      0.0018: real time      0.0018
    --------------------------------------------
      LOOP:  cpu time      9.3928: real time      9.4418

 eigenvalue-minimisations  :  7168
 total energy-change (2. order) : 0.1816315E+04  (-0.1418241E+05)
 number of electron     360.0000000 magnetization      72.0000000
 augmentation part      360.0000000 magnetization      72.0000000

 Free energy of the ion-electron system (eV)
  ---------------------------------------------------
  alpha Z        PSCENC =       794.73166470
  Ewald energy   TEWEN  =    -12848.76764015
  -Hartree energ DENC   =     -1118.16517255
  -exchange      EXHF   =         0.00000000
  -V(xc)+E(xc)   XCENC  =      -294.14868272
  PAW double counting   =     10738.42099860    -9719.93139476
  entropy T*S    EENTRO =        -0.02425500
  eigenvalues    EBANDS =      1227.74783272
  atomic energy  EATOM  =     13036.45147835
  Solvation  Ediel_sol  =         0.00000000
  ---------------------------------------------------
  free energy    TOTEN  =      1816.31482918 eV

  energy without entropy =     1816.33908418  energy(sigma->0) =     1816.32695668


--------------------------------------------------------------------------------------------------------




--------------------------------------- Iteration      1(   2)  ---------------------------------------


     EDDAV:  cpu time      9.8177: real time      9.8691
       DOS:  cpu time      0.0011: real time      0.0011
    --------------------------------------------
      LOOP:  cpu time      9.8189: real time      9.8702

 eigenvalue-minimisations  :  8472
 total energy-change (2. order) :-0.1880088E+04  (-0.1805724E+04)
 number of electron     360.0000000 magnetization      72.0000000
 augmentation part      360.0000000 magnetization      72.0000000

 Free energy of the ion-electron system (eV)
  ---------------------------------------------------
  alpha Z        PSCENC =       794.73166470
  Ewald energy   TEWEN  =    -12848.76764015
  -Hartree energ DENC   =     -1118.16517255
  -exchange      EXHF   =         0.00000000
  -V(xc)+E(xc)   XCENC  =      -294.14868272
  PAW double counting   =     10738.42099860    -9719.93139476
  entropy T*S    EENTRO =        -0.01994518
  eigenvalues    EBANDS =      -652.34399309
  atomic energy  EATOM  =     13036.45147835
  Solvation  Ediel_sol  =         0.00000000
  ---------------------------------------------------
  free energy    TOTEN  =       -63.77268680 eV

  energy without entropy =      -63.75274162  energy(sigma->0) =      -63.76271421


--------------------------------------------------------------------------------------------------------




--------------------------------------- Iteration      1(   3)  ---------------------------------------


     EDDAV:  cpu time      9.9124: real time      9.9643
       DOS:  cpu time      0.0012: real time      0.0012
    --------------------------------------------
      LOOP:  cpu time      9.9136: real time      9.9655

 eigenvalue-minimisations  :  8616
 total energy-change (2. order) :-0.2180224E+03  (-0.2121327E+03)
 number of electron     360.0000000 magnetization      72.0000000
 augmentation part      360.0000000 magnetization      72.0000000

 Free energy of the ion-electron system (eV)
  ---------------------------------------------------
  alpha Z        PSCENC =       794.73166470
  Ewald energy   TEWEN  =    -12848.76764015
  -Hartree energ DENC   =     -1118.16517255
  -exchange      EXHF   =         0.00000000
  -V(xc)+E(xc)   XCENC  =      -294.14868272
  PAW double counting   =     10738.42099860    -9719.93139476
  entropy T*S    EENTRO =        -0.00008268
  eigenvalues    EBANDS =      -870.38624723
  atomic energy  EATOM  =     13036.45147835
  Solvation  Ediel_sol  =         0.00000000
  ---------------------------------------------------
  free energy    TOTEN  =      -281.79507844 eV

  energy without entropy =     -281.79499577  energy(sigma->0) =     -281.79503710


--------------------------------------------------------------------------------------------------------




--------------------------------------- Iteration      1(   4)  ---------------------------------------


     EDDAV:  cpu time      9.9334: real time      9.9840
       DOS:  cpu time      0.0009: real time      0.0009
    --------------------------------------------
      LOOP:  cpu time      9.9343: real time      9.9849

 eigenvalue-minimisations  :  8656
 total energy-change (2. order) :-0.7908151E+01  (-0.7817232E+01)
 number of electron     360.0000000 magnetization      72.0000000
 augmentation part      360.0000000 magnetization      72.0000000

 Free energy of the ion-electron system (eV)
  ---------------------------------------------------
  alpha Z        PSCENC =       794.73166470
  Ewald energy   TEWEN  =    -12848.76764015
  -Hartree energ DENC   =     -1118.16517255
  -exchange      EXHF   =         0.00000000
  -V(xc)+E(xc)   XCENC  =      -294.14868272
  PAW double counting   =     10738.42099860    -9719.93139476
  entropy T*S    EENTRO =        -0.00000060
  eigenvalues    EBANDS =      -878.29448013
  atomic energy  EATOM  =     13036.45147835
  Solvation  Ediel_sol  =         0.00000000
  ---------------------------------------------------
  free energy    TOTEN  =      -289.70322927 eV

  energy without entropy =     -289.70322867  energy(sigma->0) =     -289.70322897


--------------------------------------------------------------------------------------------------------




--------------------------------------- Iteration      1(   5)  ---------------------------------------


     EDDAV:  cpu time     10.3849: real time     10.4383
       DOS:  cpu time      0.0012: real time      0.0012
    CHARGE:  cpu time      0.4206: real time      0.4221
    MIXING:  cpu time      0.0074: real time      0.0075
    --------------------------------------------
      LOOP:  cpu time     10.8141: real time     10.8691

 eigenvalue-minimisations  :  9112
 total energy-change (2. order) :-0.3118278E+00  (-0.3109872E+00)
 number of electron     359.9999995 magnetization      48.8157302
 augmentation part      -66.8551905 magnetization      49.0268425

 Broyden mixing:
  rms(total) = 0.29160E+01    rms(broyden)= 0.29159E+01
  rms(prec ) = 0.30749E+01
  weight for this iteration     100.00

 Free energy of the ion-electron system (eV)
  ---------------------------------------------------
  alpha Z        PSCENC =       794.73166470
  Ewald energy   TEWEN  =    -12848.76764015
  -Hartree energ DENC   =     -1118.16517255
  -exchange      EXHF   =         0.00000000
  -V(xc)+E(xc)   XCENC  =      -294.14868272
  PAW double counting   =     10738.42099860    -9719.93139476
  entropy T*S    EENTRO =        -0.00000050
  eigenvalues    EBANDS =      -878.60630805
  atomic energy  EATOM  =     13036.45147835
  Solvation  Ediel_sol  =         0.00000000
  ---------------------------------------------------
  free energy    TOTEN  =      -290.01505709 eV

  energy without entropy =     -290.01505659  energy(sigma->0) =     -290.01505684


--------------------------------------------------------------------------------------------------------




--------------------------------------- Iteration      1(   6)  ---------------------------------------


    POTLOK:  cpu time      0.1366: real time      0.1383
    SETDIJ:  cpu time      0.6096: real time      0.6113
     EDDAV:  cpu time      9.3849: real time      9.4378
       DOS:  cpu time      0.0009: real time      0.0009
    CHARGE:  cpu time      0.4220: real time      0.4250
    MIXING:  cpu time      0.0075: real time      0.0076
    --------------------------------------------
      LOOP:  cpu time     10.5614: real time     10.6208

 eigenvalue-minimisations  :  7992
 total energy-change (2. order) : 0.5165021E+00  (-0.2691478E+01)
 number of electron     359.9999995 magnetization      27.9744614
 augmentation part      -66.2393802 magnetization      29.1553801

 Broyden mixing:
  rms(total) = 0.17277E+01    rms(broyden)= 0.17277E+01
  rms(prec ) = 0.17645E+01
  weight for this iteration     100.00

 eigenvalues of (default mixing * dielectric matrix)
  average eigenvalue GAMMA=   1.0078
  1.0078

 Free energy of the ion-electron system (eV)
  ---------------------------------------------------
  alpha Z        PSCENC =       794.73166470
  Ewald energy   TEWEN  =    -12848.76764015
  -Hartree energ DENC   =     -1172.11137323
  -exchange      EXHF   =         0.00000000
  -V(xc)+E(xc)   XCENC  =      -287.61292606
  PAW double counting   =     13010.58650203   -11995.58426332
  entropy T*S    EENTRO =        -0.00000016
  eigenvalues    EBANDS =      -827.19199712
  atomic energy  EATOM  =     13036.45147835
  Solvation  Ediel_sol  =         0.00000000
  ---------------------------------------------------
  free energy    TOTEN  =      -289.49855497 eV

  energy without entropy =     -289.49855481  energy(sigma->0) =     -289.49855489


--------------------------------------------------------------------------------------------------------




--------------------------------------- Iteration      1(   7)  ---------------------------------------


    POTLOK:  cpu time      0.1329: real time      0.1335
    SETDIJ:  cpu time      0.5986: real time      0.6004
     EDDAV:  cpu time      9.4667: real time      9.5206
       DOS:  cpu time      0.0007: real time      0.0007
    CHARGE:  cpu time      0.4199: real time      0.4217
    MIXING:  cpu time      0.0076: real time      0.0076
    --------------------------------------------
      LOOP:  cpu time     10.6263: real time     10.6846

 eigenvalue-minimisations  :  8040
 total energy-change (2. order) :-0.7361394E+01  (-0.8770530E+00)
 number of electron     359.9999995 magnetization       9.3164474
 augmentation part      -66.2238195 magnetization       9.9905005

 Broyden mixing:
  rms(total) = 0.90967E+00    rms(broyden)= 0.90967E+00
  rms(prec ) = 0.92580E+00
  weight for this iteration     100.00

 eigenvalues of (default mixing * dielectric matrix)
  average eigenvalue GAMMA=   1.4527
  0.8626  2.0427

 Free energy of the ion-electron system (eV)
  ---------------------------------------------------
  alpha Z        PSCENC =       794.73166470
  Ewald energy   TEWEN  =    -12848.76764015
  -Hartree energ DENC   =     -1189.10745202
  -exchange      EXHF   =         0.00000000
  -V(xc)+E(xc)   XCENC  =      -290.56760539
  PAW double counting   =     15087.08896319   -14073.67839710
  entropy T*S    EENTRO =        -0.00000000
  eigenvalues    EBANDS =      -813.01096104
  atomic energy  EATOM  =     13036.45147835
  Solvation  Ediel_sol  =         0.00000000
  ---------------------------------------------------
  free energy    TOTEN  =      -296.85994947 eV

  energy without entropy =     -296.85994947  energy(sigma->0) =     -296.85994947


--------------------------------------------------------------------------------------------------------




--------------------------------------- Iteration      1(   8)  ---------------------------------------


    POTLOK:  cpu time      0.1318: real time      0.1325
    SETDIJ:  cpu time      0.5998: real time      0.6014
     EDDAV:  cpu time      9.6262: real time      9.6851
       DOS:  cpu time      0.0009: real time      0.0009
    CHARGE:  cpu time      0.4204: real time      0.4223
    MIXING:  cpu time      0.0075: real time      0.0076
    --------------------------------------------
      LOOP:  cpu time     10.7867: real time     10.8498

 eigenvalue-minimisations  :  8152
 total energy-change (2. order) :-0.3221578E+01  (-0.1720317E+00)
 number of electron     359.9999995 magnetization       4.4320920
 augmentation part      -66.2348429 magnetization       4.7416124

 Broyden mixing:
  rms(total) = 0.33374E+00    rms(broyden)= 0.33374E+00
  rms(prec ) = 0.33903E+00
  weight for this iteration     100.00

 eigenvalues of (default mixing * dielectric matrix)
  average eigenvalue GAMMA=   1.3564
  2.4944  0.9236  0.6513

 Free energy of the ion-electron system (eV)
  ---------------------------------------------------
  alpha Z        PSCENC =       794.73166470
  Ewald energy   TEWEN  =    -12848.76764015
  -Hartree energ DENC   =     -1193.48965318
  -exchange      EXHF   =         0.00000000
  -V(xc)+E(xc)   XCENC  =      -290.30949907
  PAW double counting   =     16843.85627033   -15831.35213950
  entropy T*S    EENTRO =        -0.00000000
  eigenvalues    EBANDS =      -811.20200861
  atomic energy  EATOM  =     13036.45147835
  Solvation  Ediel_sol  =         0.00000000
  ---------------------------------------------------
  free energy    TOTEN  =      -300.08152713 eV

  energy without entropy =     -300.08152713  energy(sigma->0) =     -300.08152713


--------------------------------------------------------------------------------------------------------




--------------------------------------- Iteration      1(   9)  ---------------------------------------


    POTLOK:  cpu time      0.1326: real time      0.1333
    SETDIJ:  cpu time      0.5989: real time      0.6004
     EDDAV:  cpu time     10.3487: real time     10.4008
       DOS:  cpu time      0.0008: real time      0.0008
    CHARGE:  cpu time      0.4244: real time      0.4259
    MIXING:  cpu time      0.0075: real time      0.0076
    --------------------------------------------
      LOOP:  cpu time     11.5129: real time     11.5687

 eigenvalue-minimisations  :  9056
 total energy-change (2. order) :-0.3868281E+00  (-0.4279911E-01)
 number of electron     359.9999995 magnetization       2.2971287
 augmentation part      -66.2731233 magnetization       2.4508300

 Broyden mixing:
  rms(total) = 0.14927E+00    rms(broyden)= 0.14927E+00
  rms(prec ) = 0.15088E+00
  weight for this iteration     100.00

 eigenvalues of (default mixing * dielectric matrix)
  average eigenvalue GAMMA=   1.3297
  2.6324  1.2350  0.8332  0.6182

 Free energy of the ion-electron system (eV)
  ---------------------------------------------------
  alpha Z        PSCENC =       794.73166470
  Ewald energy   TEWEN  =    -12848.76764015
  -Hartree energ DENC   =     -1192.47129785
  -exchange      EXHF   =         0.00000000
  -V(xc)+E(xc)   XCENC  =      -290.35178369
  PAW double counting   =     17134.45132522   -16122.28475621
  entropy T*S    EENTRO =        -0.00000000
  eigenvalues    EBANDS =      -812.22734558
  atomic energy  EATOM  =     13036.45147835
  Solvation  Ediel_sol  =         0.00000000
  ---------------------------------------------------
  free energy    TOTEN  =      -300.46835522 eV

  energy without entropy =     -300.46835522  energy(sigma->0) =     -300.46835522


--------------------------------------------------------------------------------------------------------




--------------------------------------- Iteration      1(  10)  ---------------------------------------


    POTLOK:  cpu time      0.1318: real time      0.1324
    SETDIJ:  cpu time      0.5990: real time      0.6009
     EDDAV:  cpu time      9.6367: real time      9.6845
       DOS:  cpu time      0.0011: real time      0.0011
    CHARGE:  cpu time      0.4290: real time      0.4306
    MIXING:  cpu time      0.0080: real time      0.0080
    --------------------------------------------
      LOOP:  cpu time     10.8056: real time     10.8575

 eigenvalue-minimisations  :  8192
 total energy-change (2. order) :-0.1077256E+00  (-0.9630163E-02)
 number of electron     359.9999995 magnetization       0.7425314
 augmentation part      -66.2755239 magnetization       0.8108679

 Broyden mixing:
  rms(total) = 0.73154E-01    rms(broyden)= 0.73154E-01
  rms(prec ) = 0.74263E-01
  weight for this iteration     100.00

 eigenvalues of (default mixing * dielectric matrix)
  average eigenvalue GAMMA=   1.3763
  2.7062  1.7544  0.9724  0.8234  0.6252

 Free energy of the ion-electron system (eV)
  ---------------------------------------------------
  alpha Z        PSCENC =       794.73166470
  Ewald energy   TEWEN  =    -12848.76764015
  -Hartree energ DENC   =     -1192.66965678
  -exchange      EXHF   =         0.00000000
  -V(xc)+E(xc)   XCENC  =      -290.34664129
  PAW double counting   =     17146.60771035   -16134.45469888
  entropy T*S    EENTRO =        -0.00000000
  eigenvalues    EBANDS =      -812.12829714
  atomic energy  EATOM  =     13036.45147835
  Solvation  Ediel_sol  =         0.00000000
  ---------------------------------------------------
  free energy    TOTEN  =      -300.57608085 eV

  energy without entropy =     -300.57608085  energy(sigma->0) =     -300.57608085


--------------------------------------------------------------------------------------------------------




--------------------------------------- Iteration      1(  11)  ---------------------------------------


    POTLOK:  cpu time      0.1316: real time      0.1322
    SETDIJ:  cpu time      0.5980: real time      0.6005
     EDDAV:  cpu time     10.2216: real time     10.2730
       DOS:  cpu time      0.0007: real time      0.0007
    CHARGE:  cpu time      0.4130: real time      0.4145
    MIXING:  cpu time      0.0080: real time      0.0080
    --------------------------------------------
      LOOP:  cpu time     11.3730: real time     11.4289

 eigenvalue-minimisations  :  8888
 total energy-change (2. order) :-0.3161609E-01  (-0.3634669E-02)
 number of electron     359.9999995 magnetization       0.1813182
 augmentation part      -66.2611763 magnetization       0.2005859

 Broyden mixing:
  rms(total) = 0.28497E-01    rms(broyden)= 0.28497E-01
  rms(prec ) = 0.28958E-01
  weight for this iteration     100.00

 eigenvalues of (default mixing * dielectric matrix)
  average eigenvalue GAMMA=   1.4056
  2.9121  2.1661  1.1748  0.8580  0.6986  0.6243

 Free energy of the ion-electron system (eV)
  ---------------------------------------------------
  alpha Z        PSCENC =       794.73166470
  Ewald energy   TEWEN  =    -12848.76764015
  -Hartree energ DENC   =     -1193.79407683
  -exchange      EXHF   =         0.00000000
  -V(xc)+E(xc)   XCENC  =      -290.30444981
  PAW double counting   =     17070.77609686   -16058.59647340
  entropy T*S    EENTRO =        -0.00000000
  eigenvalues    EBANDS =      -811.10429665
  atomic energy  EATOM  =     13036.45147835
  Solvation  Ediel_sol  =         0.00000000
  ---------------------------------------------------
  free energy    TOTEN  =      -300.60769694 eV

  energy without entropy =     -300.60769694  energy(sigma->0) =     -300.60769694


--------------------------------------------------------------------------------------------------------




--------------------------------------- Iteration      1(  12)  ---------------------------------------


    POTLOK:  cpu time      0.1345: real time      0.1361
    SETDIJ:  cpu time      0.5959: real time      0.5976
     EDDAV:  cpu time      9.9553: real time     10.0079
       DOS:  cpu time      0.0006: real time      0.0006
    CHARGE:  cpu time      0.4333: real time      0.4352
    MIXING:  cpu time      0.0079: real time      0.0080
    --------------------------------------------
      LOOP:  cpu time     11.1275: real time     11.1855

 eigenvalue-minimisations  :  8520
 total energy-change (2. order) :-0.3382807E-02  (-0.4729700E-03)
 number of electron     359.9999995 magnetization       0.0579228
 augmentation part      -66.2606581 magnetization       0.0625540

 Broyden mixing:
  rms(total) = 0.10639E-01    rms(broyden)= 0.10639E-01
  rms(prec ) = 0.11286E-01
  weight for this iteration     100.00

 eigenvalues of (default mixing * dielectric matrix)
  average eigenvalue GAMMA=   1.3690
  3.0144  2.3342  1.2040  0.8838  0.8838  0.6091  0.6541

 Free energy of the ion-electron system (eV)
  ---------------------------------------------------
  alpha Z        PSCENC =       794.73166470
  Ewald energy   TEWEN  =    -12848.76764015
  -Hartree energ DENC   =     -1193.88507285
  -exchange      EXHF   =         0.00000000
  -V(xc)+E(xc)   XCENC  =      -290.30780384
  PAW double counting   =     17034.66938758   -16022.46682667
  entropy T*S    EENTRO =        -0.00000000
  eigenvalues    EBANDS =      -811.03626686
  atomic energy  EATOM  =     13036.45147835
  Solvation  Ediel_sol  =         0.00000000
  ---------------------------------------------------
  free energy    TOTEN  =      -300.61107975 eV

  energy without entropy =     -300.61107975  energy(sigma->0) =     -300.61107975


--------------------------------------------------------------------------------------------------------




--------------------------------------- Iteration      1(  13)  ---------------------------------------


    POTLOK:  cpu time      0.1315: real time      0.1322
    SETDIJ:  cpu time      0.6008: real time      0.6025
     EDDAV:  cpu time     11.0665: real time     11.1240
       DOS:  cpu time      0.0006: real time      0.0006
    CHARGE:  cpu time      0.4273: real time      0.4293
    MIXING:  cpu time      0.0082: real time      0.0083
    --------------------------------------------
      LOOP:  cpu time     12.2349: real time     12.2968

 eigenvalue-minimisations  :  9856
 total energy-change (2. order) :-0.1214296E-03  (-0.6109188E-04)
 number of electron     359.9999995 magnetization       0.0154801
 augmentation part      -66.2619717 magnetization       0.0162875

 Broyden mixing:
  rms(total) = 0.43229E-02    rms(broyden)= 0.43229E-02
  rms(prec ) = 0.45461E-02
  weight for this iteration     100.00

 eigenvalues of (default mixing * dielectric matrix)
  average eigenvalue GAMMA=   1.3451
  3.0591  2.4301  1.0882  1.0345  1.0345  0.8565  0.6490  0.6092

 Free energy of the ion-electron system (eV)
  ---------------------------------------------------
  alpha Z        PSCENC =       794.73166470
  Ewald energy   TEWEN  =    -12848.76764015
  -Hartree energ DENC   =     -1193.78409336
  -exchange      EXHF   =         0.00000000
  -V(xc)+E(xc)   XCENC  =      -290.31854630
  PAW double counting   =     17020.60818889   -16008.39440270
  entropy T*S    EENTRO =        -0.00000000
  eigenvalues    EBANDS =      -811.13785059
  atomic energy  EATOM  =     13036.45147835
  Solvation  Ediel_sol  =         0.00000000
  ---------------------------------------------------
  free energy    TOTEN  =      -300.61120118 eV

  energy without entropy =     -300.61120118  energy(sigma->0) =     -300.61120118


--------------------------------------------------------------------------------------------------------




--------------------------------------- Iteration      1(  14)  ---------------------------------------


    POTLOK:  cpu time      0.1309: real time      0.1316
    SETDIJ:  cpu time      0.6005: real time      0.6025
     EDDAV:  cpu time      9.6684: real time      9.7177
       DOS:  cpu time      0.0008: real time      0.0009
    CHARGE:  cpu time      0.4245: real time      0.4264
    MIXING:  cpu time      0.0086: real time      0.0086
    --------------------------------------------
      LOOP:  cpu time     10.8336: real time     10.8876

 eigenvalue-minimisations  :  8296
 total energy-change (2. order) :-0.1559341E-04  (-0.9890151E-05)
 number of electron     359.9999995 magnetization       0.0051232
 augmentation part      -66.2616796 magnetization       0.0054358

 Broyden mixing:
  rms(total) = 0.17314E-02    rms(broyden)= 0.17314E-02
  rms(prec ) = 0.18392E-02
  weight for this iteration     100.00

 eigenvalues of (default mixing * dielectric matrix)
  average eigenvalue GAMMA=   1.3336
  3.0827  2.4650  1.4629  1.1933  0.8845  0.8845  0.7750  0.6121  0.6422

 Free energy of the ion-electron system (eV)
  ---------------------------------------------------
  alpha Z        PSCENC =       794.73166470
  Ewald energy   TEWEN  =    -12848.76764015
  -Hartree energ DENC   =     -1193.78572306
  -exchange      EXHF   =         0.00000000
  -V(xc)+E(xc)   XCENC  =      -290.31937155
  PAW double counting   =     17016.26679056   -16004.05021231
  entropy T*S    EENTRO =        -0.00000000
  eigenvalues    EBANDS =      -811.13820330
  atomic energy  EATOM  =     13036.45147835
  Solvation  Ediel_sol  =         0.00000000
  ---------------------------------------------------
  free energy    TOTEN  =      -300.61121677 eV

  energy without entropy =     -300.61121677  energy(sigma->0) =     -300.61121677


--------------------------------------------------------------------------------------------------------




--------------------------------------- Iteration      1(  15)  ---------------------------------------


    POTLOK:  cpu time      0.1314: real time      0.1320
    SETDIJ:  cpu time      0.6059: real time      0.6079
     EDDAV:  cpu time      9.9197: real time      9.9711
       DOS:  cpu time      0.0007: real time      0.0007
    CHARGE:  cpu time      0.4182: real time      0.4199
    MIXING:  cpu time      0.0082: real time      0.0082
    --------------------------------------------
      LOOP:  cpu time     11.0842: real time     11.1399

 eigenvalue-minimisations  :  8592
 total energy-change (2. order) :-0.3232563E-05  (-0.1774600E-05)
 number of electron     359.9999995 magnetization       0.0019063
 augmentation part      -66.2618426 magnetization       0.0021208

 Broyden mixing:
  rms(total) = 0.80721E-03    rms(broyden)= 0.80721E-03
  rms(prec ) = 0.85509E-03
  weight for this iteration     100.00

 eigenvalues of (default mixing * dielectric matrix)
  average eigenvalue GAMMA=   1.2993
  3.0932  2.4403  1.6817  1.1143  0.9469  0.9469  0.8250  0.7049  0.6197  0.6197

 Free energy of the ion-electron system (eV)
  ---------------------------------------------------
  alpha Z        PSCENC =       794.73166470
  Ewald energy   TEWEN  =    -12848.76764015
  -Hartree energ DENC   =     -1193.77109423
  -exchange      EXHF   =         0.00000000
  -V(xc)+E(xc)   XCENC  =      -290.31997116
  PAW double counting   =     17015.72104834   -16003.50363895
  entropy T*S    EENTRO =        -0.00000000
  eigenvalues    EBANDS =      -811.15306689
  atomic energy  EATOM  =     13036.45147835
  Solvation  Ediel_sol  =         0.00000000
  ---------------------------------------------------
  free energy    TOTEN  =      -300.61122000 eV

  energy without entropy =     -300.61122000  energy(sigma->0) =     -300.61122000


--------------------------------------------------------------------------------------------------------




--------------------------------------- Iteration      1(  16)  ---------------------------------------


    POTLOK:  cpu time      0.1312: real time      0.1318
    SETDIJ:  cpu time      0.6009: real time      0.6029
     EDDAV:  cpu time      6.8140: real time      6.8497
       DOS:  cpu time      0.0011: real time      0.0011
    --------------------------------------------
      LOOP:  cpu time      7.5472: real time      7.5856

 eigenvalue-minimisations  :  4952
 total energy-change (2. order) :-0.7327715E-06  (-0.1509759E-06)
 number of electron     359.9999995 magnetization       0.0019063
 augmentation part      -66.2618426 magnetization       0.0021208

 Free energy of the ion-electron system (eV)
  ---------------------------------------------------
  alpha Z        PSCENC =       794.73166470
  Ewald energy   TEWEN  =    -12848.76764015
  -Hartree energ DENC   =     -1193.76531625
  -exchange      EXHF   =         0.00000000
  -V(xc)+E(xc)   XCENC  =      -290.32020400
  PAW double counting   =     17015.71657392   -16003.49895654
  entropy T*S    EENTRO =        -0.00000000
  eigenvalues    EBANDS =      -811.15882076
  atomic energy  EATOM  =     13036.45147835
  Solvation  Ediel_sol  =         0.00000000
  ---------------------------------------------------
  free energy    TOTEN  =      -300.61122074 eV

  energy without entropy =     -300.61122074  energy(sigma->0) =     -300.61122074


--------------------------------------------------------------------------------------------------------




 average (electrostatic) potential at core
  the test charge radii are     1.1631  1.0808
  (the norm of the test charge is              1.0000)
       1 -33.3759       2 -33.2137       3 -33.3694       4 -33.4809       5 -33.3239
       6 -33.5584       7 -33.4657       8 -33.6120       9 -33.5923      10 -33.6823
      11 -33.5430      12 -33.5957      13 -33.1752      14 -33.5754      15 -33.6633
      16 -33.4072      17 -33.5001      18 -33.4082      19 -33.5136      20 -33.4375
      21 -33.5953      22 -33.4653      23 -33.3656      24 -33.3207      25 -33.5027
      26 -33.8608      27 -33.7146      28 -33.2301      29 -33.7099      30 -33.5692
      31 -33.3234      32 -33.4428      33 -33.4610      34 -33.4850      35 -33.6342
      36 -33.6620      37 -54.9875      38 -54.8163      39 -54.8900      40 -54.7749
      41 -54.8869      42 -54.7259      43 -55.0835      44 -54.8025      45 -54.8563
      46 -54.9508      47 -54.8085      48 -54.8613      49 -54.7510      50 -54.7284
      51 -54.8540      52 -54.9032      53 -54.6786      54 -55.0174      55 -54.8526
      56 -54.6484      57 -55.0450      58 -55.0523      59 -54.9251      60 -54.9459
      61 -54.6085      62 -54.8232      63 -55.0059      64 -54.8987      65 -54.8207
      66 -54.7679      67 -54.7884      68 -54.6902      69 -55.0016      70 -54.8558
      71 -54.8406      72 -54.9619
 
 
 
 E-fermi :   3.4680     XC(G=0):  -9.3630     alpha+bet : -8.7970

 Fermi energy:         3.4680269077

 spin component 1

 k-point     1 :       0.0000    0.0000    0.0000
  band No.  band energies     occupation 
      1     -10.9023      1.00000
      2     -10.6030      1.00000
      3     -10.4085      1.00000
      4     -10.3647      1.00000
      5     -10.2788      1.00000
      6     -10.2138      1.00000
      7     -10.0981      1.00000
      8     -10.0674      1.00000
      9     -10.0558      1.00000
     10      -9.9503      1.00000
     11      -9.8935      1.00000
     12      -9.8503      1.00000
     13      -9.8235      1.00000
     14      -9.7671      1.00000
     15      -9.7292      1.00000
     16      -9.6722      1.00000
     17      -9.6204      1.00000
     18      -9.5981      1.00000
     19      -9.5498      1.00000
     20      -9.5049      1.00000
     21      -9.4578      1.00000
     22      -9.4157      1.00000
     23      -9.3914      1.00000
     24      -9.3354      1.00000
     25      -9.3216      1.00000
     26      -9.3041      1.00000
     27      -9.2559      1.00000
     28      -9.2082      1.00000
     29      -9.1860      1.00000
     30      -9.1463      1.00000
     31      -9.1328      1.00000
     32      -9.0937      1.00000
     33      -9.0591      1.00000
     34      -9.0064      1.00000
     35      -8.9528      1.00000
     36      -8.9412      1.00000
     37      -5.4375      1.00000
     38      -5.3949      1.00000
     39      -5.3031      1.00000
     40      -5.2514      1.00000
     41      -5.1090      1.00000
     42      -5.0236      1.00000
     43      -5.0134      1.00000
     44      -4.9533      1.00000
     45      -4.7644      1.00000
     46      -4.7376      1.00000
     47      -4.5921      1.00000
     48      -4.5254      1.00000
     49      -4.4925      1.00000
     50      -4.4516      1.00000
     51      -4.4416      1.00000
     52      -4.4163      1.00000
     53      -4.3784      1.00000
     54      -4.3300      1.00000
     55      -4.3127      1.00000
     56      -4.2774      1.00000
     57      -4.2711      1.00000
     58      -4.2591      1.00000
     59      -4.2096      1.00000
     60      -4.1894      1.00000
     61      -4.1594      1.00000
     62      -4.0330      1.00000
     63      -3.9912      1.00000
     64      -3.9330      1.00000
     65      -3.9140      1.00000
     66      -3.8382      1.00000
     67      -3.7238      1.00000
     68      -3.7017      1.00000
     69      -3.5988      1.00000
     70      -3.5286      1.00000
     71      -2.5843      1.00000
     72      -2.4197      1.00000
     73      -1.8329      1.00000
     74      -1.6355      1.00000
     75      -1.5846      1.00000
     76      -1.5210      1.00000
     77      -1.4668      1.00000
     78      -1.3991      1.00000
     79      -1.3650      1.00000
     80      -1.3405      1.00000
     81      -1.2739      1.00000
     82      -1.1926      1.00000
     83      -1.1417      1.00000
     84      -1.0381      1.00000
     85      -0.9454      1.00000
     86      -0.8382      1.00000
     87      -0.8013      1.00000
     88      -0.7761      1.00000
     89      -0.7099      1.00000
     90      -0.6346      1.00000
     91      -0.5606      1.00000
     92      -0.5493      1.00000
     93      -0.4655      1.00000
     94      -0.3017      1.00000
     95      -0.1520      1.00000
     96      -0.0956      1.00000
     97      -0.0631      1.00000
     98      -0.0198      1.00000
     99       0.0225      1.00000
    100       0.0319      1.00000
    101       0.0501      1.00000
    102       0.0620      1.00000
    103       0.1534      1.00000
    104       0.1844      1.00000
    105       0.2317      1.00000
    106       0.2644      1.00000
    107       0.2740      1.00000
    108       0.3602      1.00000
    109       0.3979      1.00000
    110       0.4119      1.00000
    111       0.4498      1.00000
    112       0.4857      1.00000
    113       0.5368      1.00000
    114       0.5822      1.00000
    115       0.6129      1.00000
    116       0.6666      1.00000
    117       0.6825      1.00000
    118       0.7253      1.00000
    119       0.7351      1.00000
    120       0.7734      1.00000
    121       0.8200      1.00000
    122       0.8510      1.00000
    123       0.9044      1.00000
    124       0.9242      1.00000
    125       0.9469      1.00000
    126       0.9719      1.00000
    127       1.0016      1.00000
    128       1.0349      1.00000
    129       1.1023      1.00000
    130       1.1147      1.00000
    131       1.1483      1.00000
    132       1.1970      1.00000
    133       1.2236      1.00000
    134       1.2466      1.00000
    135       1.2899      1.00000
    136       1.3282      1.00000
    137       1.3816      1.00000
    138       1.4426      1.00000
    139       1.4687      1.00000
    140       1.5274      1.00000
    141       1.5581      1.00000
    142       1.5630      1.00000
    143       1.5929      1.00000
    144       1.6611      1.00000
    145       1.6994      1.00000
    146       1.7583      1.00000
    147       1.7759      1.00000
    148       1.7931      1.00000
    149       1.8667      1.00000
    150       1.8893      1.00000
    151       1.9126      1.00000
[...]
   0.110E+02 -.545E+01 -.312E+02   -.115E+02 0.746E+01 0.339E+02   0.464E+00 -.200E+01 -.267E+01   -.224E-03 -.132E-03 -.745E-04
   0.288E+01 0.306E+01 0.151E+02   -.277E+01 -.446E+01 -.173E+02   0.283E+00 0.195E+01 0.249E+01   -.276E-03 -.327E-03 0.203E-03
   -.111E+02 0.433E+01 0.263E+02   0.122E+02 -.445E+01 -.284E+02   -.811E+00 0.181E+00 0.226E+01   0.371E-03 0.235E-03 0.682E-04
   -.225E+02 0.147E+01 0.166E+02   0.236E+02 -.155E+01 -.183E+02   -.149E+01 0.170E+00 0.170E+01   0.281E-03 -.178E-03 -.125E-03
   -.136E+02 0.584E+01 0.137E+02   0.144E+02 -.661E+01 -.153E+02   -.706E+00 0.866E+00 0.206E+01   0.130E-03 0.375E-03 0.595E-05
   -.115E+02 0.903E+01 0.312E+02   0.122E+02 -.974E+01 -.333E+02   -.798E+00 0.647E+00 0.164E+01   -.223E-03 0.268E-03 0.409E-04
   0.381E+01 0.143E+02 0.251E+02   -.388E+01 -.154E+02 -.270E+02   -.111E-01 0.606E+00 0.243E+01   -.116E-03 0.390E-03 0.382E-03
   -.218E+02 -.475E+01 0.205E+02   0.231E+02 0.501E+01 -.223E+02   -.953E+00 -.147E+00 0.220E+01   0.388E-04 -.661E-03 -.453E-05
   0.114E+01 0.622E+01 0.280E+02   -.595E+00 -.664E+01 -.298E+02   -.283E+00 -.147E-01 0.199E+01   -.554E-03 0.298E-04 0.988E-04
   -.162E+02 0.754E-01 -.121E+02   0.172E+02 -.183E+00 0.134E+02   -.686E+00 0.433E+00 -.202E+01   -.426E-03 -.343E-04 -.233E-04
   0.113E+02 -.281E+01 -.311E+02   -.115E+02 0.352E+01 0.329E+02   0.315E+00 -.905E+00 -.159E+01   0.618E-03 -.506E-04 -.131E-03
   0.125E+02 -.958E+01 -.189E+02   -.125E+02 0.109E+02 0.202E+02   0.275E+00 -.123E+01 -.145E+01   -.300E-03 -.195E-03 -.486E-04
   -.677E+01 -.703E+01 -.276E+02   0.793E+01 0.715E+01 0.293E+02   -.159E+01 0.233E-01 -.149E+01   -.153E-03 0.117E-03 0.337E-04
   -.184E+02 -.116E+02 -.282E+02   0.192E+02 0.130E+02 0.300E+02   0.752E-01 -.101E+01 -.160E+01   -.399E-03 -.336E-03 -.333E-03
   -.309E+02 0.423E+01 -.350E+02   0.322E+02 -.433E+01 0.371E+02   -.157E+01 0.137E+00 -.160E+01   0.225E-03 -.153E-03 0.370E-03
   -.130E+02 -.793E+01 -.217E+02   0.132E+02 0.891E+01 0.241E+02   0.381E+00 -.107E+01 -.200E+01   0.411E-03 0.423E-03 -.126E-03
   0.600E+01 0.594E+01 0.205E+02   -.617E+01 -.688E+01 -.225E+02   -.115E+00 0.104E+01 0.163E+01   -.251E-03 -.293E-03 0.255E-03
   0.122E+02 -.159E+01 0.262E+02   -.124E+02 0.105E+01 -.282E+02   0.284E+00 0.100E+01 0.161E+01   -.258E-03 -.141E-03 0.134E-03
   0.545E+01 -.158E+02 0.257E+02   -.529E+01 0.162E+02 -.274E+02   -.937E+00 -.950E-01 0.218E+01   0.158E-03 -.270E-03 -.795E-04
   0.332E+01 -.121E+02 0.466E+02   -.366E+01 0.134E+02 -.485E+02   -.198E+00 -.131E+01 0.104E+01   -.189E-04 -.764E-03 -.345E-03
   0.194E+02 -.163E+02 0.267E+02   -.197E+02 0.180E+02 -.279E+02   -.255E+00 -.114E+01 0.136E+01   0.292E-03 0.375E-03 -.134E-03
   -.193E+01 -.165E+02 -.127E+02   0.221E+01 0.179E+02 0.140E+02   0.150E+00 -.131E+01 -.162E+01   -.102E-03 0.239E-03 0.167E-04
   -.154E+02 0.450E+01 -.358E+02   0.164E+02 -.468E+01 0.379E+02   -.990E+00 0.122E+00 -.164E+01   0.137E-03 -.185E-03 0.237E-03
   -.888E+00 0.110E+02 -.290E+02   0.654E+00 -.116E+02 0.304E+02   0.424E+00 0.119E+01 -.133E+01   -.454E-03 0.121E-03 0.243E-03
   0.298E+00 0.104E+01 -.220E+02   -.407E+00 -.193E+01 0.237E+02   0.161E-01 0.121E+01 -.231E+01   0.314E-03 0.245E-03 -.432E-04
   0.101E+02 -.333E+00 -.272E+02   -.107E+02 -.467E+00 0.288E+02   0.440E+00 0.651E+00 -.183E+01   0.280E-03 -.647E-04 0.154E-03
   -.185E+02 0.776E+01 -.399E+02   0.195E+02 -.786E+01 0.423E+02   -.132E+01 -.445E+00 -.193E+01   0.932E-03 -.690E-05 -.326E-03
   0.115E+01 0.171E+02 -.318E+02   -.966E+00 -.184E+02 0.334E+02   -.430E+00 0.158E+01 -.176E+01   -.340E-03 0.270E-03 0.327E-03
   -.408E+00 0.648E+01 -.397E+02   0.539E+00 -.754E+01 0.414E+02   0.415E-01 0.126E+01 -.158E+01   -.176E-03 0.893E-03 0.124E-03
   0.166E+02 0.220E+02 -.196E+02   -.167E+02 -.230E+02 0.213E+02   0.119E+00 0.670E+00 -.222E+01   -.546E-03 -.313E-03 0.336E-04
   -.108E+02 -.118E+02 -.248E+02   0.114E+02 0.125E+02 0.268E+02   -.603E+00 -.548E+00 -.182E+01   -.161E-03 -.424E-03 0.316E-04
   -.244E+02 -.970E+00 0.376E+02   0.255E+02 0.146E+01 -.394E+02   -.653E+00 -.691E+00 0.146E+01   0.337E-04 0.934E-04 -.173E-03
   -.393E+00 -.122E+02 0.399E+02   0.208E+00 0.136E+02 -.421E+02   -.106E+00 -.106E+01 0.176E+01   0.295E-03 0.596E-03 0.121E-03
   -.221E+02 -.606E+01 0.304E+02   0.230E+02 0.651E+01 -.319E+02   -.841E+00 -.280E+00 0.136E+01   -.137E-03 0.147E-04 -.699E-04
   0.413E+01 -.451E+01 0.340E+02   -.443E+01 0.570E+01 -.360E+02   0.657E+00 -.992E+00 0.127E+01   0.368E-03 0.248E-03 -.554E-03
   -.134E+01 -.138E+02 0.255E+02   0.130E+01 0.147E+02 -.274E+02   0.114E-01 -.110E+01 0.202E+01   -.449E-03 -.403E-03 0.388E-03
   0.161E+02 0.673E+01 0.178E+02   -.166E+02 -.586E+01 -.194E+02   -.943E-01 -.123E+01 0.177E+01   -.523E-03 -.186E-03 0.386E-04
   0.653E+01 -.103E+02 -.287E+02   -.671E+01 0.114E+02 0.305E+02   0.486E-01 -.113E+01 -.219E+01   -.279E-03 -.352E-03 0.572E-04
 -----------------------------------------------------------------------------------------------
   -.126E+02 -.508E+00 0.134E+01   0.107E-12 0.444E-13 0.462E-13   0.126E+02 0.508E+00 -.134E+01   -.866E-03 0.884E-04 0.337E-03
 
 
 POSITION                                       TOTAL-FORCE (eV/Angst)
 -----------------------------------------------------------------------------------
      1.16323      0.58076      1.45355        -0.056886     -0.389763     -0.186978
      3.01410     11.03110      4.12155        -0.579236     -0.626118      0.513843
      7.39697      2.21358      4.19244        -0.037300      0.117006     -0.234547
      7.27259      6.81995      4.20552        -0.382500     -0.061490      0.688828
      6.98870     10.87633      3.82738        -0.168398     -0.040534      0.531386
     11.36679      2.44060      4.22798        -0.401223      0.035950     -0.447165
     11.26107      6.90210      4.20579         0.018853     -0.050827     -0.248899
     11.39896     10.76254      4.01014         0.265927     -0.054729     -0.577556
      0.98062      2.02506      7.04587         0.560176      0.087167     -0.420971
      0.94021      6.07807      6.88829         0.156288     -0.240871      0.067641
      1.13061     10.18648      6.89248        -0.309475     -0.032557      0.335092
      5.16617      2.05590      6.88015        -0.145759     -0.172554      0.255076
      5.41101      6.40569      7.12785        -0.370763      0.177840     -0.331696
      4.97224     10.37682      6.91726         0.239631     -0.397701      0.200585
      9.39663      2.08767      6.98452        -0.302081     -0.325560     -0.111324
      9.38759      6.23847      7.27679        -0.379066      0.419072     -0.110230
      3.01383      6.35688      4.24753         0.353034      0.220415     -0.150991
      2.83220      2.68961      4.18937         0.198405      0.044396      0.555367
      9.43820     10.51502      7.11355        -0.066240     -0.232183     -0.301300
     11.52755      8.24613      9.60316        -0.134637     -0.133253      0.445030
     11.57584     12.34516      9.52942        -0.045581      0.118381      0.099155
      0.71776      4.72437      1.37324        -0.037910      0.071774      0.281712
      0.95529      8.67666      1.52757         0.164202      0.071963     -0.105185
      4.83657      0.65046      1.40956         0.302606     -0.134090     -0.228927
      5.10564      4.62956      1.55234        -0.014154     -0.273383     -0.229258
      9.40665      0.35647      1.27234         0.128496     -0.350862      0.735862
      9.10691      4.72150      1.23865         0.186013      0.126287      0.569220
      4.99564      8.79150      1.69128         0.010054     -0.281686     -0.697617
      2.98146      4.19901      9.61226         0.471462      0.222585     -0.165437
      2.70686      8.01700      9.62838         0.415515     -0.216526     -0.381416
      3.10021     12.25866      9.60333        -0.045678      0.123982      0.449614
      7.13032      3.97415      9.54778         0.214545      0.383776      0.085320
      7.43283      8.57763      9.71957        -0.253169     -0.074318     -0.489643
      6.84872      0.05768      9.51010         0.181713     -0.465298      0.394968
     11.16915      3.86741      9.60882        -0.078278      0.010022      0.072970
      9.04398      8.69446      1.47349         0.394756      0.548059      0.314617
     11.11152      0.08330      7.00471         0.263654      0.060096      0.141695
      2.82112      4.21224      7.09562        -0.384097      0.088761      0.042226
      2.86234      8.35747      7.01972         0.012457      0.091100      0.529519
      6.99590      0.21660      7.05677        -0.037810     -0.066013     -0.457219
      7.29858      4.65961      7.04037        -0.073750     -0.511131      0.479274
      6.90343      8.54905      7.06759         0.307848      0.116024      0.414575
     11.10153      4.38767      7.07478         0.263976     -0.441425      0.160146
      8.93200      0.01266      4.03501         0.348711      0.326139     -0.761217
      0.89920      0.12677      3.92486         0.072384     -0.194226      0.172434
      0.67057      4.26858      3.96465         0.212457      0.107117     -0.136796
      0.80453      8.55428      4.03158        -0.429851      0.146381      0.258084
      4.82572      0.13524      3.88061         0.810026      0.421671      0.161123
      4.88857      4.40263      4.00643        -0.303736      0.036040      0.487257
      4.81147      8.31425      4.11900         0.643934     -0.090531      0.387134
      3.07563      0.33394      7.15135        -0.290329      0.102477     -0.315427
     11.35311      8.53716      7.14737         0.068899      0.465358     -0.394647
     11.26911     10.44992      1.41531        -0.782960      0.331079      0.491468
      3.01631      2.44375      1.75863        -0.540661     -0.075782     -0.886006
     11.43061      1.93107      1.62857        -0.525593      0.527798      0.118430
      9.14529      4.05142      3.84540         0.435331      0.100978     -0.270704
      0.65181      2.14587      9.48722         0.059342     -0.057132      0.481858
      0.71998      6.12487      9.44668         0.189372      0.566262      0.095189
      1.05254     10.57725      9.59458        -0.092123      0.316419     -0.649712
      5.08440      2.43602      9.49423        -0.172177     -0.148797     -0.231344
      4.88284      6.55463      9.56281        -0.309525     -0.547236      0.468305
      5.01557     10.53525      9.47741        -0.249413      0.262733     -0.206990
      9.03323      2.13773      9.47230         0.172896      0.194987      0.146555
      9.31367      6.76327      9.82341         0.002532     -0.347880     -0.509991
      9.00226     10.65943      9.55886         0.048650      0.173310      0.202880
      2.60036      6.43914      1.72459         0.434297     -0.197531     -0.288172
      2.99684     10.39033      1.69914        -0.291249      0.269629     -0.470956
      6.88042      2.22974      1.66996         0.105026      0.174199     -0.067501
      7.07291      6.32117      1.78865         0.356310      0.202536     -0.761465
      7.00902     10.56397      1.37367        -0.031535     -0.217859      0.114905
     11.26393      6.52001      1.61149        -0.613055     -0.368613      0.259816
      9.18189      8.61502      4.08007        -0.133579     -0.041308     -0.381870
 -----------------------------------------------------------------------------------
    total drift:                                0.000439      0.000563      0.000592


--------------------------------------------------------------------------------------------------------



  FREE ENERGIE OF THE ION-ELECTRON SYSTEM (eV)
  ---------------------------------------------------
  free  energy   TOTEN  =      -300.61122074 eV

  energy  without entropy=     -300.61122074  energy(sigma->0) =     -300.61122074
 


--------------------------------------------------------------------------------------------------------


    POTLOK:  cpu time      0.7338: real time      0.7367


--------------------------------------------------------------------------------------------------------


     LOOP+:  cpu time    182.6814: real time    183.6214
    4ORBIT:  cpu time      0.0000: real time      0.0000



 total charge

# of ion       s       p       d       tot
------------------------------------------
    1        1.317   0.795   0.058   2.170
    2        1.298   0.847   0.068   2.212
    3        1.311   0.782   0.056   2.149
    4        1.329   0.759   0.053   2.141
    5        1.320   0.792   0.058   2.171
    6        1.321   0.751   0.053   2.126
    7        1.321   0.761   0.051   2.133
    8        1.334   0.712   0.047   2.093
    9        1.320   0.762   0.056   2.138
   10        1.332   0.727   0.055   2.113
   11        1.327   0.742   0.050   2.119
   12        1.331   0.730   0.052   2.113
   13        1.307   0.820   0.061   2.189
   14        1.333   0.718   0.051   2.102
   15        1.326   0.749   0.055   2.131
   16        1.321   0.791   0.059   2.172
   17        1.324   0.748   0.057   2.129
   18        1.319   0.791   0.061   2.171
   19        1.330   0.754   0.054   2.138
   20        1.328   0.776   0.058   2.162
   21        1.327   0.751   0.051   2.129
   22        1.320   0.772   0.056   2.147
   23        1.322   0.771   0.063   2.156
   24        1.310   0.808   0.061   2.179
   25        1.328   0.757   0.056   2.141
   26        1.346   0.664   0.040   2.050
   27        1.331   0.705   0.044   2.080
   28        1.320   0.805   0.059   2.183
   29        1.335   0.713   0.049   2.097
   30        1.326   0.741   0.050   2.118
   31        1.309   0.806   0.057   2.172
   32        1.313   0.787   0.054   2.153
   33        1.327   0.751   0.054   2.132
   34        1.331   0.750   0.058   2.139
   35        1.324   0.758   0.054   2.137
   36        1.335   0.712   0.049   2.096
   37        1.480   2.291   0.032   3.803
   38        1.477   2.292   0.030   3.799
   39        1.479   2.286   0.032   3.798
   40        1.476   2.307   0.031   3.814
   41        1.481   2.292   0.032   3.805
   42        1.477   2.283   0.029   3.789
   43        1.479   2.299   0.034   3.813
   44        1.478   2.282   0.028   3.787
   45        1.477   2.299   0.032   3.809
   46        1.475   2.306   0.032   3.812
   47        1.477   2.300   0.032   3.809
   48        1.475   2.328   0.036   3.839
   49        1.478   2.301   0.032   3.811
   50        1.479   2.289   0.031   3.799
   51        1.475   2.299   0.030   3.804
   52        1.477   2.298   0.032   3.807
   53        1.479   2.260   0.025   3.764
   54        1.474   2.334   0.039   3.847
   55        1.474   2.310   0.030   3.814
   56        1.475   2.286   0.025   3.787
   57        1.476   2.310   0.034   3.820
   58        1.478   2.295   0.034   3.806
   59        1.485   2.275   0.032   3.792
   60        1.477   2.298   0.031   3.806
   61        1.477   2.288   0.027   3.791
   62        1.478   2.295   0.032   3.805
   63        1.477   2.298   0.033   3.808
   64        1.480   2.289   0.032   3.801
   65        1.477   2.301   0.032   3.810
   66        1.473   2.310   0.031   3.814
   67        1.476   2.318   0.034   3.828
   68        1.474   2.289   0.026   3.789
   69        1.475   2.322   0.035   3.832
   70        1.482   2.289   0.032   3.802
   71        1.476   2.287   0.029   3.792
   72        1.480   2.284   0.032   3.796
--------------------------------------------------
tot        100.834 110.049   3.101 213.983



 magnetization (x)

# of ion       s       p       d       tot
------------------------------------------
    1       -0.000   0.000   0.000   0.000
    2       -0.000  -0.000  -0.000  -0.000
    3       -0.000   0.000   0.000   0.000
    4       -0.000  -0.000  -0.000  -0.000
    5       -0.000  -0.000  -0.000  -0.000
    6       -0.000   0.000   0.000   0.000
    7       -0.000   0.000   0.000   0.000
    8       -0.000   0.000   0.000   0.000
    9       -0.000   0.000   0.000   0.000
   10       -0.000   0.000   0.000   0.000
   11       -0.000   0.000  -0.000  -0.000
   12       -0.000   0.000  -0.000   0.000
   13       -0.000  -0.000  -0.000  -0.000
   14       -0.000  -0.000  -0.000  -0.000
   15       -0.000   0.000   0.000   0.000
   16       -0.000   0.000   0.000   0.000
   17       -0.000   0.000  -0.000  -0.000
   18       -0.000   0.000   0.000   0.000
   19       -0.000   0.000   0.000   0.000
   20       -0.000   0.000   0.000   0.000
   21       -0.000   0.000   0.000   0.000
   22       -0.000   0.000   0.000   0.000
   23       -0.000   0.000  -0.000   0.000
   24       -0.000   0.000  -0.000   0.000
   25       -0.000   0.000  -0.000   0.000
   26       -0.000   0.000   0.000   0.000
   27       -0.000   0.000   0.000   0.000
   28       -0.000  -0.000  -0.000  -0.000
   29       -0.000   0.000   0.000   0.000
   30       -0.000  -0.000  -0.000  -0.000
   31       -0.000   0.000  -0.000   0.000
   32       -0.000   0.000   0.000   0.000
   33       -0.000  -0.000  -0.000  -0.000
   34       -0.000   0.000  -0.000   0.000
   35       -0.000   0.000   0.000   0.000
   36       -0.000   0.000  -0.000   0.000
   37       -0.000  -0.000   0.000  -0.000
   38       -0.000  -0.000   0.000  -0.000
   39       -0.000  -0.000  -0.000  -0.000
   40       -0.000  -0.000   0.000  -0.000
   41       -0.000  -0.000   0.000  -0.000
   42       -0.000  -0.000  -0.000  -0.000
   43       -0.000  -0.000   0.000  -0.000
   44       -0.000  -0.000   0.000  -0.000
   45       -0.000  -0.000   0.000  -0.000
   46       -0.000  -0.000   0.000  -0.000
   47       -0.000  -0.000   0.000  -0.000
   48       -0.000  -0.000  -0.000  -0.000
   49       -0.000  -0.000  -0.000  -0.000
   50       -0.000  -0.000  -0.000  -0.000
   51       -0.000  -0.000   0.000  -0.000
   52       -0.000  -0.000   0.000  -0.000
   53       -0.000  -0.000   0.000  -0.000
   54       -0.000  -0.000   0.000  -0.000
   55       -0.000  -0.000   0.000  -0.000
   56       -0.000  -0.000   0.000  -0.000
   57       -0.000  -0.000   0.000  -0.000
   58       -0.000  -0.000   0.000  -0.000
   59       -0.000  -0.000   0.000  -0.000
   60       -0.000  -0.000   0.000  -0.000
   61       -0.000  -0.000  -0.000  -0.000
   62       -0.000  -0.000  -0.000  -0.000
   63       -0.000  -0.000   0.000  -0.000
   64       -0.000  -0.000   0.000  -0.000
   65       -0.000  -0.000   0.000  -0.000
   66       -0.000  -0.000   0.000  -0.000
   67       -0.000  -0.000  -0.000  -0.000
   68       -0.000  -0.000   0.000  -0.000
   69       -0.000  -0.000  -0.000  -0.000
   70       -0.000  -0.000  -0.000  -0.000
   71       -0.000  -0.000   0.000  -0.000
   72       -0.000  -0.000  -0.000  -0.000
--------------------------------------------------
tot         -0.000  -0.000   0.000  -0.000
 

 total amount of memory used by VASP MPI-rank0   111163. kBytes
=======================================================================

   base      :      30000. kBytes
   nonl-proj :      16467. kBytes
   fftplans  :       6179. kBytes
   grid      :      15593. kBytes
   one-center:        146. kBytes
   wavefun   :      42778. kBytes
 
  
  
 General timing and accounting informations for this job:
 ========================================================
  
                  Total CPU time used (sec):      194.485
                            User time (sec):      188.389
                          System time (sec):        6.097
                         Elapsed time (sec):      196.648
  
                   Maximum memory used (kb):      316600.
                   Average memory used (kb):          N/A
  
                          Minor page faults:        95343
                          Major page faults:           31
                 Voluntary context switches:         4714
