 vasp.6.4.2 20Jul23 (build Oct 12 2023 10:31:02) complex                         
 executed on              LinuxNV date 2024.11.01  22:52:03
 running  128 mpi-ranks, with    1 threads/rank, on    2 nodes
 distrk:  each k-point on   64 cores,    2 groups
 distr:  one band on NCORE=   8 cores,    8 groups


--------------------------------------------------------------------------------------------------------


 INCAR:
   ENCUT = 520.000000
   SIGMA = 0.050000
   EDIFF = 1.00e-06
   ALGO = N
   GGA = PE
   PREC = Accurate
   SYSTEM = 01_AOPT
   ICHARG = 0
   ISMEAR = 0
   ISPIN = 2
   ISTART = 1
   ISYM = -1
   KPAR = 2
   LORBIT = 11
   NBANDS = 220
   NELM = 100
   NELMIN = 5
   NPAR = 8
   LASPH = .TRUE.
   LCHARG = .FALSE.
   LWAVE = .FALSE.
   LREAL = .FALSE.

 POTCAR:    PAW_PBE Ge 05Jan2001                  
 POTCAR:    PAW_PBE Se 06Sep2000                  
 -----------------------------------------------------------------------------
|                                                                             |
|           W    W    AA    RRRRR   N    N  II  N    N   GGGG   !!!           |
|           W    W   A  A   R    R  NN   N  II  NN   N  G    G  !!!           |
|           W    W  A    A  R    R  N N  N  II  N N  N  G       !!!           |
|           W WW W  AAAAAA  RRRRR   N  N N  II  N  N N  G  GGG   !            |
|           WW  WW  A    A  R   R   N   NN  II  N   NN  G    G                |
|           W    W  A    A  R    R  N    N  II  N    N   GGGG   !!!           |
|                                                                             |
|     You use a magnetic or noncollinear calculation, but did not specify     |
|     the initial magnetic moment with the MAGMOM tag. Note that a            |
|     default of 1 will be used for all atoms. This ferromagnetic setup       |
|     may break the symmetry of the crystal, in particular it may rule        |
|     out finding an antiferromagnetic solution. Thence, we recommend         |
|     setting the initial magnetic moment manually or verifying carefully     |
|     that this magnetic setup is desired.                                    |
|                                                                             |
 -----------------------------------------------------------------------------

 POTCAR:    PAW_PBE Ge 05Jan2001                  
   VRHFIN =Ge: s2p2                                                                                 
   LEXCH  = PE                                                                                      
   EATOM  =   104.9960 eV,    7.7170 Ry                                                             
                                                                                                    
   TITEL  = PAW_PBE Ge 05Jan2001                                                                    
   LULTRA =        F    use ultrasoft PP ?                                                          
   IUNSCR =        1    unscreen: 0-lin 1-nonlin 2-no                                               
   RPACOR =    2.170    partial core radius                                                         
   POMASS =   72.610; ZVAL   =    4.000    mass and valenz                                          
   RCORE  =    2.300    outmost cutoff radius                                                       
   RWIGS  =    2.300; RWIGS  =    1.217    wigner-seitz radius (au A)                               
   ENMAX  =  173.807; ENMIN  =  130.355 eV                                                          
   ICORE  =        3    local potential                                                             
   LCOR   =        T    correct aug charges                                                         
   LPAW   =        T    paw PP                                                                      
   EAUG   =  385.843                                                                                
   DEXC   =    0.000                                                                                
   RMAX   =    2.342    core radius for proj-oper                                                   
   RAUG   =    1.300    factor for augmentation sphere                                              
   RDEP   =    2.318    radius for radial grids                                                     
   RDEPT  =    2.103    core radius for aug-charge                                                  
                                                                                                    
   Atomic configuration                                                                             
   10 entries                                                                                       
     n  l   j            E        occ.                                                              
     1  0  0.50    -10959.8463   2.0000                                                             
     2  0  0.50     -1371.6056   2.0000                                                             
     2  1  1.50     -1198.4791   6.0000                                                             
     3  0  0.50      -168.4733   2.0000                                                             
     3  1  1.50      -115.6019   6.0000                                                             
     3  2  2.50       -29.3106  10.0000                                                             
     4  0  0.50       -11.7309   2.0000                                                             
     4  1  0.50        -3.8952   2.0000                                                             
     4  2  1.50        -4.0817   0.0000                                                             
     4  3  2.50        -4.0817   0.0000                                                             
   Description                                                                                      
     l       E           TYP  RCUT    TYP  RCUT                                                     
     0    -11.7309493     23  2.300                                                                 
     0     -7.4578696     23  2.300                                                                 
     1     -3.8952261     23  2.300                                                                 
     1      6.1178114     23  2.300                                                                 
     2     -4.0817478     23  2.300                                                                 
     3     -1.3605826      7  2.300                                                                 
  local pseudopotential read in
  partial core-charges read in
  partial kinetic energy density read in
  atomic valenz-charges read in
  non local Contribution for L=            0  read in
    real space projection operators read in
  non local Contribution for L=            0  read in
    real space projection operators read in
  non local Contribution for L=            1  read in
    real space projection operators read in
  non local Contribution for L=            1  read in
    real space projection operators read in
  non local Contribution for L=            2  read in
    real space projection operators read in
    PAW grid and wavefunctions read in
 
   number of l-projection  operators is LMAX  =            5
   number of lm-projection operators is LMMAX =           13
 
 POTCAR:    PAW_PBE Se 06Sep2000                  
   VRHFIN =Se: s2p4                                                                                 
   LEXCH  = PE                                                                                      
   EATOM  =   257.1286 eV,   18.8984 Ry                                                             
                                                                                                    
   TITEL  = PAW_PBE Se 06Sep2000                                                                    
   LULTRA =        F    use ultrasoft PP ?                                                          
   IUNSCR =        1    unscreen: 0-lin 1-nonlin 2-no                                               
   RPACOR =    1.900    partial core radius                                                         
   POMASS =   78.960; ZVAL   =    6.000    mass and valenz                                          
   RCORE  =    2.100    outmost cutoff radius                                                       
   RWIGS  =    2.200; RWIGS  =    1.164    wigner-seitz radius (au A)                               
   ENMAX  =  211.555; ENMIN  =  158.666 eV                                                          
   ICORE  =        3    local potential                                                             
   LCOR   =        T    correct aug charges                                                         
   LPAW   =        T    paw PP                                                                      
   EAUG   =  446.842                                                                                
   DEXC   =    0.000                                                                                
   RMAX   =    2.147    core radius for proj-oper                                                   
   RAUG   =    1.300    factor for augmentation sphere                                              
   RDEP   =    2.177    radius for radial grids                                                     
   RDEPT  =    1.928    core radius for aug-charge                                                  
                                                                                                    
   Atomic configuration                                                                             
   10 entries                                                                                       
     n  l   j            E        occ.                                                              
     1  0  0.50    -12503.4787   2.0000                                                             
     2  0  0.50     -1606.9547   2.0000                                                             
     2  1  1.50     -1413.3140   6.0000                                                             
     3  0  0.50      -213.4885   2.0000                                                             
     3  1  1.50      -152.9538   6.0000                                                             
     3  2  2.50       -53.1221  10.0000                                                             
     4  0  0.50       -17.2865   2.0000                                                             
     4  1  0.50        -6.5110   4.0000                                                             
     4  2  2.50        -6.8029   0.0000                                                             
     4  3  2.50        -6.8029   0.0000                                                             
   Description                                                                                      
     l       E           TYP  RCUT    TYP  RCUT                                                     
     0    -17.2865377     23  2.100                                                                 
     0    -15.3094411     23  2.100                                                                 
     1     -6.5110275     23  2.100                                                                 
     1     -0.0695192     23  2.100                                                                 
     2     -6.8029130     23  2.100                                                                 
     3     -1.3605826      7  2.100                                                                 
  local pseudopotential read in
  partial core-charges read in
  partial kinetic energy density read in
  atomic valenz-charges read in
  non local Contribution for L=            0  read in
    real space projection operators read in
  non local Contribution for L=            0  read in
    real space projection operators read in
  non local Contribution for L=            1  read in
    real space projection operators read in
  non local Contribution for L=            1  read in
    real space projection operators read in
  non local Contribution for L=            2  read in
    real space projection operators read in
    PAW grid and wavefunctions read in
 
   number of l-projection  operators is LMAX  =            5
   number of lm-projection operators is LMMAX =           13
 
 -----------------------------------------------------------------------------
|                                                                             |
|               ----> ADVICE to this user running VASP <----                  |
|                                                                             |
|     You have a (more or less) 'large supercell' and for larger cells it     |
|     might be more efficient to use real-space projection operators.         |
|     Therefore, try LREAL= Auto in the INCAR file.                           |
|     Mind: For very accurate calculation, you might also keep the            |
|     reciprocal projection scheme (i.e. LREAL=.FALSE.).                      |
|                                                                             |
 -----------------------------------------------------------------------------

  PAW_PBE Ge 05Jan2001                  :
 energy of atom  1       EATOM= -104.9960
 kinetic energy error for atom=    0.0002 (will be added to EATOM!!)
  PAW_PBE Se 06Sep2000                  :
 energy of atom  2       EATOM= -257.1286
 kinetic energy error for atom=    0.0007 (will be added to EATOM!!)
 
 
 POSCAR: Ge Se
  positions in cartesian coordinates
  No initial velocities read in
 exchange correlation table for  LEXCH =        8
   RHO(1)=    0.500       N(1)  =     2000
   RHO(2)=  100.500       N(2)  =     4000
 


--------------------------------------------------------------------------------------------------------


 ion  position               nearest neighbor table
   1  0.057  0.043  0.130-  45 2.54  55 2.55  54 2.84
   2  0.228  0.894  0.383-  67 2.58  45 2.60
   3  0.556  0.209  0.365-  68 2.51  49 2.60
   4  0.569  0.562  0.370-  69 2.51  50 2.64  72 2.75
   5  0.573  0.889  0.391-  48 2.34  44 2.64  70 2.67
   6  0.901  0.216  0.360-  46 2.52  56 2.55  55 2.66
   7  0.889  0.553  0.368-  72 2.61  71 2.63
   8  0.889  0.869  0.374-  53 2.56  44 2.61  72 2.80
   9  0.071  0.155  0.631-  57 2.56  51 2.74  37 2.80
  10  0.066  0.492  0.630-  58 2.55  38 2.76  43 2.78
  11  0.081  0.828  0.628-  59 2.60  39 2.68  52 2.73
  12  0.412  0.158  0.625-  60 2.47  40 2.67  51 2.70
  13  0.398  0.489  0.633-  61 2.46  38 2.60  41 2.85
  14  0.398  0.815  0.635-  62 2.51  39 2.54  42 2.75
  15  0.727  0.146  0.640-  63 2.47  40 2.58  37 2.71
  16  0.744  0.487  0.635-  64 2.53  43 2.65  41 2.67
  17  0.238  0.540  0.372-  66 2.44  47 2.71  50 2.72
  18  0.212  0.189  0.391-  54 2.76  46 2.79  45 2.85
  19  0.752  0.807  0.617-  65 2.57  52 2.65  42 2.68
  20  0.885  0.644  0.881-  52 2.52  64 2.54  58 2.81
  21  0.903  0.980  0.874-  37 2.45  65 2.55  59 2.71
  22  0.065  0.383  0.144-  46 2.43  71 2.65  66 2.71
  23  0.081  0.722  0.132-  47 2.56  53 2.59  67 2.69
  24  0.417  0.059  0.117-  54 2.62  68 2.66  48 2.78
  25  0.357  0.352  0.132-  66 2.54  49 2.56  54 2.64
  26  0.725  0.031  0.115-  68 2.61  44 2.66
  27  0.742  0.380  0.145-  56 2.47  69 2.61  71 2.66
  28  0.396  0.711  0.139-  50 2.44  67 2.73  70 2.80
  29  0.243  0.315  0.876-  38 2.57  57 2.59  60 2.65
  30  0.237  0.654  0.877-  39 2.62  58 2.85  61 2.85
  31  0.220  0.006  0.882-  51 2.64  59 2.71
  32  0.572  0.327  0.877-  63 2.73  60 2.74  41 2.74
  33  0.573  0.662  0.858-  42 2.56  64 2.70  61 2.71
  34  0.572  0.983  0.869-  40 2.41  62 2.66  65 2.74
  35  0.888  0.323  0.882-  43 2.50  63 2.73  57 2.76
  36  0.735  0.697  0.137-  72 2.58  70 2.66
  37  0.899  0.013  0.656-  21 2.45  15 2.71   9 2.80
  38  0.239  0.354  0.648-  29 2.57  13 2.60  10 2.76
  39  0.241  0.685  0.642-  14 2.54  30 2.62  11 2.68
  40  0.569  0.013  0.654-  34 2.41  15 2.58  12 2.67
  41  0.580  0.350  0.631-  16 2.67  32 2.74  13 2.85
  42  0.575  0.685  0.629-  33 2.56  19 2.68  14 2.75
  43  0.901  0.344  0.658-  35 2.50  16 2.65  10 2.78
  44  0.740  0.015  0.354-   8 2.61   5 2.64  26 2.66
  45  0.063  0.019  0.358-   1 2.54   2 2.60  18 2.85
  46  0.056  0.348  0.360-  22 2.43   6 2.52  18 2.79
  47  0.079  0.687  0.360-  23 2.56  17 2.71
  48  0.431  0.010  0.362-   5 2.34  24 2.78
  49  0.390  0.335  0.359-  25 2.56   3 2.60
  50  0.399  0.688  0.358-  28 2.44   4 2.64  17 2.72
  51  0.245  0.021  0.646-  31 2.64  12 2.70   9 2.74
  52  0.921  0.683  0.661-  20 2.52  19 2.65  11 2.73
  53  0.916  0.848  0.146-   8 2.56  23 2.59
  54  0.243  0.174  0.144-  24 2.62  25 2.64  18 2.76   1 2.84
  55  0.914  0.188  0.122-   1 2.55   6 2.66
  56  0.760  0.364  0.367-  27 2.47   6 2.55
  57  0.071  0.199  0.857-   9 2.56  29 2.59  35 2.76
  58  0.063  0.507  0.860-  10 2.55  20 2.81  30 2.85
  59  0.074  0.847  0.862-  11 2.60  31 2.71  21 2.71
  60  0.408  0.183  0.847-  12 2.47  29 2.65  32 2.74
  61  0.416  0.512  0.853-  13 2.46  33 2.71  30 2.85
  62  0.406  0.850  0.859-  14 2.51  34 2.66
  63  0.729  0.174  0.861-  15 2.47  35 2.73  32 2.73
  64  0.730  0.513  0.862-  16 2.53  20 2.54  33 2.70
  65  0.747  0.850  0.844-  21 2.55  19 2.57  34 2.74
  66  0.237  0.515  0.154-  17 2.44  25 2.54  22 2.71
  67  0.241  0.865  0.153-   2 2.58  23 2.69  28 2.73
  68  0.586  0.187  0.141-   3 2.51  26 2.61  24 2.66
  69  0.586  0.520  0.149-   4 2.51  27 2.61
  70  0.579  0.841  0.156-  36 2.66   5 2.67  28 2.80
  71  0.903  0.520  0.134-   7 2.63  22 2.65  27 2.66
  72  0.740  0.701  0.370-  36 2.58   7 2.61   4 2.75   8 2.80
 

IMPORTANT INFORMATION: All symmetrisations will be switched off!
NOSYMM: (Re-)initialisation of all symmetry stuff for point group C_1.


----------------------------------------------------------------------------------------

                                     Primitive cell                                     

  volume of cell :    1719.0904

  direct lattice vectors                    reciprocal lattice vectors
    12.420961428 -0.000008138  0.000003059     0.080509066  0.000000053 -0.000000026
    -0.000008195 12.507704539  0.000000082     0.000000052  0.079950721 -0.000000001
     0.000003508  0.000000093 11.065368650    -0.000000022 -0.000000001  0.090372046

  length of vectors
    12.420961428 12.507704539 11.065368650     0.080509066  0.079950721  0.090372046

  position of ions in fractional coordinates (direct lattice)
     0.056836749  0.042516448  0.130002585
     0.227876117  0.893606640  0.383418812
     0.556430410  0.208539656  0.364551967
     0.569188435  0.561600661  0.369924975
     0.572927764  0.888968199  0.391072852
     0.901384668  0.216313937  0.360159454
     0.888587521  0.553489991  0.367861221
     0.889320524  0.869152200  0.374124351
     0.071226386  0.155330824  0.630574556
     0.066237005  0.491845559  0.630440652
     0.081155313  0.828354867  0.627714810
     0.412296516  0.158056100  0.625444429
     0.397997453  0.488756592  0.632691043
     0.397531329  0.815397497  0.635474034
     0.727331807  0.145834012  0.640154126
     0.744354776  0.486925590  0.635188013
     0.237956436  0.539849925  0.371776575
     0.212271853  0.189481076  0.390553584
     0.752045908  0.807173832  0.616877616
     0.884506530  0.643787138  0.880946831
     0.902692770  0.979890238  0.874103660
     0.064701103  0.382589757  0.143671792
     0.080723085  0.721719396  0.131948486
     0.417246502  0.059065806  0.117029228
     0.357112655  0.351690082  0.131531036
     0.724713007  0.031459572  0.114967970
     0.742015916  0.380388349  0.145076105
     0.395953657  0.710739785  0.139315967
     0.243088137  0.314966177  0.875637937
     0.237498784  0.653934638  0.876519199
     0.219788124  0.006034235  0.881588732
     0.571852951  0.326917508  0.877107473
     0.573380521  0.662305408  0.858098184
     0.572414420  0.982678175  0.869480937
     0.888102572  0.322902994  0.882482669
     0.734895484  0.697409933  0.137134661
     0.899067148  0.013258697  0.656416026
     0.239400234  0.354004552  0.647632497
     0.240803841  0.685088412  0.642137574
     0.568792920  0.013346544  0.654134253
     0.579557148  0.350012856  0.630599463
     0.575356294  0.685061499  0.628610882
     0.901115384  0.344441379  0.658432436
     0.739736127  0.015021705  0.354095249
     0.062735710  0.019301371  0.357701597
     0.055643140  0.347573723  0.359841483
     0.078770887  0.687169645  0.360106830
     0.431499804  0.010275169  0.361588793
     0.390276406  0.334559659  0.358814524
     0.398615030  0.687719520  0.358357727
     0.245498941  0.021302333  0.645707597
     0.920572531  0.682566018  0.660710177
     0.915826152  0.848049137  0.146281600
     0.242892225  0.174442726  0.144230359
     0.913811619  0.188246546  0.122047409
     0.760156715  0.363739789  0.366606343
     0.070505766  0.199362948  0.856910333
     0.063273087  0.506841889  0.860287852
     0.073788835  0.846534422  0.861592140
     0.407869799  0.183096661  0.846880928
     0.416116420  0.512243280  0.852644819
     0.405730663  0.849701919  0.858643926
     0.728578044  0.174173109  0.861315809
     0.729771624  0.512585822  0.861711002
     0.746759370  0.850221660  0.844040923
     0.236858601  0.514854621  0.153511148
     0.240894360  0.865088594  0.153202694
     0.586390253  0.187141306  0.141132819
     0.585544800  0.519712669  0.148558670
     0.578647628  0.841431035  0.156079906
     0.903098506  0.520322535  0.133866443
     0.739958836  0.701017892  0.370169774

  ion indices of the primitive-cell ions
   primitive index   ion index
                 1           1
                 2           2
                 3           3
                 4           4
                 5           5
                 6           6
                 7           7
                 8           8
                 9           9
                10          10
                11          11
                12          12
                13          13
                14          14
                15          15
                16          16
                17          17
                18          18
                19          19
                20          20
                21          21
                22          22
                23          23
                24          24
                25          25
                26          26
                27          27
                28          28
                29          29
                30          30
                31          31
                32          32
                33          33
                34          34
                35          35
                36          36
                37          37
                38          38
                39          39
                40          40
                41          41
                42          42
                43          43
                44          44
                45          45
                46          46
                47          47
                48          48
                49          49
                50          50
                51          51
                52          52
                53          53
                54          54
                55          55
                56          56
                57          57
                58          58
                59          59
                60          60
                61          61
                62          62
                63          63
                64          64
                65          65
                66          66
                67          67
                68          68
                69          69
                70          70
                71          71
                72          72

----------------------------------------------------------------------------------------

 
 
 KPOINTS: KPOINTS created by Atomic Simulation Env

Automatic generation of k-mesh.
 Grid dimensions read from file:
 generate k-points for:    2    2    2

 Generating k-lattice:

  Cartesian coordinates                     Fractional coordinates (reciprocal lattice)
     0.040254533  0.000000026 -0.000000013     0.500000000 -0.000000000  0.000000000
     0.000000026  0.039975361 -0.000000000     0.000000000  0.500000000  0.000000000
    -0.000000011 -0.000000000  0.045186023     0.000000000  0.000000000  0.500000000

  Length of vectors
     0.040254533  0.039975361  0.045186023

  Shift w.r.t. Gamma in fractional coordinates (k-lattice)
     0.000000000  0.000000000  0.000000000

 
 Subroutine IBZKPT returns following result:
 ===========================================
 
 Found      8 irreducible k-points:
 
 Following reciprocal coordinates:
            Coordinates               Weight
  0.000000  0.000000  0.000000      1.000000
  0.500000  0.000000  0.000000      1.000000
  0.000000  0.500000  0.000000      1.000000
  0.500000  0.500000  0.000000      1.000000
  0.000000  0.000000  0.500000      1.000000
  0.500000  0.000000  0.500000      1.000000
  0.000000  0.500000  0.500000      1.000000
  0.500000  0.500000  0.500000      1.000000
 
 Following cartesian coordinates:
            Coordinates               Weight
  0.000000  0.000000  0.000000      1.000000
  0.040255  0.000000 -0.000000      1.000000
  0.000000  0.039975 -0.000000      1.000000
  0.040255  0.039975 -0.000000      1.000000
 -0.000000 -0.000000  0.045186      1.000000
  0.040255  0.000000  0.045186      1.000000
  0.000000  0.039975  0.045186      1.000000
  0.040255  0.039975  0.045186      1.000000
 
 -----------------------------------------------------------------------------
|                                                                             |
|           W    W    AA    RRRRR   N    N  II  N    N   GGGG   !!!           |
|           W    W   A  A   R    R  NN   N  II  NN   N  G    G  !!!           |
|           W    W  A    A  R    R  N N  N  II  N N  N  G       !!!           |
|           W WW W  AAAAAA  RRRRR   N  N N  II  N  N N  G  GGG   !            |
|           WW  WW  A    A  R   R   N   NN  II  N   NN  G    G                |
|           W    W  A    A  R    R  N    N  II  N    N   GGGG   !!!           |
|                                                                             |
|     The number of bands has been changed from the values supplied in        |
|     the INCAR file. This is a result of running the parallel version.       |
|     The orbitals not found in the WAVECAR file will be initialized with     |
|     random numbers, which is usually adequate. For correlated               |
|     calculations, however, you should redo the groundstate calculation.     |
|     I found NBANDS = 220. Now, NBANDS = 224.                                |
|                                                                             |
 -----------------------------------------------------------------------------



--------------------------------------------------------------------------------------------------------




 Dimension of arrays:
   k-points           NKPTS =      8   k-points in BZ     NKDIM =      8   number of bands    NBANDS=    224
   number of dos      NEDOS =    301   number of ions     NIONS =     72
   non local maximal  LDIM  =      5   non local SUM 2l+1 LMDIM =     13
   total plane-waves  NPLWV = 774144
   max r-space proj   IRMAX =      1   max aug-charges    IRDMAX=  24672
   dimension x,y,z NGX =    96 NGY =   96 NGZ =   84
   dimension x,y,z NGXF=   192 NGYF=  192 NGZF=  168
   support grid    NGXF=   192 NGYF=  192 NGZF=  168
   ions per type =              36  36
   NGX,Y,Z   is equivalent  to a cutoff of  12.85, 12.76, 12.62 a.u.
   NGXF,Y,Z  is equivalent  to a cutoff of  25.70, 25.52, 25.24 a.u.

 SYSTEM =  01_AOPT                                 
 POSCAR =  Ge Se                                   

 Startparameter for this run:
   NWRITE =      2    write-flag & timer
   PREC   = accura    normal or accurate (medium, high low for compatibility)
   ISTART =      0    job   : 0-new  1-cont  2-samecut
   ICHARG =      2    charge: 1-file 2-atom 10-const
   ISPIN  =      2    spin polarized calculation?
   LNONCOLLINEAR =      F non collinear calculations
   LSORBIT =      F    spin-orbit coupling
   INIWAV =      1    electr: 0-lowe 1-rand  2-diag
   LASPH  =      T    aspherical Exc in radial PAW
 Electronic Relaxation 1
   ENCUT  =  520.0 eV  38.22 Ry    6.18 a.u.  23.09 23.26 20.57*2*pi/ulx,y,z
   ENINI  =  520.0     initial cutoff
   ENAUG  =  446.8 eV  augmentation charge cutoff
   NELM   =    100;   NELMIN=  5; NELMDL=  0     # of ELM steps 
   EDIFF  = 0.1E-05   stopping-criterion for ELM
   LREAL  =      F    real-space projection
   NLSPLINE    = F    spline interpolate recip. space projectors
   LCOMPAT=      F    compatible to vasp.4.4
   GGA_COMPAT  = T    GGA compatible to vasp.4.4-vasp.4.6
   LMAXPAW     = -100 max onsite density
   LMAXMIX     =    2 max onsite mixed and CHGCAR
   VOSKOWN=      0    Vosko Wilk Nusair interpolation
   ROPT   =    0.00000   0.00000
 Ionic relaxation
   EDIFFG = 0.1E-04   stopping-criterion for IOM
   NSW    =      0    number of steps for IOM
   NBLOCK =      1;   KBLOCK =      1    inner block; outer block 
   IBRION =     -1    ionic relax: 0-MD 1-quasi-New 2-CG
   NFREE  =      0    steps in history (QN), initial steepest desc. (CG)
   ISIF   =      2    stress and relaxation
   IWAVPR =     10    prediction:  0-non 1-charg 2-wave 3-comb
   ISYM   =     -1    0-nonsym 1-usesym 2-fastsym
   LCORR  =      T    Harris-Foulkes like correction to forces

   POTIM  = 0.5000    time-step for ionic-motion
   TEIN   =    0.0    initial temperature
   TEBEG  =    0.0;   TEEND  =   0.0 temperature during run
   SMASS  =  -3.00    Nose mass-parameter (am)
   estimated Nose-frequenzy (Omega)   =  0.10E-29 period in steps = 0.13E+47 mass=  -0.353E-26a.u.
   SCALEE = 1.0000    scale energy and forces
   NPACO  =    256;   APACO  = 10.0  distance and # of slots for P.C.
   PSTRESS=    0.0 pullay stress

  Mass of Ions in am
   POMASS =  72.61 78.96
  Ionic Valenz
   ZVAL   =   4.00  6.00
  Atomic Wigner-Seitz radii
   RWIGS  =  -1.00 -1.00
  virtual crystal weights 
   VCA    =   1.00  1.00
   NELECT =     360.0000    total number of electrons
   NUPDOWN=      -1.0000    fix difference up-down

 DOS related values:
   EMIN   =  10.00;   EMAX   =-10.00  energy-range for DOS
   EFERMI =   0.00;   METHOD = LEGACY      
   ISMEAR =     0;   SIGMA  =   0.05  broadening in eV -4-tet -1-fermi 0-gaus

 Electronic relaxation 2 (details)
   IALGO  =     38    algorithm
   LDIAG  =      T    sub-space diagonalisation (order eigenvalues)
   LSUBROT=      F    optimize rotation matrix (better conditioning)
   TURBO    =      0    0=normal 1=particle mesh
   IRESTART =      0    0=no restart 2=restart with 2 vectors
   NREBOOT  =      0    no. of reboots
   NMIN     =      0    reboot dimension
   EREF     =   0.00    reference energy to select bands
   IMIX   =      4    mixing-type and parameters
     AMIX     =   0.40;   BMIX     =  1.00
     AMIX_MAG =   1.60;   BMIX_MAG =  1.00
     AMIN     =   0.10
     WC   =   100.;   INIMIX=   1;  MIXPRE=   1;  MAXMIX= -45

 Intra band minimization:
   WEIMIN = 0.0000     energy-eigenvalue tresh-hold
   EBREAK =  0.11E-08  absolut break condition
   DEPER  =   0.30     relativ break condition  

   TIME   =   0.40     timestep for ELM

  volume/ion in A,a.u.               =      23.88       161.12
  Fermi-wavevector in a.u.,A,eV,Ry     =   0.972171  1.837137 12.859096  0.945117
  Thomas-Fermi vector in A             =   2.102448
 
 Write flags
   LWAVE        =      F    write WAVECAR
   LDOWNSAMPLE  =      F    k-point downsampling of WAVECAR
   LCHARG       =      F    write CHGCAR
   LVTOT        =      F    write LOCPOT, total local potential
   LVHAR        =      F    write LOCPOT, Hartree potential only
   LELF         =      F    write electronic localiz. function (ELF)
   LORBIT       =     11    0 simple, 1 ext, 2 COOP (PROOUT), +10 PAW based schemes


 Dipole corrections
   LMONO  =      F    monopole corrections only (constant potential shift)
   LDIPOL =      F    correct potential (dipole corrections)
   IDIPOL =      0    1-x, 2-y, 3-z, 4-all directions 
   EPSILON=  1.0000000 bulk dielectric constant

 Exchange correlation treatment:
   GGA     =    PE    GGA type
   LEXCH   =     8    internal setting for exchange type
   LIBXC   =     F    Libxc                    
   VOSKOWN =     0    Vosko Wilk Nusair interpolation
   LHFCALC =     F    Hartree Fock is set to
   LHFONE  =     F    Hartree Fock one center treatment
   AEXX    =    0.0000 exact exchange contribution

 Linear response parameters
   LEPSILON=     F    determine dielectric tensor
   LRPA    =     F    only Hartree local field effects (RPA)
   LNABLA  =     F    use nabla operator in PAW spheres
   LVEL    =     F    velocity operator in full k-point grid
   CSHIFT  =0.1000    complex shift for real part using Kramers Kronig
   OMEGAMAX=  -1.0    maximum frequency
   DEG_THRESHOLD= 0.2000000E-02 threshold for treating states as degnerate
   RTIME   =   -0.100 relaxation time in fs
  (WPLASMAI=    0.000 imaginary part of plasma frequency in eV, 0.658/RTIME)
   DFIELD  = 0.0000000 0.0000000 0.0000000 field for delta impulse in time
 
  Optional k-point grid parameters
   LKPOINTS_OPT  =     F    use optional k-point grid
   KPOINTS_OPT_MODE=     1    mode for optional k-point grid
 
 Orbital magnetization related:
   ORBITALMAG=     F  switch on orbital magnetization
   LCHIMAG   =     F  perturbation theory with respect to B field
   DQ        =  0.001000  dq finite difference perturbation B field
   LLRAUG    =     F  two centre corrections for induced B field
   LBONE     =     F  B-component reconstruction in AE one-centre
   LVGVCALC  =     T  calculate vGv susceptibility
   LVGVAPPL  =     F  apply vGv susceptibility instead of pGv for G=0

 Random number generation:
   RANDOM_GENERATOR = DEFAULT
   PCG_SEED         = not used


--------------------------------------------------------------------------------------------------------


 Static calculation
 charge density and potential will be updated during run
 spin polarized calculation
 Variant of blocked Davidson
 Davidson routine will perform the subspace rotation
 perform sub-space diagonalisation
    after iterative eigenvector-optimisation
 modified Broyden-mixing scheme, WC =      100.0
 initial mixing is a Kerker type mixing with AMIX =  0.4000 and BMIX =      1.0000
 Hartree-type preconditioning will be used
 using additional bands            44
 reciprocal scheme for non local part
 use partial core corrections
 calculate Harris-corrections to forces 
   (improved forces if not selfconsistent)
 use gradient corrections 
 use of overlap-Matrix (Vanderbilt PP)
 Gauss-broadening in eV      SIGMA  =   0.05


--------------------------------------------------------------------------------------------------------


  energy-cutoff  :      520.00
  volume of cell :     1719.09
      direct lattice vectors                 reciprocal lattice vectors
    12.420961428 -0.000008138  0.000003059     0.080509066  0.000000053 -0.000000026
    -0.000008195 12.507704539  0.000000082     0.000000052  0.079950721 -0.000000001
     0.000003508  0.000000093 11.065368650    -0.000000022 -0.000000001  0.090372046

  length of vectors
    12.420961428 12.507704539 11.065368650     0.080509066  0.079950721  0.090372046


 
 k-points in units of 2pi/SCALE and weight: KPOINTS created by Atomic Simulation Env
   0.00000000  0.00000000  0.00000000       0.125
   0.04025453  0.00000003 -0.00000001       0.125
   0.00000003  0.03997536 -0.00000000       0.125
   0.04025456  0.03997539 -0.00000001       0.125
  -0.00000001 -0.00000000  0.04518602       0.125
   0.04025452  0.00000003  0.04518601       0.125
   0.00000002  0.03997536  0.04518602       0.125
   0.04025455  0.03997539  0.04518601       0.125
 
 k-points in reciprocal lattice and weights: KPOINTS created by Atomic Simulation Env
   0.00000000  0.00000000  0.00000000       0.125
   0.50000000  0.00000000  0.00000000       0.125
   0.00000000  0.50000000  0.00000000       0.125
   0.50000000  0.50000000  0.00000000       0.125
   0.00000000  0.00000000  0.50000000       0.125
   0.50000000  0.00000000  0.50000000       0.125
   0.00000000  0.50000000  0.50000000       0.125
   0.50000000  0.50000000  0.50000000       0.125
 
 position of ions in fractional coordinates (direct lattice) 
   0.05683675  0.04251645  0.13000259
   0.22787612  0.89360664  0.38341881
   0.55643041  0.20853966  0.36455197
   0.56918844  0.56160066  0.36992497
   0.57292776  0.88896820  0.39107285
   0.90138467  0.21631394  0.36015945
   0.88858752  0.55348999  0.36786122
   0.88932052  0.86915220  0.37412435
   0.07122639  0.15533082  0.63057456
   0.06623701  0.49184556  0.63044065
   0.08115531  0.82835487  0.62771481
   0.41229652  0.15805610  0.62544443
   0.39799745  0.48875659  0.63269104
   0.39753133  0.81539750  0.63547403
   0.72733181  0.14583401  0.64015413
   0.74435478  0.48692559  0.63518801
   0.23795644  0.53984992  0.37177657
   0.21227185  0.18948108  0.39055358
   0.75204591  0.80717383  0.61687762
   0.88450653  0.64378714  0.88094683
   0.90269277  0.97989024  0.87410366
   0.06470110  0.38258976  0.14367179
   0.08072309  0.72171940  0.13194849
   0.41724650  0.05906581  0.11702923
   0.35711266  0.35169008  0.13153104
   0.72471301  0.03145957  0.11496797
   0.74201592  0.38038835  0.14507611
   0.39595366  0.71073979  0.13931597
   0.24308814  0.31496618  0.87563794
   0.23749878  0.65393464  0.87651920
   0.21978812  0.00603424  0.88158873
   0.57185295  0.32691751  0.87710747
   0.57338052  0.66230541  0.85809818
   0.57241442  0.98267817  0.86948094
   0.88810257  0.32290299  0.88248267
   0.73489548  0.69740993  0.13713466
   0.89906715  0.01325870  0.65641603
   0.23940023  0.35400455  0.64763250
   0.24080384  0.68508841  0.64213757
   0.56879292  0.01334654  0.65413425
   0.57955715  0.35001286  0.63059946
   0.57535629  0.68506150  0.62861088
   0.90111538  0.34444138  0.65843244
   0.73973613  0.01502170  0.35409525
   0.06273571  0.01930137  0.35770160
   0.05564314  0.34757372  0.35984148
   0.07877089  0.68716965  0.36010683
   0.43149980  0.01027517  0.36158879
   0.39027641  0.33455966  0.35881452
   0.39861503  0.68771952  0.35835773
   0.24549894  0.02130233  0.64570760
   0.92057253  0.68256602  0.66071018
   0.91582615  0.84804914  0.14628160
   0.24289222  0.17444273  0.14423036
   0.91381162  0.18824655  0.12204741
   0.76015672  0.36373979  0.36660634
   0.07050577  0.19936295  0.85691033
   0.06327309  0.50684189  0.86028785
   0.07378884  0.84653442  0.86159214
   0.40786980  0.18309666  0.84688093
   0.41611642  0.51224328  0.85264482
   0.40573066  0.84970192  0.85864393
   0.72857804  0.17417311  0.86131581
   0.72977162  0.51258582  0.86171100
   0.74675937  0.85022166  0.84404092
   0.23685860  0.51485462  0.15351115
   0.24089436  0.86508859  0.15320269
   0.58639025  0.18714131  0.14113282
   0.58554480  0.51971267  0.14855867
   0.57864763  0.84143104  0.15607991
   0.90309851  0.52032254  0.13386644
   0.73995884  0.70101789  0.37016977
 
 position of ions in cartesian coordinates  (Angst):
   0.70596718  0.53178271  1.43852671
   2.83043449 11.17696601  4.24267127
   6.91140023  2.60834791  4.03390362
   7.06986430  7.02433055  4.09335801
   7.11630774 11.11894695  4.32736710
  11.19606369  2.70558351  3.98529991
  11.03710808  6.92288207  4.07052278
  11.04621012 10.87109171  4.13982665
   0.88470113  1.94283153  6.97754016
   0.82272547  6.15185845  6.97605847
   1.00802243 10.36081733  6.94589609
   5.12112002  1.97691570  6.92077445
   4.94350923  6.11321987  7.00096089
   4.93771686 10.19874780  7.03175574
   9.03416137  1.82404287  7.08354363
   9.24560019  6.09031541  7.02859185
   2.95564460  6.75228145  4.11384563
   2.63662032  2.36997163  4.32162005
   9.34112876 10.09588573  6.82598059
  10.98641931  8.05229220  9.74800420
  11.21230712 12.25617032  9.67228208
   0.80364727  4.78531913  1.58978157
   1.00265288  9.02705232  1.46005895
   5.18260263  0.73877427  1.29497284
   4.43568009  4.39883274  1.45544052
   9.00163245  0.39348114  1.27216519
   9.21654846  4.75777905  1.60532289
   4.91811977  8.88972003  1.54158380
   3.01938886  3.93950198  9.68925734
   2.94996095  8.17921938  9.69900885
   2.72998286  0.07547273  9.75510499
   7.10296385  4.08898302  9.70551931
   7.12193492  8.28391578  9.49517455
   7.10993243 12.29104369  9.62112893
  11.03108824  4.03876809  9.76499881
   9.12810323  8.72299142  1.51744789
  11.16728056  0.16582861  7.26348807
   2.97358045  4.42778245  7.16629310
   2.99101187  8.56888153  7.10548977
   7.06495710  0.16693005  7.23823839
   7.19865633  4.37785273  6.97781733
   7.14647492  8.56854219  6.95581296
  11.19271892  4.30816373  7.28580042
   9.18823502  0.18788106  3.91819673
   0.77923894  0.24141537  3.95810023
   0.69113971  4.34734901  3.98177886
   0.97840578  8.59491428  3.98471513
   5.35964360  0.12851529  4.00111462
   4.84760670  4.18457022  3.97041621
   4.95117753  8.60178935  3.96536163
   3.04933497  0.26644135  7.14499336
  11.43439263  8.53732666  7.31100456
  11.37543487 10.60714060  1.61866270
   3.01695403  2.18187611  1.59596285
  11.35041775  2.35452476  1.35050239
   9.44187554  4.54954365  4.05663669
   0.87575077  2.49357235  9.48202897
   0.78591143  6.33942816  9.51940246
   0.91652436 10.58820191  9.53383495
   5.06613651  2.29011570  9.37105093
   5.16856480  6.40698429  9.43483057
   5.03956096 10.62781732  9.50121289
   9.04964137  2.17849994  9.53077920
   9.06446401  6.41126615  9.53515218
   9.27546532 10.63431531  9.33962632
   2.94200787  6.43964757  1.69865821
   2.99213300 10.82027059  1.69524509
   7.28352967  2.34070340  1.56168848
   7.27302563  6.50040776  1.64385828
   7.18735352 10.52436608  1.72708354
  11.21734792  6.50803320  1.48128435
   9.19099572  8.76811868  4.09606734
 


--------------------------------------------------------------------------------------------------------


 k-point   1 :   0.0000 0.0000 0.0000  plane waves:   46265
 k-point   2 :   0.5000 0.0000 0.0000  plane waves:   46318
 k-point   3 :   0.0000 0.5000 0.0000  plane waves:   46270
 k-point   4 :   0.5000 0.5000 0.0000  plane waves:   46404
 k-point   5 :   0.0000 0.0000 0.5000  plane waves:   46266
 k-point   6 :   0.5000 0.0000 0.5000  plane waves:   46264
 k-point   7 :   0.0000 0.5000 0.5000  plane waves:   46256
 k-point   8 :   0.5000 0.5000 0.5000  plane waves:   46272

 maximum and minimum number of plane-waves per node :      5884     5725

 maximum number of plane-waves:     46404
 maximum index in each direction: 
   IXMAX=   23   IYMAX=   23   IZMAX=   20
   IXMIN=  -23   IYMIN=  -23   IZMIN=  -21


 parallel 3D FFT for wavefunctions:
    minimum data exchange during FFTs selected (reduces bandwidth)
 parallel 3D FFT for charge:
    minimum data exchange during FFTs selected (reduces bandwidth)


 total amount of memory used by VASP MPI-rank0   110605. kBytes
=======================================================================

   base      :      30000. kBytes
   nonl-proj :      16310. kBytes
   fftplans  :       6179. kBytes
   grid      :      15593. kBytes
   one-center:        146. kBytes
   wavefun   :      42377. kBytes
 
     INWAV:  cpu time      0.0000: real time      0.0001
 Broyden mixing: mesh for mixing (old mesh)
   NGX = 47   NGY = 47   NGZ = 41
  (NGX  =192   NGY  =192   NGZ  =168)
  gives a total of  90569 points

 initial charge density was supplied:
 charge density of overlapping atoms calculated
 number of electron     360.0000000 magnetization      72.0000000
 keeping initial charge density in first step


--------------------------------------------------------------------------------------------------------


 Maximum index for augmentation-charges           922 (set IRDMAX)


--------------------------------------------------------------------------------------------------------


 First call to EWALD:  gamma=   0.148
 Maximum number of real-space cells 3x 3x 3
 Maximum number of reciprocal cells 3x 3x 3

    FEWALD:  cpu time      0.0070: real time      0.0070


--------------------------------------- Ionic step        1  -------------------------------------------




--------------------------------------- Iteration      1(   1)  ---------------------------------------


    POTLOK:  cpu time      0.1377: real time      0.1388
    SETDIJ:  cpu time      0.5969: real time      0.6014
     EDDAV:  cpu time      8.6895: real time      8.7408
       DOS:  cpu time      0.0017: real time      0.0017
    --------------------------------------------
      LOOP:  cpu time      9.4258: real time      9.4827

 eigenvalue-minimisations  :  7168
 total energy-change (2. order) : 0.1816028E+04  (-0.1419646E+05)
 number of electron     360.0000000 magnetization      72.0000000
 augmentation part      360.0000000 magnetization      72.0000000

 Free energy of the ion-electron system (eV)
  ---------------------------------------------------
  alpha Z        PSCENC =       798.38738196
  Ewald energy   TEWEN  =    -12871.77906883
  -Hartree energ DENC   =     -1111.53902144
  -exchange      EXHF   =         0.00000000
  -V(xc)+E(xc)   XCENC  =      -293.71846766
  PAW double counting   =     10738.42099860    -9719.93139476
  entropy T*S    EENTRO =        -0.02373568
  eigenvalues    EBANDS =      1239.75999439
  atomic energy  EATOM  =     13036.45147835
  Solvation  Ediel_sol  =         0.00000000
  ---------------------------------------------------
  free energy    TOTEN  =      1816.02816492 eV

  energy without entropy =     1816.05190061  energy(sigma->0) =     1816.04003276


--------------------------------------------------------------------------------------------------------




--------------------------------------- Iteration      1(   2)  ---------------------------------------


     EDDAV:  cpu time      9.8616: real time      9.9195
       DOS:  cpu time      0.0013: real time      0.0013
    --------------------------------------------
      LOOP:  cpu time      9.8629: real time      9.9208

 eigenvalue-minimisations  :  8464
 total energy-change (2. order) :-0.1879391E+04  (-0.1804840E+04)
 number of electron     360.0000000 magnetization      72.0000000
 augmentation part      360.0000000 magnetization      72.0000000

 Free energy of the ion-electron system (eV)
  ---------------------------------------------------
  alpha Z        PSCENC =       798.38738196
  Ewald energy   TEWEN  =    -12871.77906883
  -Hartree energ DENC   =     -1111.53902144
  -exchange      EXHF   =         0.00000000
  -V(xc)+E(xc)   XCENC  =      -293.71846766
  PAW double counting   =     10738.42099860    -9719.93139476
  entropy T*S    EENTRO =        -0.01431284
  eigenvalues    EBANDS =      -639.64091513
  atomic energy  EATOM  =     13036.45147835
  Solvation  Ediel_sol  =         0.00000000
  ---------------------------------------------------
  free energy    TOTEN  =       -63.36332175 eV

  energy without entropy =      -63.34900891  energy(sigma->0) =      -63.35616533


--------------------------------------------------------------------------------------------------------




--------------------------------------- Iteration      1(   3)  ---------------------------------------


     EDDAV:  cpu time      9.9186: real time      9.9691
       DOS:  cpu time      0.0016: real time      0.0016
    --------------------------------------------
      LOOP:  cpu time      9.9201: real time      9.9707

 eigenvalue-minimisations  :  8584
 total energy-change (2. order) :-0.2181898E+03  (-0.2121297E+03)
 number of electron     360.0000000 magnetization      72.0000000
 augmentation part      360.0000000 magnetization      72.0000000

 Free energy of the ion-electron system (eV)
  ---------------------------------------------------
  alpha Z        PSCENC =       798.38738196
  Ewald energy   TEWEN  =    -12871.77906883
  -Hartree energ DENC   =     -1111.53902144
  -exchange      EXHF   =         0.00000000
  -V(xc)+E(xc)   XCENC  =      -293.71846766
  PAW double counting   =     10738.42099860    -9719.93139476
  entropy T*S    EENTRO =        -0.00011709
  eigenvalues    EBANDS =      -857.84494258
  atomic energy  EATOM  =     13036.45147835
  Solvation  Ediel_sol  =         0.00000000
  ---------------------------------------------------
  free energy    TOTEN  =      -281.55315345 eV

  energy without entropy =     -281.55303636  energy(sigma->0) =     -281.55309491


--------------------------------------------------------------------------------------------------------




--------------------------------------- Iteration      1(   4)  ---------------------------------------


     EDDAV:  cpu time     10.0397: real time     10.0938
       DOS:  cpu time      0.0014: real time      0.0014
    --------------------------------------------
      LOOP:  cpu time     10.0411: real time     10.0952

 eigenvalue-minimisations  :  8752
 total energy-change (2. order) :-0.7946049E+01  (-0.7853700E+01)
 number of electron     360.0000000 magnetization      72.0000000
 augmentation part      360.0000000 magnetization      72.0000000

 Free energy of the ion-electron system (eV)
  ---------------------------------------------------
  alpha Z        PSCENC =       798.38738196
  Ewald energy   TEWEN  =    -12871.77906883
  -Hartree energ DENC   =     -1111.53902144
  -exchange      EXHF   =         0.00000000
  -V(xc)+E(xc)   XCENC  =      -293.71846766
  PAW double counting   =     10738.42099860    -9719.93139476
  entropy T*S    EENTRO =        -0.00001977
  eigenvalues    EBANDS =      -865.79108885
  atomic energy  EATOM  =     13036.45147835
  Solvation  Ediel_sol  =         0.00000000
  ---------------------------------------------------
  free energy    TOTEN  =      -289.49920241 eV

  energy without entropy =     -289.49918263  energy(sigma->0) =     -289.49919252


--------------------------------------------------------------------------------------------------------




--------------------------------------- Iteration      1(   5)  ---------------------------------------


     EDDAV:  cpu time     10.4335: real time     10.4871
       DOS:  cpu time      0.0015: real time      0.0015
    CHARGE:  cpu time      0.4255: real time      0.4275
    MIXING:  cpu time      0.0069: real time      0.0074
    --------------------------------------------
      LOOP:  cpu time     10.8673: real time     10.9235

 eigenvalue-minimisations  :  9096
 total energy-change (2. order) :-0.2980146E+00  (-0.2972215E+00)
 number of electron     360.0000003 magnetization      48.7870673
 augmentation part      -66.8326890 magnetization      49.0001939

 Broyden mixing:
  rms(total) = 0.29130E+01    rms(broyden)= 0.29130E+01
  rms(prec ) = 0.30730E+01
  weight for this iteration     100.00

 Free energy of the ion-electron system (eV)
  ---------------------------------------------------
  alpha Z        PSCENC =       798.38738196
  Ewald energy   TEWEN  =    -12871.77906883
  -Hartree energ DENC   =     -1111.53902144
  -exchange      EXHF   =         0.00000000
  -V(xc)+E(xc)   XCENC  =      -293.71846766
  PAW double counting   =     10738.42099860    -9719.93139476
  entropy T*S    EENTRO =        -0.00002080
  eigenvalues    EBANDS =      -866.08910245
  atomic energy  EATOM  =     13036.45147835
  Solvation  Ediel_sol  =         0.00000000
  ---------------------------------------------------
  free energy    TOTEN  =      -289.79721704 eV

  energy without entropy =     -289.79719623  energy(sigma->0) =     -289.79720664


--------------------------------------------------------------------------------------------------------




--------------------------------------- Iteration      1(   6)  ---------------------------------------


    POTLOK:  cpu time      0.1351: real time      0.1363
    SETDIJ:  cpu time      0.5997: real time      0.6014
     EDDAV:  cpu time      9.3376: real time      9.3827
       DOS:  cpu time      0.0011: real time      0.0011
    CHARGE:  cpu time      0.4254: real time      0.4269
    MIXING:  cpu time      0.0076: real time      0.0076
    --------------------------------------------
      LOOP:  cpu time     10.5065: real time     10.5560

 eigenvalue-minimisations  :  7944
 total energy-change (2. order) : 0.5369422E+00  (-0.2700282E+01)
 number of electron     360.0000003 magnetization      27.9515090
 augmentation part      -66.2115307 magnetization      29.1334541

 Broyden mixing:
  rms(total) = 0.17231E+01    rms(broyden)= 0.17231E+01
  rms(prec ) = 0.17597E+01
  weight for this iteration     100.00

 eigenvalues of (default mixing * dielectric matrix)
  average eigenvalue GAMMA=   1.0074
  1.0074

 Free energy of the ion-electron system (eV)
  ---------------------------------------------------
  alpha Z        PSCENC =       798.38738196
  Ewald energy   TEWEN  =    -12871.77906883
  -Hartree energ DENC   =     -1165.44457229
  -exchange      EXHF   =         0.00000000
  -V(xc)+E(xc)   XCENC  =      -287.24489531
  PAW double counting   =     13012.54968052   -11997.57334541
  entropy T*S    EENTRO =        -0.00008190
  eigenvalues    EBANDS =      -814.60685190
  atomic energy  EATOM  =     13036.45147835
  Solvation  Ediel_sol  =         0.00000000
  ---------------------------------------------------
  free energy    TOTEN  =      -289.26027481 eV

  energy without entropy =     -289.26019291  energy(sigma->0) =     -289.26023386


--------------------------------------------------------------------------------------------------------




--------------------------------------- Iteration      1(   7)  ---------------------------------------


    POTLOK:  cpu time      0.1298: real time      0.1306
    SETDIJ:  cpu time      0.6018: real time      0.6034
     EDDAV:  cpu time      9.4688: real time      9.5147
       DOS:  cpu time      0.0011: real time      0.0011
    CHARGE:  cpu time      0.4278: real time      0.4294
    MIXING:  cpu time      0.0077: real time      0.0077
    --------------------------------------------
      LOOP:  cpu time     10.6369: real time     10.6868

 eigenvalue-minimisations  :  8072
 total energy-change (2. order) :-0.7319783E+01  (-0.8696130E+00)
 number of electron     360.0000003 magnetization       9.2501200
 augmentation part      -66.2036739 magnetization       9.9247846

 Broyden mixing:
  rms(total) = 0.90964E+00    rms(broyden)= 0.90964E+00
  rms(prec ) = 0.92553E+00
  weight for this iteration     100.00

 eigenvalues of (default mixing * dielectric matrix)
  average eigenvalue GAMMA=   1.4529
  0.8620  2.0438

 Free energy of the ion-electron system (eV)
  ---------------------------------------------------
  alpha Z        PSCENC =       798.38738196
  Ewald energy   TEWEN  =    -12871.77906883
  -Hartree energ DENC   =     -1181.86872904
  -exchange      EXHF   =         0.00000000
  -V(xc)+E(xc)   XCENC  =      -290.18808499
  PAW double counting   =     15087.97471176   -14074.60628285
  entropy T*S    EENTRO =        -0.00000005
  eigenvalues    EBANDS =      -800.95146455
  atomic energy  EATOM  =     13036.45147835
  Solvation  Ediel_sol  =         0.00000000
  ---------------------------------------------------
  free energy    TOTEN  =      -296.58005823 eV

  energy without entropy =     -296.58005818  energy(sigma->0) =     -296.58005821


--------------------------------------------------------------------------------------------------------




--------------------------------------- Iteration      1(   8)  ---------------------------------------


    POTLOK:  cpu time      0.1300: real time      0.1307
    SETDIJ:  cpu time      0.5989: real time      0.6017
     EDDAV:  cpu time      9.4751: real time      9.5202
       DOS:  cpu time      0.0009: real time      0.0009
    CHARGE:  cpu time      0.4210: real time      0.4228
    MIXING:  cpu time      0.0076: real time      0.0076
    --------------------------------------------
      LOOP:  cpu time     10.6336: real time     10.6839

 eigenvalue-minimisations  :  8136
 total energy-change (2. order) :-0.3227717E+01  (-0.1720243E+00)
 number of electron     360.0000003 magnetization       4.3296277
 augmentation part      -66.2186638 magnetization       4.6382914

 Broyden mixing:
  rms(total) = 0.32915E+00    rms(broyden)= 0.32915E+00
  rms(prec ) = 0.33435E+00
  weight for this iteration     100.00

 eigenvalues of (default mixing * dielectric matrix)
  average eigenvalue GAMMA=   1.3620
  2.5033  0.9260  0.6567

 Free energy of the ion-electron system (eV)
  ---------------------------------------------------
  alpha Z        PSCENC =       798.38738196
  Ewald energy   TEWEN  =    -12871.77906883
  -Hartree energ DENC   =     -1185.91579689
  -exchange      EXHF   =         0.00000000
  -V(xc)+E(xc)   XCENC  =      -289.93103735
  PAW double counting   =     16852.21059263   -15839.76364715
  entropy T*S    EENTRO =        -0.00000000
  eigenvalues    EBANDS =      -799.46767812
  atomic energy  EATOM  =     13036.45147835
  Solvation  Ediel_sol  =         0.00000000
  ---------------------------------------------------
  free energy    TOTEN  =      -299.80777540 eV

  energy without entropy =     -299.80777540  energy(sigma->0) =     -299.80777540


--------------------------------------------------------------------------------------------------------




--------------------------------------- Iteration      1(   9)  ---------------------------------------


    POTLOK:  cpu time      0.1296: real time      0.1304
    SETDIJ:  cpu time      0.5987: real time      0.6012
     EDDAV:  cpu time     10.3637: real time     10.4129
       DOS:  cpu time      0.0009: real time      0.0009
    CHARGE:  cpu time      0.4124: real time      0.4139
    MIXING:  cpu time      0.0078: real time      0.0078
    --------------------------------------------
      LOOP:  cpu time     11.5133: real time     11.5672

 eigenvalue-minimisations  :  9104
 total energy-change (2. order) :-0.3879861E+00  (-0.4324081E-01)
 number of electron     360.0000003 magnetization       2.2663680
 augmentation part      -66.2570854 magnetization       2.4181662

 Broyden mixing:
  rms(total) = 0.14719E+00    rms(broyden)= 0.14719E+00
  rms(prec ) = 0.14875E+00
  weight for this iteration     100.00

 eigenvalues of (default mixing * dielectric matrix)
  average eigenvalue GAMMA=   1.3318
  2.6338  1.2380  0.8344  0.6209

 Free energy of the ion-electron system (eV)
  ---------------------------------------------------
  alpha Z        PSCENC =       798.38738196
  Ewald energy   TEWEN  =    -12871.77906883
  -Hartree energ DENC   =     -1184.88255815
  -exchange      EXHF   =         0.00000000
  -V(xc)+E(xc)   XCENC  =      -289.97161504
  PAW double counting   =     17145.67871938   -16133.57314500
  entropy T*S    EENTRO =        -0.00000000
  eigenvalues    EBANDS =      -800.50695413
  atomic energy  EATOM  =     13036.45147835
  Solvation  Ediel_sol  =         0.00000000
  ---------------------------------------------------
  free energy    TOTEN  =      -300.19576146 eV

  energy without entropy =     -300.19576146  energy(sigma->0) =     -300.19576146


--------------------------------------------------------------------------------------------------------




--------------------------------------- Iteration      1(  10)  ---------------------------------------


    POTLOK:  cpu time      0.1322: real time      0.1332
    SETDIJ:  cpu time      0.5971: real time      0.5994
     EDDAV:  cpu time      9.4350: real time      9.4895
       DOS:  cpu time      0.0010: real time      0.0010
    CHARGE:  cpu time      0.4112: real time      0.4126
    MIXING:  cpu time      0.0075: real time      0.0075
    --------------------------------------------
      LOOP:  cpu time     10.5841: real time     10.6433

 eigenvalue-minimisations  :  8024
 total energy-change (2. order) :-0.1021750E+00  (-0.9432900E-02)
 number of electron     360.0000003 magnetization       0.7324172
 augmentation part      -66.2581311 magnetization       0.7998332

 Broyden mixing:
  rms(total) = 0.72727E-01    rms(broyden)= 0.72727E-01
  rms(prec ) = 0.73811E-01
  weight for this iteration     100.00

 eigenvalues of (default mixing * dielectric matrix)
  average eigenvalue GAMMA=   1.3764
  2.7040  1.7538  0.9718  0.8261  0.6264

 Free energy of the ion-electron system (eV)
  ---------------------------------------------------
  alpha Z        PSCENC =       798.38738196
  Ewald energy   TEWEN  =    -12871.77906883
  -Hartree energ DENC   =     -1185.12266270
  -exchange      EXHF   =         0.00000000
  -V(xc)+E(xc)   XCENC  =      -289.96786455
  PAW double counting   =     17152.93258824   -16140.84127618
  entropy T*S    EENTRO =        -0.00000000
  eigenvalues    EBANDS =      -800.35851272
  atomic energy  EATOM  =     13036.45147835
  Solvation  Ediel_sol  =         0.00000000
  ---------------------------------------------------
  free energy    TOTEN  =      -300.29793642 eV

  energy without entropy =     -300.29793642  energy(sigma->0) =     -300.29793642


--------------------------------------------------------------------------------------------------------




--------------------------------------- Iteration      1(  11)  ---------------------------------------


    POTLOK:  cpu time      0.1294: real time      0.1301
    SETDIJ:  cpu time      0.5987: real time      0.6015
     EDDAV:  cpu time     10.3409: real time     10.3910
       DOS:  cpu time      0.0009: real time      0.0010
    CHARGE:  cpu time      0.4283: real time      0.4301
    MIXING:  cpu time      0.0102: real time      0.0103
    --------------------------------------------
      LOOP:  cpu time     11.5085: real time     11.5639

 eigenvalue-minimisations  :  9056
 total energy-change (2. order) :-0.3073739E-01  (-0.3550651E-02)
 number of electron     360.0000003 magnetization       0.1825610
 augmentation part      -66.2437831 magnetization       0.2013754

 Broyden mixing:
  rms(total) = 0.28241E-01    rms(broyden)= 0.28241E-01
  rms(prec ) = 0.28684E-01
  weight for this iteration     100.00

 eigenvalues of (default mixing * dielectric matrix)
  average eigenvalue GAMMA=   1.4034
  2.9035  2.1632  1.1725  0.8565  0.7005  0.6244

 Free energy of the ion-electron system (eV)
  ---------------------------------------------------
  alpha Z        PSCENC =       798.38738196
  Ewald energy   TEWEN  =    -12871.77906883
  -Hartree energ DENC   =     -1186.21493491
  -exchange      EXHF   =         0.00000000
  -V(xc)+E(xc)   XCENC  =      -289.93018722
  PAW double counting   =     17075.25062676   -16063.13118898
  entropy T*S    EENTRO =        -0.00000000
  eigenvalues    EBANDS =      -799.36278094
  atomic energy  EATOM  =     13036.45147835
  Solvation  Ediel_sol  =         0.00000000
  ---------------------------------------------------
  free energy    TOTEN  =      -300.32867381 eV

  energy without entropy =     -300.32867381  energy(sigma->0) =     -300.32867381


--------------------------------------------------------------------------------------------------------




--------------------------------------- Iteration      1(  12)  ---------------------------------------


    POTLOK:  cpu time      0.1297: real time      0.1310
    SETDIJ:  cpu time      0.6007: real time      0.6022
     EDDAV:  cpu time      9.8966: real time      9.9499
       DOS:  cpu time      0.0012: real time      0.0012
    CHARGE:  cpu time      0.4310: real time      0.4328
    MIXING:  cpu time      0.0081: real time      0.0081
    --------------------------------------------
      LOOP:  cpu time     11.0674: real time     11.1253

 eigenvalue-minimisations  :  8416
 total energy-change (2. order) :-0.3249331E-02  (-0.4550350E-03)
 number of electron     360.0000003 magnetization       0.0586963
 augmentation part      -66.2435858 magnetization       0.0631583

 Broyden mixing:
  rms(total) = 0.10504E-01    rms(broyden)= 0.10504E-01
  rms(prec ) = 0.11101E-01
  weight for this iteration     100.00

 eigenvalues of (default mixing * dielectric matrix)
  average eigenvalue GAMMA=   1.3681
  3.0063  2.3260  1.2083  0.8856  0.8856  0.6098  0.6549

 Free energy of the ion-electron system (eV)
  ---------------------------------------------------
  alpha Z        PSCENC =       798.38738196
  Ewald energy   TEWEN  =    -12871.77906883
  -Hartree energ DENC   =     -1186.28443564
  -exchange      EXHF   =         0.00000000
  -V(xc)+E(xc)   XCENC  =      -289.93502741
  PAW double counting   =     17039.81035402   -16027.66808093
  entropy T*S    EENTRO =        -0.00000000
  eigenvalues    EBANDS =      -799.31452467
  atomic energy  EATOM  =     13036.45147835
  Solvation  Ediel_sol  =         0.00000000
  ---------------------------------------------------
  free energy    TOTEN  =      -300.33192314 eV

  energy without entropy =     -300.33192314  energy(sigma->0) =     -300.33192314


--------------------------------------------------------------------------------------------------------




--------------------------------------- Iteration      1(  13)  ---------------------------------------


    POTLOK:  cpu time      0.1300: real time      0.1306
    SETDIJ:  cpu time      0.5991: real time      0.6008
     EDDAV:  cpu time     11.0641: real time     11.1168
       DOS:  cpu time      0.0007: real time      0.0007
    CHARGE:  cpu time      0.4074: real time      0.4089
    MIXING:  cpu time      0.0087: real time      0.0087
    --------------------------------------------
      LOOP:  cpu time     12.2099: real time     12.2665

 eigenvalue-minimisations  :  9856
 total energy-change (2. order) :-0.1227473E-03  (-0.5788764E-04)
 number of electron     360.0000003 magnetization       0.0155999
 augmentation part      -66.2449579 magnetization       0.0164422

 Broyden mixing:
  rms(total) = 0.42639E-02    rms(broyden)= 0.42639E-02
  rms(prec ) = 0.44626E-02
  weight for this iteration     100.00

 eigenvalues of (default mixing * dielectric matrix)
  average eigenvalue GAMMA=   1.3459
  3.0539  2.4278  1.0797  1.0797  1.0074  0.8595  0.6497  0.6097

 Free energy of the ion-electron system (eV)
  ---------------------------------------------------
  alpha Z        PSCENC =       798.38738196
  Ewald energy   TEWEN  =    -12871.77906883
  -Hartree energ DENC   =     -1186.18281270
  -exchange      EXHF   =         0.00000000
  -V(xc)+E(xc)   XCENC  =      -289.94558612
  PAW double counting   =     17026.26645643   -16014.11317484
  entropy T*S    EENTRO =        -0.00000000
  eigenvalues    EBANDS =      -799.41672014
  atomic energy  EATOM  =     13036.45147835
  Solvation  Ediel_sol  =         0.00000000
  ---------------------------------------------------
  free energy    TOTEN  =      -300.33204589 eV

  energy without entropy =     -300.33204589  energy(sigma->0) =     -300.33204589


--------------------------------------------------------------------------------------------------------




--------------------------------------- Iteration      1(  14)  ---------------------------------------


    POTLOK:  cpu time      0.1293: real time      0.1299
    SETDIJ:  cpu time      0.5970: real time      0.5999
     EDDAV:  cpu time      9.6628: real time      9.7091
       DOS:  cpu time      0.0009: real time      0.0009
    CHARGE:  cpu time      0.4252: real time      0.4275
    MIXING:  cpu time      0.0083: real time      0.0083
    --------------------------------------------
      LOOP:  cpu time     10.8234: real time     10.8755

 eigenvalue-minimisations  :  8256
 total energy-change (2. order) :-0.1557988E-04  (-0.8909329E-05)
 number of electron     360.0000003 magnetization       0.0049986
 augmentation part      -66.2446180 magnetization       0.0053259

 Broyden mixing:
  rms(total) = 0.16522E-02    rms(broyden)= 0.16522E-02
  rms(prec ) = 0.17576E-02
  weight for this iteration     100.00

 eigenvalues of (default mixing * dielectric matrix)
  average eigenvalue GAMMA=   1.3337
  3.0795  2.4611  1.4652  1.1859  0.8913  0.8913  0.7733  0.6120  0.6438

 Free energy of the ion-electron system (eV)
  ---------------------------------------------------
  alpha Z        PSCENC =       798.38738196
  Ewald energy   TEWEN  =    -12871.77906883
  -Hartree energ DENC   =     -1186.18634554
  -exchange      EXHF   =         0.00000000
  -V(xc)+E(xc)   XCENC  =      -289.94635563
  PAW double counting   =     17021.80701405   -16009.65088936
  entropy T*S    EENTRO =        -0.00000000
  eigenvalues    EBANDS =      -799.41527648
  atomic energy  EATOM  =     13036.45147835
  Solvation  Ediel_sol  =         0.00000000
  ---------------------------------------------------
  free energy    TOTEN  =      -300.33206147 eV

  energy without entropy =     -300.33206147  energy(sigma->0) =     -300.33206147


--------------------------------------------------------------------------------------------------------




--------------------------------------- Iteration      1(  15)  ---------------------------------------


    POTLOK:  cpu time      0.1293: real time      0.1299
    SETDIJ:  cpu time      0.6015: real time      0.6033
     EDDAV:  cpu time      9.9462: real time      9.9962
       DOS:  cpu time      0.0009: real time      0.0009
    CHARGE:  cpu time      0.4098: real time      0.4113
    MIXING:  cpu time      0.0085: real time      0.0085
    --------------------------------------------
      LOOP:  cpu time     11.0962: real time     11.1501

 eigenvalue-minimisations  :  8640
 total energy-change (2. order) :-0.2712409E-05  (-0.1531619E-05)
 number of electron     360.0000003 magnetization       0.0018106
 augmentation part      -66.2447684 magnetization       0.0020242

 Broyden mixing:
  rms(total) = 0.77503E-03    rms(broyden)= 0.77502E-03
  rms(prec ) = 0.82110E-03
  weight for this iteration     100.00

 eigenvalues of (default mixing * dielectric matrix)
  average eigenvalue GAMMA=   1.3022
  3.0896  2.4352  1.6855  1.1106  0.9619  0.9619  0.8277  0.7083  0.6205  0.6205

 Free energy of the ion-electron system (eV)
  ---------------------------------------------------
  alpha Z        PSCENC =       798.38738196
  Ewald energy   TEWEN  =    -12871.77906883
  -Hartree energ DENC   =     -1186.17434418
  -exchange      EXHF   =         0.00000000
  -V(xc)+E(xc)   XCENC  =      -289.94671710
  PAW double counting   =     17021.33909893   -16009.18224633
  entropy T*S    EENTRO =        -0.00000000
  eigenvalues    EBANDS =      -799.42764700
  atomic energy  EATOM  =     13036.45147835
  Solvation  Ediel_sol  =         0.00000000
  ---------------------------------------------------
  free energy    TOTEN  =      -300.33206418 eV

  energy without entropy =     -300.33206418  energy(sigma->0) =     -300.33206418


--------------------------------------------------------------------------------------------------------




--------------------------------------- Iteration      1(  16)  ---------------------------------------


    POTLOK:  cpu time      0.1303: real time      0.1310
    SETDIJ:  cpu time      0.5972: real time      0.6002
     EDDAV:  cpu time      6.7335: real time      6.7664
       DOS:  cpu time      0.0013: real time      0.0013
    --------------------------------------------
      LOOP:  cpu time      7.4624: real time      7.4989

 eigenvalue-minimisations  :  4776
 total energy-change (2. order) :-0.5559878E-06  (-0.1428926E-06)
 number of electron     360.0000003 magnetization       0.0018106
 augmentation part      -66.2447684 magnetization       0.0020242

 Free energy of the ion-electron system (eV)
  ---------------------------------------------------
  alpha Z        PSCENC =       798.38738196
  Ewald energy   TEWEN  =    -12871.77906883
  -Hartree energ DENC   =     -1186.16835618
  -exchange      EXHF   =         0.00000000
  -V(xc)+E(xc)   XCENC  =      -289.94694829
  PAW double counting   =     17021.32078127   -16009.16371010
  entropy T*S    EENTRO =        -0.00000000
  eigenvalues    EBANDS =      -799.43362292
  atomic energy  EATOM  =     13036.45147835
  Solvation  Ediel_sol  =         0.00000000
  ---------------------------------------------------
  free energy    TOTEN  =      -300.33206474 eV

  energy without entropy =     -300.33206474  energy(sigma->0) =     -300.33206474


--------------------------------------------------------------------------------------------------------




 average (electrostatic) potential at core
  the test charge radii are     1.1631  1.0808
  (the norm of the test charge is              1.0000)
       1 -33.4405       2 -33.5849       3 -33.5058       4 -33.4355       5 -33.2111
       6 -33.2731       7 -33.4790       8 -33.4566       9 -33.5989      10 -33.4779
      11 -33.6380      12 -33.5019      13 -33.3124      14 -33.3279      15 -33.2610
      16 -33.3806      17 -33.4105      18 -33.8748      19 -33.4471      20 -33.3670
      21 -33.2972      22 -33.3635      23 -33.3272      24 -33.7070      25 -33.3948
      26 -33.6838      27 -33.2588      28 -33.4071      29 -33.4260      30 -33.7350
      31 -33.7293      32 -33.6184      33 -33.4674      34 -33.4319      35 -33.4866
      36 -33.5112      37 -54.7677      38 -54.7969      39 -54.9822      40 -54.9685
      41 -54.6064      42 -54.7800      43 -54.7387      44 -54.7696      45 -54.9677
      46 -54.9536      47 -54.6318      48 -54.8654      49 -54.6476      50 -54.8638
      51 -54.8668      52 -54.8302      53 -54.7424      54 -55.0310      55 -54.6947
      56 -54.7638      57 -54.9071      58 -54.6076      59 -54.8379      60 -54.9143
      61 -54.7778      62 -54.6473      63 -54.8134      64 -55.0319      65 -54.8749
      66 -55.0027      67 -54.7467      68 -55.0142      69 -54.5567      70 -54.6150
      71 -54.8463      72 -55.1005
 
 
 
 E-fermi :   3.4919     XC(G=0):  -9.3867     alpha+bet : -8.8375

 Fermi energy:         3.4918574777

 spin component 1

 k-point     1 :       0.0000    0.0000    0.0000
  band No.  band energies     occupation 
      1     -10.8880      1.00000
      2     -10.5730      1.00000
      3     -10.4221      1.00000
      4     -10.3854      1.00000
      5     -10.2938      1.00000
      6     -10.2216      1.00000
      7     -10.1594      1.00000
      8     -10.1141      1.00000
      9     -10.0114      1.00000
     10      -9.9848      1.00000
     11      -9.8975      1.00000
     12      -9.8090      1.00000
     13      -9.7926      1.00000
     14      -9.7655      1.00000
     15      -9.6994      1.00000
     16      -9.6182      1.00000
     17      -9.5774      1.00000
     18      -9.5552      1.00000
     19      -9.4932      1.00000
     20      -9.4442      1.00000
     21      -9.4130      1.00000
     22      -9.3805      1.00000
     23      -9.3384      1.00000
     24      -9.2837      1.00000
     25      -9.2452      1.00000
     26      -9.2297      1.00000
     27      -9.1733      1.00000
     28      -9.1692      1.00000
     29      -9.1074      1.00000
     30      -9.0876      1.00000
     31      -9.0495      1.00000
     32      -9.0254      1.00000
     33      -8.9825      1.00000
     34      -8.9335      1.00000
     35      -8.8956      1.00000
     36      -8.8732      1.00000
     37      -5.4380      1.00000
     38      -5.3512      1.00000
     39      -5.3093      1.00000
     40      -5.2691      1.00000
     41      -5.1363      1.00000
     42      -5.0469      1.00000
     43      -4.9813      1.00000
     44      -4.9604      1.00000
     45      -4.7701      1.00000
     46      -4.7139      1.00000
     47      -4.5671      1.00000
     48      -4.4856      1.00000
     49      -4.4781      1.00000
     50      -4.4401      1.00000
     51      -4.4124      1.00000
     52      -4.3668      1.00000
     53      -4.3514      1.00000
     54      -4.3121      1.00000
     55      -4.2850      1.00000
     56      -4.2628      1.00000
     57      -4.2428      1.00000
     58      -4.2140      1.00000
     59      -4.1976      1.00000
     60      -4.1455      1.00000
     61      -4.0983      1.00000
     62      -3.9956      1.00000
     63      -3.9551      1.00000
     64      -3.9362      1.00000
     65      -3.8713      1.00000
     66      -3.8117      1.00000
     67      -3.6856      1.00000
     68      -3.6376      1.00000
     69      -3.5107      1.00000
     70      -3.4409      1.00000
     71      -2.4351      1.00000
     72      -2.3754      1.00000
     73      -1.8319      1.00000
     74      -1.6161      1.00000
     75      -1.5842      1.00000
     76      -1.5735      1.00000
     77      -1.4622      1.00000
     78      -1.3958      1.00000
     79      -1.3456      1.00000
     80      -1.3066      1.00000
     81      -1.2630      1.00000
     82      -1.2146      1.00000
     83      -1.1230      1.00000
     84      -1.0614      1.00000
     85      -0.9795      1.00000
     86      -0.8598      1.00000
     87      -0.7730      1.00000
     88      -0.7291      1.00000
     89      -0.7122      1.00000
     90      -0.6277      1.00000
     91      -0.5663      1.00000
     92      -0.5275      1.00000
     93      -0.4049      1.00000
     94      -0.3202      1.00000
     95      -0.1114      1.00000
     96      -0.0382      1.00000
     97       0.0091      1.00000
     98       0.0305      1.00000
     99       0.0598      1.00000
    100       0.0876      1.00000
    101       0.1464      1.00000
    102       0.1986      1.00000
    103       0.2087      1.00000
    104       0.2247      1.00000
    105       0.3057      1.00000
    106       0.3426      1.00000
    107       0.3594      1.00000
    108       0.3974      1.00000
    109       0.4241      1.00000
    110       0.4559      1.00000
    111       0.4876      1.00000
    112       0.5272      1.00000
    113       0.5451      1.00000
    114       0.5759      1.00000
    115       0.6628      1.00000
    116       0.6691      1.00000
    117       0.7020      1.00000
    118       0.7398      1.00000
    119       0.7841      1.00000
    120       0.8356      1.00000
    121       0.8420      1.00000
    122       0.8710      1.00000
    123       0.8946      1.00000
    124       0.9352      1.00000
    125       0.9925      1.00000
    126       1.0162      1.00000
    127       1.0269      1.00000
    128       1.0615      1.00000
    129       1.1048      1.00000
    130       1.1540      1.00000
    131       1.1768      1.00000
    132       1.2501      1.00000
    133       1.2553      1.00000
    134       1.3058      1.00000
    135       1.3140      1.00000
    136       1.4426      1.00000
    137       1.4696      1.00000
    138       1.4846      1.00000
    139       1.5304      1.00000
    140       1.5705      1.00000
    141       1.6264      1.00000
    142       1.6352      1.00000
    143       1.6968      1.00000
    144       1.7317      1.00000
    145       1.7466      1.00000
    146       1.7680      1.00000
    147       1.7978      1.00000
    148       1.8543      1.00000
    149       1.9090      1.00000
    150       1.9328      1.00000
[...]
   0.937E+00 -.505E+01 -.233E+02   -.878E+00 0.667E+01 0.260E+02   -.262E-01 -.174E+01 -.252E+01   0.165E-03 -.713E-05 0.110E-03
   -.217E+00 0.671E+00 0.310E+02   0.114E+01 -.138E+01 -.333E+02   -.126E+01 0.876E+00 0.239E+01   0.723E-04 0.663E-04 0.138E-04
   -.104E+02 -.311E+01 0.391E+02   0.105E+02 0.239E+01 -.412E+02   0.507E+00 0.108E+01 0.124E+01   -.136E-04 0.127E-03 -.185E-04
   0.173E+01 0.242E+01 0.309E+02   -.199E+01 -.326E+01 -.324E+02   0.157E+00 0.759E+00 0.161E+01   0.724E-04 0.187E-04 0.740E-06
   0.335E+01 0.165E+02 0.188E+02   -.356E+01 -.177E+02 -.203E+02   -.152E+00 0.826E+00 0.196E+01   0.418E-03 -.269E-04 -.227E-03
   0.399E+01 0.102E+02 0.319E+02   -.412E+01 -.116E+02 -.340E+02   -.113E-01 0.134E+01 0.117E+01   0.227E-03 -.811E-04 -.139E-04
   0.743E+01 0.259E+01 0.330E+02   -.771E+01 -.327E+01 -.346E+02   0.717E-01 0.810E+00 0.226E+01   -.137E-03 0.872E-04 -.464E-03
   0.101E+02 0.143E+02 0.188E+02   -.102E+02 -.152E+02 -.206E+02   0.169E+00 0.864E+00 0.218E+01   -.975E-04 0.291E-04 -.592E-04
   -.429E+01 0.123E+02 0.368E+02   0.441E+01 -.133E+02 -.386E+02   0.280E-02 0.130E+01 0.115E+01   0.800E-04 -.179E-03 -.376E-03
   -.806E+01 -.292E+02 -.218E+02   0.831E+01 0.308E+02 0.231E+02   -.136E+00 -.158E+01 -.156E+01   0.111E-03 0.139E-03 0.330E-03
   0.914E+01 -.376E+01 -.305E+02   -.974E+01 0.415E+01 0.322E+02   0.840E+00 -.223E+00 -.143E+01   0.112E-03 0.313E-03 0.852E-04
   -.154E+02 -.141E+02 -.370E+02   0.158E+02 0.154E+02 0.394E+02   0.579E+00 -.129E+01 -.148E+01   0.458E-04 -.360E-03 -.817E-04
   0.938E+00 0.102E+01 -.271E+02   -.123E+01 -.548E+00 0.288E+02   0.448E+00 -.612E+00 -.169E+01   0.236E-03 -.969E-04 -.265E-03
   0.255E+02 -.132E+02 -.118E+02   -.269E+02 0.144E+02 0.127E+02   -.153E+00 0.359E+00 -.152E+01   0.942E-05 0.380E-04 0.208E-03
   -.994E+01 -.202E+02 -.234E+02   0.972E+01 0.212E+02 0.252E+02   0.384E+00 -.958E+00 -.183E+01   -.146E-03 0.146E-03 -.226E-03
   0.475E+01 0.117E+00 -.237E+02   -.482E+01 0.102E+01 0.256E+02   0.227E+00 -.139E+01 -.144E+01   -.112E-03 -.250E-03 0.211E-04
   0.154E+01 0.100E+02 0.211E+02   -.146E+01 -.109E+02 -.223E+02   -.484E+00 0.927E+00 0.147E+01   -.243E-03 0.131E-03 -.407E-03
   -.979E+01 0.921E+01 0.281E+02   0.101E+02 -.101E+02 -.297E+02   -.526E+00 0.904E+00 0.865E+00   -.295E-03 0.411E-04 -.534E-04
   0.753E+01 -.358E+01 0.309E+02   -.822E+01 0.422E+01 -.326E+02   0.510E+00 -.528E+00 0.166E+01   0.133E-03 0.280E-05 -.200E-03
   0.533E+01 0.159E+01 0.162E+02   -.604E+01 -.162E+01 -.174E+02   0.473E+00 0.125E+00 0.155E+01   -.183E-03 0.526E-03 0.349E-04
   0.119E+02 -.490E+00 0.166E+02   -.125E+02 0.968E+00 -.183E+02   0.151E+00 -.684E+00 0.236E+01   0.300E-03 0.478E-04 0.397E-03
   0.273E+02 0.454E+01 -.337E+02   -.284E+02 -.442E+01 0.358E+02   0.571E+00 -.306E+00 -.185E+01   0.443E-04 -.329E-03 -.304E-03
   0.781E+00 0.983E+01 -.220E+02   -.122E+01 -.107E+02 0.236E+02   0.596E+00 0.187E+00 -.162E+01   0.337E-03 -.101E-03 0.486E-04
   -.178E+02 -.246E+01 -.297E+02   0.180E+02 0.171E+01 0.313E+02   0.171E+00 0.134E+01 -.160E+01   0.274E-03 -.484E-04 0.216E-03
   -.960E+01 0.134E+02 -.265E+02   0.956E+01 -.144E+02 0.279E+02   0.332E+00 0.140E+01 -.156E+01   -.229E-03 0.250E-03 0.213E-03
   -.847E+00 0.349E+01 -.325E+02   0.103E+01 -.446E+01 0.343E+02   -.629E-01 0.118E+01 -.940E+00   -.277E-03 0.169E-03 0.758E-04
   0.675E+01 0.338E+00 -.437E+02   -.694E+01 -.105E+01 0.458E+02   -.414E-01 0.116E+01 -.146E+01   -.281E-03 -.495E-04 -.860E-04
   0.105E+02 0.983E+01 -.407E+02   -.111E+02 -.103E+02 0.428E+02   0.422E+00 0.512E+00 -.173E+01   0.372E-03 -.577E-04 -.123E-03
   -.374E+00 0.138E+01 -.281E+02   0.471E+00 -.194E+01 0.302E+02   0.818E-01 0.109E+01 -.157E+01   0.516E-04 -.404E-03 -.259E-03
   0.148E+02 0.748E+01 -.261E+02   -.152E+02 -.826E+01 0.279E+02   0.340E+00 0.612E+00 -.176E+01   0.815E-04 0.293E-03 -.551E-05
   0.111E+02 0.143E+02 -.356E+02   -.115E+02 -.154E+02 0.371E+02   -.143E+00 0.781E+00 -.123E+01   -.604E-04 0.130E-03 0.112E-03
   -.107E+02 -.165E+02 0.375E+02   0.104E+02 0.174E+02 -.398E+02   0.480E-01 -.973E+00 0.148E+01   0.146E-03 -.364E-03 -.799E-04
   -.127E+02 -.497E+01 0.314E+02   0.131E+02 0.587E+01 -.330E+02   -.738E-01 -.124E+01 0.156E+01   -.203E-03 -.197E-03 0.125E-03
   0.339E+01 -.242E+02 0.186E+02   -.321E+01 0.257E+02 -.204E+02   -.469E+00 -.140E+01 0.143E+01   -.338E-04 0.209E-03 0.183E-03
   0.366E+02 0.103E+02 0.273E+02   -.379E+02 -.104E+02 -.292E+02   0.128E+01 0.320E+00 0.170E+01   -.617E-04 -.237E-03 0.284E-03
   0.134E+02 -.200E+01 0.386E+02   -.137E+02 0.272E+01 -.397E+02   0.139E+00 -.742E+00 0.993E+00   0.176E-04 -.480E-04 -.798E-04
   -.111E+02 -.150E+02 0.218E+02   0.114E+02 0.160E+02 -.235E+02   -.416E-01 -.906E+00 0.210E+01   -.596E-04 -.223E-03 0.157E-04
   0.293E+01 0.383E+01 -.205E+02   -.333E+01 -.340E+01 0.219E+02   0.554E+00 -.982E+00 -.175E+01   0.335E-05 0.401E-04 0.139E-03
 -----------------------------------------------------------------------------------------------
   0.877E+01 0.610E+00 -.439E+00   0.995E-13 0.959E-13 0.284E-13   -.877E+01 -.611E+00 0.440E+00   -.340E-04 -.132E-04 -.684E-03
 
 
 POSITION                                       TOTAL-FORCE (eV/Angst)
 -----------------------------------------------------------------------------------
      0.70597      0.53178      1.43853        -0.092631     -0.206589     -0.193691
      2.83043     11.17697      4.24267         0.041282     -0.388186     -0.302707
      6.91140      2.60835      4.03390        -0.063472      0.046419      0.383960
      7.06986      7.02433      4.09336        -0.149265     -0.280895      0.138753
      7.11631     11.11895      4.32737         1.118391     -1.156559     -0.153733
     11.19606      2.70558      3.98530        -0.233343     -0.417530     -0.236127
     11.03711      6.92288      4.07052         0.401180     -0.097229     -0.027199
     11.04621     10.87109      4.13983        -0.000601      0.135813     -0.143951
      0.88470      1.94283      6.97754        -0.217929     -0.200666      0.153320
      0.82273      6.15186      6.97606        -0.131055     -0.333755      0.346389
      1.00802     10.36082      6.94590        -0.163074     -0.177712      0.400868
      5.12112      1.97692      6.92077        -0.005594     -0.101070     -0.287477
      4.94351      6.11322      7.00096         0.412294     -0.155098     -0.496572
      4.93772     10.19875      7.03176         0.435455      0.447428     -0.236399
      9.03416      1.82404      7.08354         0.244646      0.383681     -0.510048
      9.24560      6.09032      7.02859        -0.235919     -0.246125     -0.283341
      2.95564      6.75228      4.11385        -0.107664      0.425086      0.734536
      2.63662      2.36997      4.32162        -0.041876      0.588427     -0.546435
      9.34113     10.09589      6.82598        -0.038847      0.178404      0.061674
     10.98642      8.05229      9.74800         0.782350      0.234697      0.449594
     11.21231     12.25617      9.67228         0.241162      0.114954      0.515507
      0.80365      4.78532      1.58978        -0.198133     -0.061049     -0.906097
      1.00265      9.02705      1.46006        -0.059230      0.038718      0.154017
      5.18260      0.73877      1.29497         0.040238     -0.433804      0.395491
      4.43568      4.39883      1.45544         0.659458      0.050916      0.049071
      9.00163      0.39348      1.27217         0.221319      0.117696      0.521073
      9.21655      4.75778      1.60532        -0.049590      0.161123     -0.370714
      4.91812      8.88972      1.54158         0.146399      0.497346     -0.542152
      3.01939      3.93950      9.68926        -0.038631      0.373421     -0.171118
      2.94996      8.17922      9.69901        -0.163060     -0.347707     -0.316610
      2.72998      0.07547      9.75510         0.041651     -0.485448     -0.340555
      7.10296      4.08898      9.70552        -0.130002     -0.319048     -0.743515
      7.12193      8.28392      9.49517        -0.357560     -0.113182     -0.059673
      7.10993     12.29104      9.62113        -0.066501     -0.324523      0.824059
     11.03109      4.03877      9.76500         0.033290     -0.126135      0.137046
      9.12810      8.72299      1.51745        -0.335062      0.169640      0.024126
     11.16728      0.16583      7.26349         0.569619      0.354933     -0.808556
      2.97358      4.42778      7.16629        -0.097549     -0.079708      0.043053
      2.99101      8.56888      7.10549        -0.366106     -0.353551      0.399672
      7.06496      0.16693      7.23824        -0.141351     -0.026480     -0.955205
      7.19866      4.37785      6.97782        -0.209811      0.122255      0.676741
      7.14647      8.56854      6.95581         0.007633     -0.068643      0.380122
     11.19272      4.30816      7.28580         0.123375      0.268265     -0.639433
      9.18824      0.18788      3.91820         0.111183      0.061478     -0.307986
      0.77924      0.24142      3.95810         0.242128      0.161495      0.244004
      0.69114      4.34735      3.98178         0.961503     -0.042579      0.959444
      0.97841      8.59491      3.98472         0.159994     -0.137940      0.033122
      5.35964      0.12852      4.00111        -1.561971      1.545420     -0.603053
      4.84761      4.18457      3.97042         0.158755      0.044343     -0.043310
      4.95118      8.60179      3.96536         0.159058     -0.249855      0.548524
      3.04933      0.26644      7.14499        -0.405156      0.018218      0.215898
     11.43439      8.53733      7.31100        -0.236428      0.018749     -0.772174
     11.37543     10.60714      1.61866        -0.175931      0.115536     -0.006782
      3.01695      2.18188      1.59596        -0.235729      0.100882      0.430021
     11.35042      2.35452      1.35050        -0.454806     -0.205915      0.606040
      9.44188      4.54954      4.05664        -0.564171     -0.184377      0.280889
      0.87575      2.49357      9.48203         0.152770     -0.718362     -0.062281
      0.78591      6.33943      9.51940         0.337837      0.596370      0.018347
      0.91652     10.58820      9.53383         0.295251      0.449849     -0.204215
      5.06614      2.29012      9.37105         0.123134      0.211126      0.777998
      5.16856      6.40698      9.43483        -0.235405      0.456636      0.576520
      5.03956     10.62782      9.50121        -0.087109      0.047539      0.367307
      9.04964      2.17850      9.53078         0.178494      0.529596      0.497823
      9.06446      6.41127      9.53515        -0.093447     -0.164293      0.008271
      9.27547     10.63432      9.33963        -0.556127     -0.338001      0.351367
      2.94201      6.43965      1.69866        -0.255501     -0.033861     -0.803875
      2.99213     10.82027      1.69525         0.254710     -0.335183     -0.010191
      7.28353      2.34070      1.56169        -0.292264      0.065066     -0.369221
      7.27303      6.50041      1.64386        -0.030353      0.228491     -0.182327
      7.18735     10.52437      1.72708        -0.203527     -0.013750     -0.147133
     11.21735      6.50803      1.48128         0.266403      0.115497      0.409716
      9.19100      8.76812      4.09607         0.160820     -0.550704     -0.330510
 -----------------------------------------------------------------------------------
    total drift:                               -0.000917     -0.000388     -0.000581


--------------------------------------------------------------------------------------------------------



  FREE ENERGIE OF THE ION-ELECTRON SYSTEM (eV)
  ---------------------------------------------------
  free  energy   TOTEN  =      -300.33206474 eV

  energy  without entropy=     -300.33206474  energy(sigma->0) =     -300.33206474
 


--------------------------------------------------------------------------------------------------------


    POTLOK:  cpu time      0.7301: real time      0.7327


--------------------------------------------------------------------------------------------------------


     LOOP+:  cpu time    182.3884: real time    183.3141
    4ORBIT:  cpu time      0.0000: real time      0.0000



 total charge

# of ion       s       p       d       tot
------------------------------------------
    1        1.320   0.772   0.059   2.151
    2        1.329   0.735   0.050   2.114
    3        1.331   0.745   0.052   2.128
    4        1.328   0.755   0.053   2.135
    5        1.304   0.843   0.072   2.219
    6        1.317   0.799   0.061   2.177
    7        1.335   0.736   0.051   2.122
    8        1.318   0.767   0.058   2.143
    9        1.319   0.742   0.049   2.109
   10        1.330   0.728   0.050   2.109
   11        1.328   0.727   0.052   2.107
   12        1.323   0.768   0.059   2.151
   13        1.316   0.783   0.057   2.156
   14        1.316   0.793   0.060   2.168
   15        1.323   0.790   0.061   2.174
   16        1.319   0.771   0.057   2.146
   17        1.320   0.780   0.059   2.158
   18        1.344   0.673   0.045   2.062
   19        1.320   0.767   0.058   2.144
   20        1.327   0.773   0.059   2.159
   21        1.308   0.818   0.064   2.190
   22        1.324   0.793   0.061   2.178
   23        1.315   0.777   0.055   2.147
   24        1.338   0.714   0.048   2.099
   25        1.311   0.802   0.059   2.172
   26        1.337   0.698   0.048   2.083
   27        1.308   0.811   0.063   2.183
   28        1.321   0.766   0.054   2.141
   29        1.309   0.786   0.058   2.153
   30        1.338   0.684   0.042   2.064
   31        1.340   0.686   0.045   2.071
   32        1.341   0.692   0.047   2.081
   33        1.331   0.742   0.053   2.126
   34        1.306   0.806   0.063   2.174
   35        1.331   0.742   0.058   2.131
   36        1.332   0.728   0.055   2.115
   37        1.477   2.305   0.031   3.813
   38        1.475   2.298   0.029   3.802
   39        1.477   2.301   0.033   3.811
   40        1.475   2.334   0.038   3.847
   41        1.479   2.261   0.024   3.764
   42        1.478   2.287   0.031   3.796
   43        1.475   2.305   0.031   3.811
   44        1.475   2.295   0.029   3.799
   45        1.478   2.302   0.034   3.815
   46        1.474   2.326   0.037   3.837
   47        1.476   2.282   0.026   3.784
   48        1.474   2.325   0.033   3.832
   49        1.477   2.292   0.027   3.796
   50        1.477   2.311   0.034   3.822
   51        1.477   2.282   0.028   3.787
   52        1.474   2.309   0.032   3.814
   53        1.475   2.297   0.029   3.801
   54        1.477   2.290   0.032   3.799
   55        1.480   2.278   0.030   3.788
   56        1.478   2.310   0.034   3.823
   57        1.477   2.294   0.031   3.802
   58        1.477   2.276   0.025   3.778
   59        1.478   2.281   0.028   3.787
   60        1.473   2.316   0.033   3.822
   61        1.476   2.299   0.030   3.805
   62        1.476   2.292   0.027   3.794
   63        1.476   2.307   0.033   3.816
   64        1.477   2.318   0.038   3.832
   65        1.474   2.309   0.032   3.816
   66        1.478   2.328   0.038   3.845
   67        1.476   2.288   0.028   3.792
   68        1.478   2.306   0.034   3.818
   69        1.476   2.299   0.027   3.801
   70        1.475   2.284   0.025   3.785
   71        1.478   2.291   0.033   3.802
   72        1.481   2.297   0.041   3.819
--------------------------------------------------
tot        100.808 110.066   3.121 213.996



 magnetization (x)

# of ion       s       p       d       tot
------------------------------------------
    1       -0.000   0.000   0.000   0.000
    2       -0.000   0.000   0.000   0.000
    3       -0.000   0.000  -0.000   0.000
    4       -0.000   0.000  -0.000   0.000
    5       -0.000   0.000   0.000   0.000
    6       -0.000   0.000  -0.000   0.000
    7       -0.000   0.000  -0.000  -0.000
    8       -0.000   0.000  -0.000   0.000
    9       -0.000   0.000   0.000   0.000
   10       -0.000   0.000  -0.000   0.000
   11       -0.000   0.000   0.000   0.000
   12       -0.000   0.000   0.000   0.000
   13       -0.000   0.000   0.000   0.000
   14       -0.000   0.000   0.000   0.000
   15       -0.000   0.000  -0.000   0.000
   16       -0.000  -0.000  -0.000  -0.000
   17       -0.000   0.000   0.000   0.000
   18       -0.000   0.000   0.000   0.000
   19       -0.000   0.000  -0.000   0.000
   20       -0.000   0.000  -0.000  -0.000
   21       -0.000   0.000  -0.000   0.000
   22       -0.000   0.000   0.000   0.000
   23       -0.000   0.000   0.000   0.000
   24       -0.000   0.000   0.000   0.000
   25       -0.000   0.000   0.000   0.000
   26       -0.000   0.000   0.000   0.000
   27       -0.000   0.000  -0.000  -0.000
   28       -0.000   0.000   0.000   0.000
   29       -0.000   0.000   0.000   0.000
   30       -0.000   0.000   0.000   0.000
   31       -0.000   0.000   0.000   0.000
   32       -0.000   0.000   0.000   0.000
   33       -0.000   0.000  -0.000  -0.000
   34       -0.000   0.000   0.000   0.000
   35       -0.000   0.000  -0.000   0.000
   36       -0.000  -0.000  -0.000  -0.000
   37       -0.000  -0.000  -0.000  -0.000
   38       -0.000  -0.000   0.000  -0.000
   39       -0.000  -0.000   0.000  -0.000
   40       -0.000  -0.000   0.000  -0.000
   41       -0.000  -0.000  -0.000  -0.000
   42       -0.000  -0.000   0.000  -0.000
   43       -0.000  -0.000  -0.000  -0.000
   44       -0.000  -0.000   0.000  -0.000
   45       -0.000  -0.000   0.000  -0.000
   46       -0.000  -0.000   0.000  -0.000
   47       -0.000  -0.000   0.000  -0.000
   48       -0.000  -0.000   0.000  -0.000
   49       -0.000  -0.000   0.000  -0.000
   50       -0.000  -0.000   0.000  -0.000
   51       -0.000  -0.000   0.000  -0.000
   52       -0.000  -0.000  -0.000  -0.000
   53       -0.000  -0.000   0.000  -0.000
   54       -0.000  -0.000   0.000  -0.000
   55       -0.000  -0.000   0.000  -0.000
   56       -0.000  -0.000  -0.000  -0.000
   57       -0.000  -0.000   0.000  -0.000
   58       -0.000  -0.000   0.000  -0.000
   59       -0.000  -0.000   0.000  -0.000
   60       -0.000  -0.000   0.000  -0.000
   61       -0.000  -0.000   0.000  -0.000
   62       -0.000  -0.000   0.000  -0.000
   63       -0.000  -0.000  -0.000  -0.000
   64       -0.000  -0.000  -0.000  -0.000
   65       -0.000  -0.000  -0.000  -0.000
   66       -0.000  -0.000   0.000  -0.000
   67       -0.000  -0.000   0.000  -0.000
   68       -0.000  -0.000   0.000  -0.000
   69       -0.000  -0.000  -0.000  -0.000
   70       -0.000  -0.000   0.000  -0.000
   71       -0.000  -0.000  -0.000  -0.000
   72       -0.000  -0.000  -0.000  -0.000
--------------------------------------------------
tot         -0.000  -0.000   0.000  -0.000
 

 total amount of memory used by VASP MPI-rank0   110605. kBytes
=======================================================================

   base      :      30000. kBytes
   nonl-proj :      16310. kBytes
   fftplans  :       6179. kBytes
   grid      :      15593. kBytes
   one-center:        146. kBytes
   wavefun   :      42377. kBytes
 
  
  
 General timing and accounting informations for this job:
 ========================================================
  
                  Total CPU time used (sec):      194.063
                            User time (sec):      188.005
                          System time (sec):        6.058
                         Elapsed time (sec):      196.591
  
                   Maximum memory used (kb):      317068.
                   Average memory used (kb):          N/A
  
                          Minor page faults:        96484
                          Major page faults:           48
                 Voluntary context switches:         6896
