 running  128 mpi-ranks, with    1 threads/rank, on    2 nodes
 distrk:  each k-point on   64 cores,    2 groups
 distr:  one band on    4 cores,   16 groups
 vasp.6.4.2 20Jul23 (build Oct 12 2023 10:31:02) complex                         
 POSCAR found type information on POSCAR GeSe
 POSCAR found :  2 types and       8 ions
 Reading from existing POTCAR
 scaLAPACK will be used
 Reading from existing POTCAR
 LDA part: xc-table for Pade appr. of Perdew
 POSCAR, INCAR and KPOINTS ok, starting setup
 FFT: planning ... GRIDC
 FFT: planning ... GRID_SOFT
 FFT: planning ... GRID
 WAVECAR not read
 entering main loop
       N       E                     dE             d eps       ncg     rms          rms(c)
DAV:   1     0.129869840138E+03    0.12987E+03   -0.12955E+04  2560   0.778E+02
DAV:   2    -0.257009940788E+02   -0.15557E+03   -0.15082E+03  3680   0.139E+02
DAV:   3    -0.341103221694E+02   -0.84093E+01   -0.83888E+01  3328   0.374E+01
DAV:   4    -0.341627697221E+02   -0.52448E-01   -0.52442E-01  3120   0.340E+00
DAV:   5    -0.341630836189E+02   -0.31390E-03   -0.31389E-03  3360   0.255E-01    0.648E+00
DAV:   6    -0.337899822225E+02    0.37310E+00   -0.74218E-01  3152   0.292E+00    0.406E+00
DAV:   7    -0.337815623317E+02    0.84199E-02   -0.23676E-01  3200   0.172E+00    0.126E+00
DAV:   8    -0.337793849576E+02    0.21774E-02   -0.26137E-02  2960   0.601E-01    0.171E-01
DAV:   9    -0.337795770425E+02   -0.19208E-03   -0.33668E-03  3040   0.254E-01    0.627E-02
DAV:  10    -0.337796224520E+02   -0.45409E-04   -0.22729E-04  3200   0.665E-02    0.236E-02
DAV:  11    -0.337796424337E+02   -0.19982E-04   -0.31242E-05  2992   0.260E-02    0.118E-02
DAV:  12    -0.337796421077E+02    0.32600E-06   -0.42750E-06  3184   0.848E-03
   1 F= -.33779642E+02 E0= -.33779642E+02  d E =-.119915E-11
