 running  128 mpi-ranks, with    1 threads/rank, on    2 nodes
 distrk:  each k-point on   64 cores,    2 groups
 distr:  one band on    4 cores,   16 groups
 vasp.6.4.2 20Jul23 (build Oct 12 2023 10:31:02) complex                         
 POSCAR found type information on POSCAR GeSe
 POSCAR found :  2 types and       8 ions
 Reading from existing POTCAR
 scaLAPACK will be used
 Reading from existing POTCAR
 LDA part: xc-table for Pade appr. of Perdew
 POSCAR, INCAR and KPOINTS ok, starting setup
 FFT: planning ... GRIDC
 FFT: planning ... GRID_SOFT
 FFT: planning ... GRID
 WAVECAR not read
 entering main loop
       N       E                     dE             d eps       ncg     rms          rms(c)
DAV:   1     0.127884642554E+03    0.12788E+03   -0.12898E+04  2560   0.777E+02
DAV:   2    -0.260559939229E+02   -0.15394E+03   -0.14925E+03  3792   0.139E+02
DAV:   3    -0.340622111197E+02   -0.80062E+01   -0.79915E+01  3280   0.369E+01
DAV:   4    -0.341113375960E+02   -0.49126E-01   -0.49118E-01  3200   0.329E+00
DAV:   5    -0.341116352715E+02   -0.29768E-03   -0.29766E-03  3264   0.248E-01    0.661E+00
DAV:   6    -0.337595719063E+02    0.35206E+00   -0.68834E-01  3072   0.283E+00    0.415E+00
DAV:   7    -0.337489162743E+02    0.10656E-01   -0.23254E-01  3264   0.171E+00    0.120E+00
DAV:   8    -0.337463931609E+02    0.25231E-02   -0.25590E-02  2992   0.594E-01    0.174E-01
DAV:   9    -0.337466220702E+02   -0.22891E-03   -0.33180E-03  3120   0.252E-01    0.619E-02
DAV:  10    -0.337466647298E+02   -0.42660E-04   -0.18913E-04  3136   0.595E-02    0.236E-02
DAV:  11    -0.337466878720E+02   -0.23142E-04   -0.33835E-05  3040   0.268E-02    0.116E-02
DAV:  12    -0.337466875317E+02    0.34030E-06   -0.39827E-06  3072   0.847E-03
   1 F= -.33746688E+02 E0= -.33746688E+02  d E =-.486734E-09
