 vasp.6.4.2 20Jul23 (build Oct 12 2023 10:31:02) complex                         
 executed on              LinuxNV date 2025.05.17  08:42:13
 running  160 mpi-ranks, with    1 threads/rank, on   10 nodes
 distrk:  each k-point on   80 cores,    2 groups
 distr:  one band on NCORE=   5 cores,   16 groups


--------------------------------------------------------------------------------------------------------


 INCAR:
   ENCUT = 360.000000
   SIGMA = 0.050000
   EDIFF = 1.00e-06
   ALGO = Normal
   GGA = PE
   PREC = Normal
   SYSTEM = ./
   ICHARG = 2
   ISMEAR = 0
   ISPIN = 1
   ISTART = 0
   ISYM = 0
   KPAR = 2
   LMAXMIX = 4
   NELM = 100
   NPAR = 16
   LASPH = .TRUE.
   LCHARG = .FALSE.
   LWAVE = .FALSE.

 POTCAR:    PAW_PBE Ge 05Jan2001                  
 POTCAR:    PAW_PBE Se 06Sep2000                  
 POTCAR:    PAW_PBE Ge 05Jan2001                  
   VRHFIN =Ge: s2p2                                                                                 
   LEXCH  = PE                                                                                      
   EATOM  =   104.9960 eV,    7.7170 Ry                                                             
                                                                                                    
   TITEL  = PAW_PBE Ge 05Jan2001                                                                    
   LULTRA =        F    use ultrasoft PP ?                                                          
   IUNSCR =        1    unscreen: 0-lin 1-nonlin 2-no                                               
   RPACOR =    2.170    partial core radius                                                         
   POMASS =   72.610; ZVAL   =    4.000    mass and valenz                                          
   RCORE  =    2.300    outmost cutoff radius                                                       
   RWIGS  =    2.300; RWIGS  =    1.217    wigner-seitz radius (au A)                               
   ENMAX  =  173.807; ENMIN  =  130.355 eV                                                          
   ICORE  =        3    local potential                                                             
   LCOR   =        T    correct aug charges                                                         
   LPAW   =        T    paw PP                                                                      
   EAUG   =  385.843                                                                                
   DEXC   =    0.000                                                                                
   RMAX   =    2.342    core radius for proj-oper                                                   
   RAUG   =    1.300    factor for augmentation sphere                                              
   RDEP   =    2.318    radius for radial grids                                                     
   RDEPT  =    2.103    core radius for aug-charge                                                  
                                                                                                    
   Atomic configuration                                                                             
   10 entries                                                                                       
     n  l   j            E        occ.                                                              
     1  0  0.50    -10959.8463   2.0000                                                             
     2  0  0.50     -1371.6056   2.0000                                                             
     2  1  1.50     -1198.4791   6.0000                                                             
     3  0  0.50      -168.4733   2.0000                                                             
     3  1  1.50      -115.6019   6.0000                                                             
     3  2  2.50       -29.3106  10.0000                                                             
     4  0  0.50       -11.7309   2.0000                                                             
     4  1  0.50        -3.8952   2.0000                                                             
     4  2  1.50        -4.0817   0.0000                                                             
     4  3  2.50        -4.0817   0.0000                                                             
   Description                                                                                      
     l       E           TYP  RCUT    TYP  RCUT                                                     
     0    -11.7309493     23  2.300                                                                 
     0     -7.4578696     23  2.300                                                                 
     1     -3.8952261     23  2.300                                                                 
     1      6.1178114     23  2.300                                                                 
     2     -4.0817478     23  2.300                                                                 
     3     -1.3605826      7  2.300                                                                 
  local pseudopotential read in
  partial core-charges read in
  partial kinetic energy density read in
  atomic valenz-charges read in
  non local Contribution for L=            0  read in
    real space projection operators read in
  non local Contribution for L=            0  read in
    real space projection operators read in
  non local Contribution for L=            1  read in
    real space projection operators read in
  non local Contribution for L=            1  read in
    real space projection operators read in
  non local Contribution for L=            2  read in
    real space projection operators read in
    PAW grid and wavefunctions read in
 
   number of l-projection  operators is LMAX  =            5
   number of lm-projection operators is LMMAX =           13
 
 POTCAR:    PAW_PBE Se 06Sep2000                  
   VRHFIN =Se: s2p4                                                                                 
   LEXCH  = PE                                                                                      
   EATOM  =   257.1286 eV,   18.8984 Ry                                                             
                                                                                                    
   TITEL  = PAW_PBE Se 06Sep2000                                                                    
   LULTRA =        F    use ultrasoft PP ?                                                          
   IUNSCR =        1    unscreen: 0-lin 1-nonlin 2-no                                               
   RPACOR =    1.900    partial core radius                                                         
   POMASS =   78.960; ZVAL   =    6.000    mass and valenz                                          
   RCORE  =    2.100    outmost cutoff radius                                                       
   RWIGS  =    2.200; RWIGS  =    1.164    wigner-seitz radius (au A)                               
   ENMAX  =  211.555; ENMIN  =  158.666 eV                                                          
   ICORE  =        3    local potential                                                             
   LCOR   =        T    correct aug charges                                                         
   LPAW   =        T    paw PP                                                                      
   EAUG   =  446.842                                                                                
   DEXC   =    0.000                                                                                
   RMAX   =    2.147    core radius for proj-oper                                                   
   RAUG   =    1.300    factor for augmentation sphere                                              
   RDEP   =    2.177    radius for radial grids                                                     
   RDEPT  =    1.928    core radius for aug-charge                                                  
                                                                                                    
   Atomic configuration                                                                             
   10 entries                                                                                       
     n  l   j            E        occ.                                                              
     1  0  0.50    -12503.4787   2.0000                                                             
     2  0  0.50     -1606.9547   2.0000                                                             
     2  1  1.50     -1413.3140   6.0000                                                             
     3  0  0.50      -213.4885   2.0000                                                             
     3  1  1.50      -152.9538   6.0000                                                             
     3  2  2.50       -53.1221  10.0000                                                             
     4  0  0.50       -17.2865   2.0000                                                             
     4  1  0.50        -6.5110   4.0000                                                             
     4  2  2.50        -6.8029   0.0000                                                             
     4  3  2.50        -6.8029   0.0000                                                             
   Description                                                                                      
     l       E           TYP  RCUT    TYP  RCUT                                                     
     0    -17.2865377     23  2.100                                                                 
     0    -15.3094411     23  2.100                                                                 
     1     -6.5110275     23  2.100                                                                 
     1     -0.0695192     23  2.100                                                                 
     2     -6.8029130     23  2.100                                                                 
     3     -1.3605826      7  2.100                                                                 
  local pseudopotential read in
  partial core-charges read in
  partial kinetic energy density read in
  atomic valenz-charges read in
  non local Contribution for L=            0  read in
    real space projection operators read in
  non local Contribution for L=            0  read in
    real space projection operators read in
  non local Contribution for L=            1  read in
    real space projection operators read in
  non local Contribution for L=            1  read in
    real space projection operators read in
  non local Contribution for L=            2  read in
    real space projection operators read in
    PAW grid and wavefunctions read in
 
   number of l-projection  operators is LMAX  =            5
   number of lm-projection operators is LMMAX =           13
 
  PAW_PBE Ge 05Jan2001                  :
 energy of atom  1       EATOM= -104.9960
 kinetic energy error for atom=    0.0005 (will be added to EATOM!!)
  PAW_PBE Se 06Sep2000                  :
 energy of atom  2       EATOM= -257.1286
 kinetic energy error for atom=    0.0030 (will be added to EATOM!!)
 
 
 POSCAR: Ge Se
  positions in cartesian coordinates
  No initial velocities read in
 exchange correlation table for  LEXCH =        8
   RHO(1)=    0.500       N(1)  =     2000
   RHO(2)=  100.500       N(2)  =     4000
 


--------------------------------------------------------------------------------------------------------


 ion  position               nearest neighbor table
   1  0.612  0.264  0.116-   5 2.58   6 2.59   6 2.59
   2  0.112  0.764  0.384-   6 2.58   5 2.59   5 2.59
   3  0.750  0.881  0.884-   7 2.58   8 2.59   8 2.59
   4  0.250  0.381  0.616-   8 2.58   7 2.59   7 2.59
   5  0.612  0.140  0.355-   1 2.58   2 2.59   2 2.59
   6  0.112  0.640  0.145-   2 2.58   1 2.59   1 2.59
   7  0.750  0.005  0.645-   3 2.58   4 2.59   4 2.59
   8  0.250  0.505  0.855-   4 2.58   3 2.59   3 2.59
 

IMPORTANT INFORMATION: All symmetrisations will be switched off!
NOSYMM: (Re-)initialisation of all symmetry stuff for point group C_1.


----------------------------------------------------------------------------------------

                                     Primitive cell                                     

  volume of cell :     184.8593

  direct lattice vectors                    reciprocal lattice vectors
     3.858100176  0.000000000  0.000000000     0.259194929  0.000000000  0.000000000
     0.000000000  4.526575088  0.000000000     0.000000000  0.220917577  0.000000000
     0.000000000  0.000000000 10.585176468     0.000000000  0.000000000  0.094471736

  length of vectors
     3.858100176  4.526575088 10.585176468     0.259194929  0.220917577  0.094471736

  position of ions in fractional coordinates (direct lattice)
     0.612318549  0.264123659  0.116293234
     0.112318598  0.764123685  0.383706663
     0.749999529  0.880803548  0.883706698
     0.249998913  0.380803590  0.616293301
     0.612318621  0.139868746  0.354521754
     0.112318500  0.639868847  0.145478256
     0.749999119  0.005058363  0.645478205
     0.249999423  0.505058446  0.854521738

  ion indices of the primitive-cell ions
   primitive index   ion index
                 1           1
                 2           2
                 3           3
                 4           4
                 5           5
                 6           6
                 7           7
                 8           8

----------------------------------------------------------------------------------------

 
 
 KPOINTS: KPOINTS created by Atomic Simulation Env

Automatic generation of k-mesh.
 Grid dimensions read from file:
 generate k-points for:    6    6    2

 Generating k-lattice:

  Cartesian coordinates                     Fractional coordinates (reciprocal lattice)
     0.043199155  0.000000000  0.000000000     0.166666667  0.000000000  0.000000000
     0.000000000  0.036819596  0.000000000     0.000000000  0.166666667  0.000000000
     0.000000000  0.000000000  0.047235868     0.000000000  0.000000000  0.500000000

  Length of vectors
     0.043199155  0.036819596  0.047235868

  Shift w.r.t. Gamma in fractional coordinates (k-lattice)
     0.000000000  0.000000000  0.000000000

 
 Subroutine IBZKPT returns following result:
 ===========================================
 
 Found     40 irreducible k-points:
 
 Following reciprocal coordinates:
            Coordinates               Weight
  0.000000  0.000000  0.000000      1.000000
  0.166667  0.000000  0.000000      2.000000
  0.333333  0.000000  0.000000      2.000000
  0.500000  0.000000  0.000000      1.000000
  0.000000  0.166667  0.000000      2.000000
  0.166667  0.166667  0.000000      2.000000
  0.166667 -0.166667  0.000000      2.000000
  0.333333  0.166667  0.000000      2.000000
  0.333333 -0.166667  0.000000      2.000000
  0.500000  0.166667  0.000000      2.000000
  0.000000  0.333333  0.000000      2.000000
  0.166667  0.333333  0.000000      2.000000
  0.166667 -0.333333  0.000000      2.000000
  0.333333  0.333333  0.000000      2.000000
  0.333333 -0.333333  0.000000      2.000000
  0.500000  0.333333  0.000000      2.000000
  0.000000  0.500000  0.000000      1.000000
  0.166667  0.500000  0.000000      2.000000
  0.333333  0.500000  0.000000      2.000000
  0.500000  0.500000  0.000000      1.000000
  0.000000  0.000000  0.500000      1.000000
  0.166667  0.000000  0.500000      2.000000
  0.333333  0.000000  0.500000      2.000000
  0.500000  0.000000  0.500000      1.000000
  0.000000  0.166667  0.500000      2.000000
  0.166667  0.166667  0.500000      2.000000
  0.166667 -0.166667  0.500000      2.000000
  0.333333  0.166667  0.500000      2.000000
  0.333333 -0.166667  0.500000      2.000000
  0.500000  0.166667  0.500000      2.000000
  0.000000  0.333333  0.500000      2.000000
  0.166667  0.333333  0.500000      2.000000
  0.166667 -0.333333  0.500000      2.000000
  0.333333  0.333333  0.500000      2.000000
  0.333333 -0.333333  0.500000      2.000000
  0.500000  0.333333  0.500000      2.000000
  0.000000  0.500000  0.500000      1.000000
  0.166667  0.500000  0.500000      2.000000
  0.333333  0.500000  0.500000      2.000000
  0.500000  0.500000  0.500000      1.000000
 
 Following cartesian coordinates:
            Coordinates               Weight
  0.000000  0.000000  0.000000      1.000000
  0.043199  0.000000  0.000000      2.000000
  0.086398  0.000000  0.000000      2.000000
  0.129597  0.000000  0.000000      1.000000
  0.000000  0.036820  0.000000      2.000000
  0.043199  0.036820  0.000000      2.000000
  0.043199 -0.036820  0.000000      2.000000
  0.086398  0.036820  0.000000      2.000000
  0.086398 -0.036820  0.000000      2.000000
  0.129597  0.036820  0.000000      2.000000
  0.000000  0.073639  0.000000      2.000000
  0.043199  0.073639  0.000000      2.000000
  0.043199 -0.073639  0.000000      2.000000
  0.086398  0.073639  0.000000      2.000000
  0.086398 -0.073639  0.000000      2.000000
  0.129597  0.073639  0.000000      2.000000
  0.000000  0.110459  0.000000      1.000000
  0.043199  0.110459  0.000000      2.000000
  0.086398  0.110459  0.000000      2.000000
  0.129597  0.110459  0.000000      1.000000
  0.000000  0.000000  0.047236      1.000000
  0.043199  0.000000  0.047236      2.000000
  0.086398  0.000000  0.047236      2.000000
  0.129597  0.000000  0.047236      1.000000
  0.000000  0.036820  0.047236      2.000000
  0.043199  0.036820  0.047236      2.000000
  0.043199 -0.036820  0.047236      2.000000
  0.086398  0.036820  0.047236      2.000000
  0.086398 -0.036820  0.047236      2.000000
  0.129597  0.036820  0.047236      2.000000
  0.000000  0.073639  0.047236      2.000000
  0.043199  0.073639  0.047236      2.000000
  0.043199 -0.073639  0.047236      2.000000
  0.086398  0.073639  0.047236      2.000000
  0.086398 -0.073639  0.047236      2.000000
  0.129597  0.073639  0.047236      2.000000
  0.000000  0.110459  0.047236      1.000000
  0.043199  0.110459  0.047236      2.000000
  0.086398  0.110459  0.047236      2.000000
  0.129597  0.110459  0.047236      1.000000
 


--------------------------------------------------------------------------------------------------------




 Dimension of arrays:
   k-points           NKPTS =     40   k-points in BZ     NKDIM =     40   number of bands    NBANDS=     32
   number of dos      NEDOS =    301   number of ions     NIONS =      8
   non local maximal  LDIM  =      5   non local SUM 2l+1 LMDIM =     13
   total plane-waves  NPLWV =  21600
   max r-space proj   IRMAX =      1   max aug-charges    IRDMAX=   6549
   dimension x,y,z NGX =    18 NGY =   24 NGZ =   50
   dimension x,y,z NGXF=    36 NGYF=   48 NGZF=  100
   support grid    NGXF=    36 NGYF=   48 NGZF=  100
   ions per type =               4   4
   NGX,Y,Z   is equivalent  to a cutoff of   7.76,  8.81,  7.85 a.u.
   NGXF,Y,Z  is equivalent  to a cutoff of  15.51, 17.63, 15.71 a.u.

 SYSTEM =  ./                                      
 POSCAR =  Ge Se                                   

 Startparameter for this run:
   NWRITE =      2    write-flag & timer
   PREC   = normal    normal or accurate (medium, high low for compatibility)
   ISTART =      0    job   : 0-new  1-cont  2-samecut
   ICHARG =      2    charge: 1-file 2-atom 10-const
   ISPIN  =      1    spin polarized calculation?
   LNONCOLLINEAR =      F non collinear calculations
   LSORBIT =      F    spin-orbit coupling
   INIWAV =      1    electr: 0-lowe 1-rand  2-diag
   LASPH  =      T    aspherical Exc in radial PAW
 Electronic Relaxation 1
   ENCUT  =  360.0 eV  26.46 Ry    5.14 a.u.   5.97  7.00 16.38*2*pi/ulx,y,z
   ENINI  =  360.0     initial cutoff
   ENAUG  =  446.8 eV  augmentation charge cutoff
   NELM   =    100;   NELMIN=  2; NELMDL= -5     # of ELM steps 
   EDIFF  = 0.1E-05   stopping-criterion for ELM
   LREAL  =      F    real-space projection
   NLSPLINE    = F    spline interpolate recip. space projectors
   LCOMPAT=      F    compatible to vasp.4.4
   GGA_COMPAT  = T    GGA compatible to vasp.4.4-vasp.4.6
   LMAXPAW     = -100 max onsite density
   LMAXMIX     =    4 max onsite mixed and CHGCAR
   VOSKOWN=      0    Vosko Wilk Nusair interpolation
   ROPT   =    0.00000   0.00000
 Ionic relaxation
   EDIFFG = 0.1E-04   stopping-criterion for IOM
   NSW    =      0    number of steps for IOM
   NBLOCK =      1;   KBLOCK =      1    inner block; outer block 
   IBRION =     -1    ionic relax: 0-MD 1-quasi-New 2-CG
   NFREE  =      0    steps in history (QN), initial steepest desc. (CG)
   ISIF   =      2    stress and relaxation
   IWAVPR =     10    prediction:  0-non 1-charg 2-wave 3-comb
   ISYM   =      0    0-nonsym 1-usesym 2-fastsym
   LCORR  =      T    Harris-Foulkes like correction to forces

   POTIM  = 0.5000    time-step for ionic-motion
   TEIN   =    0.0    initial temperature
   TEBEG  =    0.0;   TEEND  =   0.0 temperature during run
   SMASS  =  -3.00    Nose mass-parameter (am)
   estimated Nose-frequenzy (Omega)   =  0.10E-29 period in steps = 0.13E+47 mass=  -0.340E-27a.u.
   SCALEE = 1.0000    scale energy and forces
   NPACO  =    256;   APACO  = 10.0  distance and # of slots for P.C.
   PSTRESS=    0.0 pullay stress

  Mass of Ions in am
   POMASS =  72.61 78.96
  Ionic Valenz
   ZVAL   =   4.00  6.00
  Atomic Wigner-Seitz radii
   RWIGS  =  -1.00 -1.00
  virtual crystal weights 
   VCA    =   1.00  1.00
   NELECT =      40.0000    total number of electrons
   NUPDOWN=      -1.0000    fix difference up-down

 DOS related values:
   EMIN   =  10.00;   EMAX   =-10.00  energy-range for DOS
   EFERMI =   0.00;   METHOD = LEGACY      
   ISMEAR =     0;   SIGMA  =   0.05  broadening in eV -4-tet -1-fermi 0-gaus

 Electronic relaxation 2 (details)
   IALGO  =     38    algorithm
   LDIAG  =      T    sub-space diagonalisation (order eigenvalues)
   LSUBROT=      F    optimize rotation matrix (better conditioning)
   TURBO    =      0    0=normal 1=particle mesh
   IRESTART =      0    0=no restart 2=restart with 2 vectors
   NREBOOT  =      0    no. of reboots
   NMIN     =      0    reboot dimension
   EREF     =   0.00    reference energy to select bands
   IMIX   =      4    mixing-type and parameters
     AMIX     =   0.40;   BMIX     =  1.00
     AMIX_MAG =   1.60;   BMIX_MAG =  1.00
     AMIN     =   0.10
     WC   =   100.;   INIMIX=   1;  MIXPRE=   1;  MAXMIX= -45

 Intra band minimization:
   WEIMIN = 0.0000     energy-eigenvalue tresh-hold
   EBREAK =  0.78E-08  absolut break condition
   DEPER  =   0.30     relativ break condition  

   TIME   =   0.40     timestep for ELM

  volume/ion in A,a.u.               =      23.11       155.94
  Fermi-wavevector in a.u.,A,eV,Ry     =   0.982836  1.857291 13.142773  0.965967
  Thomas-Fermi vector in A             =   2.113949
 
 Write flags
   LWAVE        =      F    write WAVECAR
   LDOWNSAMPLE  =      F    k-point downsampling of WAVECAR
   LCHARG       =      F    write CHGCAR
   LVTOT        =      F    write LOCPOT, total local potential
   LVHAR        =      F    write LOCPOT, Hartree potential only
   LELF         =      F    write electronic localiz. function (ELF)
   LORBIT       =      0    0 simple, 1 ext, 2 COOP (PROOUT), +10 PAW based schemes


 Dipole corrections
   LMONO  =      F    monopole corrections only (constant potential shift)
   LDIPOL =      F    correct potential (dipole corrections)
   IDIPOL =      0    1-x, 2-y, 3-z, 4-all directions 
   EPSILON=  1.0000000 bulk dielectric constant

 Exchange correlation treatment:
   GGA     =    PE    GGA type
   LEXCH   =     8    internal setting for exchange type
   LIBXC   =     F    Libxc                    
   VOSKOWN =     0    Vosko Wilk Nusair interpolation
   LHFCALC =     F    Hartree Fock is set to
   LHFONE  =     F    Hartree Fock one center treatment
   AEXX    =    0.0000 exact exchange contribution

 Linear response parameters
   LEPSILON=     F    determine dielectric tensor
   LRPA    =     F    only Hartree local field effects (RPA)
   LNABLA  =     F    use nabla operator in PAW spheres
   LVEL    =     F    velocity operator in full k-point grid
   CSHIFT  =0.1000    complex shift for real part using Kramers Kronig
   OMEGAMAX=  -1.0    maximum frequency
   DEG_THRESHOLD= 0.2000000E-02 threshold for treating states as degnerate
   RTIME   =   -0.100 relaxation time in fs
  (WPLASMAI=    0.000 imaginary part of plasma frequency in eV, 0.658/RTIME)
   DFIELD  = 0.0000000 0.0000000 0.0000000 field for delta impulse in time
 
  Optional k-point grid parameters
   LKPOINTS_OPT  =     F    use optional k-point grid
   KPOINTS_OPT_MODE=     1    mode for optional k-point grid
 
 Orbital magnetization related:
   ORBITALMAG=     F  switch on orbital magnetization
   LCHIMAG   =     F  perturbation theory with respect to B field
   DQ        =  0.001000  dq finite difference perturbation B field
   LLRAUG    =     F  two centre corrections for induced B field
   LBONE     =     F  B-component reconstruction in AE one-centre
   LVGVCALC  =     T  calculate vGv susceptibility
   LVGVAPPL  =     F  apply vGv susceptibility instead of pGv for G=0

 Random number generation:
   RANDOM_GENERATOR = DEFAULT
   PCG_SEED         = not used


--------------------------------------------------------------------------------------------------------


 Static calculation
 charge density and potential will be updated during run
 non-spin polarized calculation
 Variant of blocked Davidson
 Davidson routine will perform the subspace rotation
 perform sub-space diagonalisation
    after iterative eigenvector-optimisation
 modified Broyden-mixing scheme, WC =      100.0
 initial mixing is a Kerker type mixing with AMIX =  0.4000 and BMIX =      1.0000
 Hartree-type preconditioning will be used
 using additional bands            12
 reciprocal scheme for non local part
 use partial core corrections
 calculate Harris-corrections to forces 
   (improved forces if not selfconsistent)
 use gradient corrections 
 use of overlap-Matrix (Vanderbilt PP)
 Gauss-broadening in eV      SIGMA  =   0.05


--------------------------------------------------------------------------------------------------------


  energy-cutoff  :      360.00
  volume of cell :      184.86
      direct lattice vectors                 reciprocal lattice vectors
     3.858100176  0.000000000  0.000000000     0.259194929  0.000000000  0.000000000
     0.000000000  4.526575088  0.000000000     0.000000000  0.220917577  0.000000000
     0.000000000  0.000000000 10.585176468     0.000000000  0.000000000  0.094471736

  length of vectors
     3.858100176  4.526575088 10.585176468     0.259194929  0.220917577  0.094471736


 
 k-points in units of 2pi/SCALE and weight: KPOINTS created by Atomic Simulation Env
   0.00000000  0.00000000  0.00000000       0.014
   0.04319915  0.00000000  0.00000000       0.028
   0.08639831  0.00000000  0.00000000       0.028
   0.12959746  0.00000000  0.00000000       0.014
   0.00000000  0.03681960  0.00000000       0.028
   0.04319915  0.03681960  0.00000000       0.028
   0.04319915 -0.03681960  0.00000000       0.028
   0.08639831  0.03681960  0.00000000       0.028
   0.08639831 -0.03681960  0.00000000       0.028
   0.12959746  0.03681960  0.00000000       0.028
   0.00000000  0.07363919  0.00000000       0.028
   0.04319915  0.07363919  0.00000000       0.028
   0.04319915 -0.07363919  0.00000000       0.028
   0.08639831  0.07363919  0.00000000       0.028
   0.08639831 -0.07363919  0.00000000       0.028
   0.12959746  0.07363919  0.00000000       0.028
   0.00000000  0.11045879  0.00000000       0.014
   0.04319915  0.11045879  0.00000000       0.028
   0.08639831  0.11045879  0.00000000       0.028
   0.12959746  0.11045879  0.00000000       0.014
   0.00000000  0.00000000  0.04723587       0.014
   0.04319915  0.00000000  0.04723587       0.028
   0.08639831  0.00000000  0.04723587       0.028
   0.12959746  0.00000000  0.04723587       0.014
   0.00000000  0.03681960  0.04723587       0.028
   0.04319915  0.03681960  0.04723587       0.028
   0.04319915 -0.03681960  0.04723587       0.028
   0.08639831  0.03681960  0.04723587       0.028
   0.08639831 -0.03681960  0.04723587       0.028
   0.12959746  0.03681960  0.04723587       0.028
   0.00000000  0.07363919  0.04723587       0.028
   0.04319915  0.07363919  0.04723587       0.028
   0.04319915 -0.07363919  0.04723587       0.028
   0.08639831  0.07363919  0.04723587       0.028
   0.08639831 -0.07363919  0.04723587       0.028
   0.12959746  0.07363919  0.04723587       0.028
   0.00000000  0.11045879  0.04723587       0.014
   0.04319915  0.11045879  0.04723587       0.028
   0.08639831  0.11045879  0.04723587       0.028
   0.12959746  0.11045879  0.04723587       0.014
 
 k-points in reciprocal lattice and weights: KPOINTS created by Atomic Simulation Env
   0.00000000  0.00000000  0.00000000       0.014
   0.16666667  0.00000000  0.00000000       0.028
   0.33333333  0.00000000  0.00000000       0.028
   0.50000000  0.00000000  0.00000000       0.014
   0.00000000  0.16666667  0.00000000       0.028
   0.16666667  0.16666667  0.00000000       0.028
   0.16666667 -0.16666667  0.00000000       0.028
   0.33333333  0.16666667  0.00000000       0.028
   0.33333333 -0.16666667  0.00000000       0.028
   0.50000000  0.16666667  0.00000000       0.028
   0.00000000  0.33333333  0.00000000       0.028
   0.16666667  0.33333333  0.00000000       0.028
   0.16666667 -0.33333333  0.00000000       0.028
   0.33333333  0.33333333  0.00000000       0.028
   0.33333333 -0.33333333  0.00000000       0.028
   0.50000000  0.33333333  0.00000000       0.028
   0.00000000  0.50000000  0.00000000       0.014
   0.16666667  0.50000000  0.00000000       0.028
   0.33333333  0.50000000  0.00000000       0.028
   0.50000000  0.50000000  0.00000000       0.014
   0.00000000  0.00000000  0.50000000       0.014
   0.16666667  0.00000000  0.50000000       0.028
   0.33333333  0.00000000  0.50000000       0.028
   0.50000000  0.00000000  0.50000000       0.014
   0.00000000  0.16666667  0.50000000       0.028
   0.16666667  0.16666667  0.50000000       0.028
   0.16666667 -0.16666667  0.50000000       0.028
   0.33333333  0.16666667  0.50000000       0.028
   0.33333333 -0.16666667  0.50000000       0.028
   0.50000000  0.16666667  0.50000000       0.028
   0.00000000  0.33333333  0.50000000       0.028
   0.16666667  0.33333333  0.50000000       0.028
   0.16666667 -0.33333333  0.50000000       0.028
   0.33333333  0.33333333  0.50000000       0.028
   0.33333333 -0.33333333  0.50000000       0.028
   0.50000000  0.33333333  0.50000000       0.028
   0.00000000  0.50000000  0.50000000       0.014
   0.16666667  0.50000000  0.50000000       0.028
   0.33333333  0.50000000  0.50000000       0.028
   0.50000000  0.50000000  0.50000000       0.014
 
 position of ions in fractional coordinates (direct lattice) 
   0.61231855  0.26412366  0.11629323
   0.11231860  0.76412368  0.38370666
   0.74999953  0.88080355  0.88370670
   0.24999891  0.38080359  0.61629330
   0.61231862  0.13986875  0.35452175
   0.11231850  0.63986885  0.14547826
   0.74999912  0.00505836  0.64547820
   0.24999942  0.50505845  0.85452174
 
 position of ions in cartesian coordinates  (Angst):
   2.36238630  1.19557558  1.23098441
   0.43333640  3.45886324  4.06160274
   2.89357331  3.98702340  9.35419135
   0.96452085  1.72373604  6.52357335
   2.36238658  0.63312638  3.75267533
   0.43333603  2.89641438  1.53991301
   2.89357173  0.02289706  6.83250071
   0.96452282  2.28618498  9.04526339
 


--------------------------------------------------------------------------------------------------------


 k-point   1 :   0.0000 0.0000 0.0000  plane waves:    2825
 k-point   2 :   0.1667 0.0000 0.0000  plane waves:    2856
 k-point   3 :   0.3333 0.0000 0.0000  plane waves:    2864
 k-point   4 :   0.5000 0.0000 0.0000  plane waves:    2880
 k-point   5 :   0.0000 0.1667 0.0000  plane waves:    2850
 k-point   6 :   0.1667 0.1667 0.0000  plane waves:    2853
 k-point   7 :   0.1667-0.1667 0.0000  plane waves:    2853
 k-point   8 :   0.3333 0.1667 0.0000  plane waves:    2873
 k-point   9 :   0.3333-0.1667 0.0000  plane waves:    2873
 k-point  10 :   0.5000 0.1667 0.0000  plane waves:    2866
 k-point  11 :   0.0000 0.3333 0.0000  plane waves:    2864
 k-point  12 :   0.1667 0.3333 0.0000  plane waves:    2871
 k-point  13 :   0.1667-0.3333 0.0000  plane waves:    2871
 k-point  14 :   0.3333 0.3333 0.0000  plane waves:    2883
 k-point  15 :   0.3333-0.3333 0.0000  plane waves:    2883
 k-point  16 :   0.5000 0.3333 0.0000  plane waves:    2880
 k-point  17 :   0.0000 0.5000 0.0000  plane waves:    2874
 k-point  18 :   0.1667 0.5000 0.0000  plane waves:    2880
 k-point  19 :   0.3333 0.5000 0.0000  plane waves:    2888
 k-point  20 :   0.5000 0.5000 0.0000  plane waves:    2896
 k-point  21 :   0.0000 0.0000 0.5000  plane waves:    2828
 k-point  22 :   0.1667 0.0000 0.5000  plane waves:    2838
 k-point  23 :   0.3333 0.0000 0.5000  plane waves:    2868
 k-point  24 :   0.5000 0.0000 0.5000  plane waves:    2852
 k-point  25 :   0.0000 0.1667 0.5000  plane waves:    2846
 k-point  26 :   0.1667 0.1667 0.5000  plane waves:    2868
 k-point  27 :   0.1667-0.1667 0.5000  plane waves:    2868
 k-point  28 :   0.3333 0.1667 0.5000  plane waves:    2866
 k-point  29 :   0.3333-0.1667 0.5000  plane waves:    2866
 k-point  30 :   0.5000 0.1667 0.5000  plane waves:    2884
 k-point  31 :   0.0000 0.3333 0.5000  plane waves:    2852
 k-point  32 :   0.1667 0.3333 0.5000  plane waves:    2862
 k-point  33 :   0.1667-0.3333 0.5000  plane waves:    2862
 k-point  34 :   0.3333 0.3333 0.5000  plane waves:    2874
 k-point  35 :   0.3333-0.3333 0.5000  plane waves:    2874
 k-point  36 :   0.5000 0.3333 0.5000  plane waves:    2892
 k-point  37 :   0.0000 0.5000 0.5000  plane waves:    2872
 k-point  38 :   0.1667 0.5000 0.5000  plane waves:    2856
 k-point  39 :   0.3333 0.5000 0.5000  plane waves:    2876
 k-point  40 :   0.5000 0.5000 0.5000  plane waves:    2872

 maximum and minimum number of plane-waves per node :       592      553

 maximum number of plane-waves:      2896
 maximum index in each direction: 
   IXMAX=    5   IYMAX=    7   IZMAX=   16
   IXMIN=   -6   IYMIN=   -7   IZMIN=  -16


 parallel 3D FFT for wavefunctions:
    minimum data exchange during FFTs selected (reduces bandwidth)
 parallel 3D FFT for charge:
    minimum data exchange during FFTs selected (reduces bandwidth)


 total amount of memory used by VASP MPI-rank0    36587. kBytes
=======================================================================

   base      :      30000. kBytes
   nonl-proj :       5001. kBytes
   fftplans  :        306. kBytes
   grid      :        466. kBytes
   one-center:         16. kBytes
   wavefun   :        798. kBytes
 
     INWAV:  cpu time      0.0000: real time      0.0001
 Broyden mixing: mesh for mixing (old mesh)
   NGX = 11   NGY = 15   NGZ = 33
  (NGX  = 36   NGY  = 48   NGZ  =100)
  gives a total of   5445 points

 initial charge density was supplied:
 charge density of overlapping atoms calculated
 number of electron      40.0000000 magnetization 
 keeping initial charge density in first step


--------------------------------------------------------------------------------------------------------


 Maximum index for augmentation-charges           368 (set IRDMAX)


--------------------------------------------------------------------------------------------------------


 First call to EWALD:  gamma=   0.311
 Maximum number of real-space cells 4x 3x 2
 Maximum number of reciprocal cells 2x 2x 5

    FEWALD:  cpu time      0.0012: real time      0.0012


--------------------------------------- Ionic step        1  -------------------------------------------




--------------------------------------- Iteration      1(   1)  ---------------------------------------


    POTLOK:  cpu time      0.0081: real time      0.0082
    SETDIJ:  cpu time      0.2219: real time      0.2226
     EDDAV:  cpu time      0.3082: real time      0.3099
       DOS:  cpu time      0.0011: real time      0.0011
    --------------------------------------------
      LOOP:  cpu time      0.5393: real time      0.5418

 eigenvalue-minimisations  :  2560
 total energy-change (2. order) : 0.1314039E+03  (-0.1299986E+04)
 number of electron      40.0000000 magnetization 
 augmentation part       40.0000000 magnetization 

 Free energy of the ion-electron system (eV)
  ---------------------------------------------------
  alpha Z        PSCENC =        91.66130333
  Ewald energy   TEWEN  =     -1446.18503413
  -Hartree energ DENC   =      -118.58299914
  -exchange      EXHF   =         0.00000000
  -V(xc)+E(xc)   XCENC  =       -32.78975950
  PAW double counting   =      1193.78262552    -1080.73714043
  entropy T*S    EENTRO =        -0.00203498
  eigenvalues    EBANDS =        75.77229826
  atomic energy  EATOM  =      1448.48460880
  Solvation  Ediel_sol  =         0.00000000
  ---------------------------------------------------
  free energy    TOTEN  =       131.40386772 eV

  energy without entropy =      131.40590269  energy(sigma->0) =      131.40488520


--------------------------------------------------------------------------------------------------------




--------------------------------------- Iteration      1(   2)  ---------------------------------------


     EDDAV:  cpu time      0.4506: real time      0.4536
       DOS:  cpu time      0.0007: real time      0.0007
    --------------------------------------------
      LOOP:  cpu time      0.4514: real time      0.4544

 eigenvalue-minimisations  :  3808
 total energy-change (2. order) :-0.1565686E+03  (-0.1520884E+03)
 number of electron      40.0000000 magnetization 
 augmentation part       40.0000000 magnetization 

 Free energy of the ion-electron system (eV)
  ---------------------------------------------------
  alpha Z        PSCENC =        91.66130333
  Ewald energy   TEWEN  =     -1446.18503413
  -Hartree energ DENC   =      -118.58299914
  -exchange      EXHF   =         0.00000000
  -V(xc)+E(xc)   XCENC  =       -32.78975950
  PAW double counting   =      1193.78262552    -1080.73714043
  entropy T*S    EENTRO =        -0.00000001
  eigenvalues    EBANDS =       -80.79832685
  atomic energy  EATOM  =      1448.48460880
  Solvation  Ediel_sol  =         0.00000000
  ---------------------------------------------------
  free energy    TOTEN  =       -25.16472242 eV

  energy without entropy =      -25.16472242  energy(sigma->0) =      -25.16472242


--------------------------------------------------------------------------------------------------------




--------------------------------------- Iteration      1(   3)  ---------------------------------------


     EDDAV:  cpu time      0.3704: real time      0.3729
       DOS:  cpu time      0.0006: real time      0.0006
    --------------------------------------------
      LOOP:  cpu time      0.3710: real time      0.3735

 eigenvalue-minimisations  :  3040
 total energy-change (2. order) :-0.8330337E+01  (-0.8316543E+01)
 number of electron      40.0000000 magnetization 
 augmentation part       40.0000000 magnetization 

 Free energy of the ion-electron system (eV)
  ---------------------------------------------------
  alpha Z        PSCENC =        91.66130333
  Ewald energy   TEWEN  =     -1446.18503413
  -Hartree energ DENC   =      -118.58299914
  -exchange      EXHF   =         0.00000000
  -V(xc)+E(xc)   XCENC  =       -32.78975950
  PAW double counting   =      1193.78262552    -1080.73714043
  entropy T*S    EENTRO =        -0.00000000
  eigenvalues    EBANDS =       -89.12866416
  atomic energy  EATOM  =      1448.48460880
  Solvation  Ediel_sol  =         0.00000000
  ---------------------------------------------------
  free energy    TOTEN  =       -33.49505973 eV

  energy without entropy =      -33.49505973  energy(sigma->0) =      -33.49505973


--------------------------------------------------------------------------------------------------------




--------------------------------------- Iteration      1(   4)  ---------------------------------------


     EDDAV:  cpu time      0.4493: real time      0.4515
       DOS:  cpu time      0.0006: real time      0.0006
    --------------------------------------------
      LOOP:  cpu time      0.4499: real time      0.4521

 eigenvalue-minimisations  :  3408
 total energy-change (2. order) :-0.5249916E-01  (-0.5249301E-01)
 number of electron      40.0000000 magnetization 
 augmentation part       40.0000000 magnetization 

 Free energy of the ion-electron system (eV)
  ---------------------------------------------------
  alpha Z        PSCENC =        91.66130333
  Ewald energy   TEWEN  =     -1446.18503413
  -Hartree energ DENC   =      -118.58299914
  -exchange      EXHF   =         0.00000000
  -V(xc)+E(xc)   XCENC  =       -32.78975950
  PAW double counting   =      1193.78262552    -1080.73714043
  entropy T*S    EENTRO =        -0.00000000
  eigenvalues    EBANDS =       -89.18116332
  atomic energy  EATOM  =      1448.48460880
  Solvation  Ediel_sol  =         0.00000000
  ---------------------------------------------------
  free energy    TOTEN  =       -33.54755889 eV

  energy without entropy =      -33.54755889  energy(sigma->0) =      -33.54755889


--------------------------------------------------------------------------------------------------------




--------------------------------------- Iteration      1(   5)  ---------------------------------------


     EDDAV:  cpu time      0.3719: real time      0.3763
       DOS:  cpu time      0.0006: real time      0.0006
    CHARGE:  cpu time      0.0053: real time      0.0054
    MIXING:  cpu time      0.0004: real time      0.0004
    --------------------------------------------
      LOOP:  cpu time      0.3782: real time      0.3826

 eigenvalue-minimisations  :  2992
 total energy-change (2. order) :-0.3027333E-03  (-0.3026789E-03)
 number of electron      40.0000035 magnetization 
 augmentation part       -7.4443630 magnetization 

 Broyden mixing:
  rms(total) = 0.68714E+00    rms(broyden)= 0.68713E+00
  rms(prec ) = 0.76861E+00
  weight for this iteration     100.00

 Free energy of the ion-electron system (eV)
  ---------------------------------------------------
  alpha Z        PSCENC =        91.66130333
  Ewald energy   TEWEN  =     -1446.18503413
  -Hartree energ DENC   =      -118.58299914
  -exchange      EXHF   =         0.00000000
  -V(xc)+E(xc)   XCENC  =       -32.78975950
  PAW double counting   =      1193.78262552    -1080.73714043
  entropy T*S    EENTRO =        -0.00000000
  eigenvalues    EBANDS =       -89.18146606
  atomic energy  EATOM  =      1448.48460880
  Solvation  Ediel_sol  =         0.00000000
  ---------------------------------------------------
  free energy    TOTEN  =       -33.54786162 eV

  energy without entropy =      -33.54786162  energy(sigma->0) =      -33.54786162


--------------------------------------------------------------------------------------------------------




--------------------------------------- Iteration      1(   6)  ---------------------------------------


    POTLOK:  cpu time      0.0075: real time      0.0076
    SETDIJ:  cpu time      0.2212: real time      0.2220
     EDDAV:  cpu time      0.3601: real time      0.3620
       DOS:  cpu time      0.0008: real time      0.0008
    CHARGE:  cpu time      0.0051: real time      0.0052
    MIXING:  cpu time      0.0005: real time      0.0005
    --------------------------------------------
      LOOP:  cpu time      0.5953: real time      0.5981

 eigenvalue-minimisations  :  3120
 total energy-change (2. order) : 0.3519845E+00  (-0.6920221E-01)
 number of electron      40.0000035 magnetization 
 augmentation part       -7.3908086 magnetization 

 Broyden mixing:
  rms(total) = 0.43105E+00    rms(broyden)= 0.43105E+00
  rms(prec ) = 0.45372E+00
  weight for this iteration     100.00

 eigenvalues of (default mixing * dielectric matrix)
  average eigenvalue GAMMA=   2.2929
  2.2929

 Free energy of the ion-electron system (eV)
  ---------------------------------------------------
  alpha Z        PSCENC =        91.66130333
  Ewald energy   TEWEN  =     -1446.18503413
  -Hartree energ DENC   =      -124.42719621
  -exchange      EXHF   =         0.00000000
  -V(xc)+E(xc)   XCENC  =       -32.20577943
  PAW double counting   =      1475.69651932    -1362.98304069
  entropy T*S    EENTRO =        -0.00000048
  eigenvalues    EBANDS =       -83.23725760
  atomic energy  EATOM  =      1448.48460880
  Solvation  Ediel_sol  =         0.00000000
  ---------------------------------------------------
  free energy    TOTEN  =       -33.19587710 eV

  energy without entropy =      -33.19587662  energy(sigma->0) =      -33.19587686


--------------------------------------------------------------------------------------------------------




--------------------------------------- Iteration      1(   7)  ---------------------------------------


    POTLOK:  cpu time      0.0073: real time      0.0074
    SETDIJ:  cpu time      0.2212: real time      0.2217
     EDDAV:  cpu time      0.3673: real time      0.3692
       DOS:  cpu time      0.0009: real time      0.0009
    CHARGE:  cpu time      0.0051: real time      0.0051
    MIXING:  cpu time      0.0004: real time      0.0004
    --------------------------------------------
      LOOP:  cpu time      0.6022: real time      0.6047

 eigenvalue-minimisations  :  2960
 total energy-change (2. order) : 0.1800807E-01  (-0.2242311E-01)
 number of electron      40.0000035 magnetization 
 augmentation part       -7.3724355 magnetization 

 Broyden mixing:
  rms(total) = 0.12368E+00    rms(broyden)= 0.12368E+00
  rms(prec ) = 0.13241E+00
  weight for this iteration     100.00

 eigenvalues of (default mixing * dielectric matrix)
  average eigenvalue GAMMA=   1.8160
  1.2007  2.4313

 Free energy of the ion-electron system (eV)
  ---------------------------------------------------
  alpha Z        PSCENC =        91.66130333
  Ewald energy   TEWEN  =     -1446.18503413
  -Hartree energ DENC   =      -127.45146134
  -exchange      EXHF   =         0.00000000
  -V(xc)+E(xc)   XCENC  =       -31.71339135
  PAW double counting   =      1846.20401426    -1733.76412863
  entropy T*S    EENTRO =        -0.00000607
  eigenvalues    EBANDS =       -80.41377391
  atomic energy  EATOM  =      1448.48460880
  Solvation  Ediel_sol  =         0.00000000
  ---------------------------------------------------
  free energy    TOTEN  =       -33.17786904 eV

  energy without entropy =      -33.17786297  energy(sigma->0) =      -33.17786600


--------------------------------------------------------------------------------------------------------




--------------------------------------- Iteration      1(   8)  ---------------------------------------


    POTLOK:  cpu time      0.0073: real time      0.0074
    SETDIJ:  cpu time      0.2189: real time      0.2194
     EDDAV:  cpu time      0.3641: real time      0.3659
       DOS:  cpu time      0.0009: real time      0.0009
    CHARGE:  cpu time      0.0052: real time      0.0052
    MIXING:  cpu time      0.0005: real time      0.0005
    --------------------------------------------
      LOOP:  cpu time      0.5968: real time      0.5992

 eigenvalue-minimisations  :  3136
 total energy-change (2. order) : 0.1632447E-02  (-0.2133463E-02)
 number of electron      40.0000035 magnetization 
 augmentation part       -7.3807589 magnetization 

 Broyden mixing:
  rms(total) = 0.17050E-01    rms(broyden)= 0.17050E-01
  rms(prec ) = 0.21139E-01
  weight for this iteration     100.00

 eigenvalues of (default mixing * dielectric matrix)
  average eigenvalue GAMMA=   1.7099
  2.4970  1.3163  1.3163

 Free energy of the ion-electron system (eV)
  ---------------------------------------------------
  alpha Z        PSCENC =        91.66130333
  Ewald energy   TEWEN  =     -1446.18503413
  -Hartree energ DENC   =      -127.52737764
  -exchange      EXHF   =         0.00000000
  -V(xc)+E(xc)   XCENC  =       -31.59150544
  PAW double counting   =      1983.18586452    -1870.80455807
  entropy T*S    EENTRO =        -0.00000245
  eigenvalues    EBANDS =       -80.39953549
  atomic energy  EATOM  =      1448.48460880
  Solvation  Ediel_sol  =         0.00000000
  ---------------------------------------------------
  free energy    TOTEN  =       -33.17623659 eV

  energy without entropy =      -33.17623414  energy(sigma->0) =      -33.17623537


--------------------------------------------------------------------------------------------------------




--------------------------------------- Iteration      1(   9)  ---------------------------------------


    POTLOK:  cpu time      0.0073: real time      0.0074
    SETDIJ:  cpu time      0.2225: real time      0.2230
     EDDAV:  cpu time      0.3676: real time      0.3698
       DOS:  cpu time      0.0009: real time      0.0009
    CHARGE:  cpu time      0.0052: real time      0.0052
    MIXING:  cpu time      0.0005: real time      0.0005
    --------------------------------------------
      LOOP:  cpu time      0.6039: real time      0.6067

 eigenvalue-minimisations  :  2976
 total energy-change (2. order) :-0.2346112E-03  (-0.3299110E-03)
 number of electron      40.0000035 magnetization 
 augmentation part       -7.3793927 magnetization 

 Broyden mixing:
  rms(total) = 0.59725E-02    rms(broyden)= 0.59725E-02
  rms(prec ) = 0.68826E-02
  weight for this iteration     100.00

 eigenvalues of (default mixing * dielectric matrix)
  average eigenvalue GAMMA=   1.7014
  2.2368  2.2368  1.1660  1.1660

 Free energy of the ion-electron system (eV)
  ---------------------------------------------------
  alpha Z        PSCENC =        91.66130333
  Ewald energy   TEWEN  =     -1446.18503413
  -Hartree energ DENC   =      -127.83108431
  -exchange      EXHF   =         0.00000000
  -V(xc)+E(xc)   XCENC  =       -31.55963250
  PAW double counting   =      1993.53563481    -1881.16046260
  entropy T*S    EENTRO =        -0.00000306
  eigenvalues    EBANDS =       -80.12180153
  atomic energy  EATOM  =      1448.48460880
  Solvation  Ediel_sol  =         0.00000000
  ---------------------------------------------------
  free energy    TOTEN  =       -33.17647120 eV

  energy without entropy =      -33.17646814  energy(sigma->0) =      -33.17646967


--------------------------------------------------------------------------------------------------------




--------------------------------------- Iteration      1(  10)  ---------------------------------------


    POTLOK:  cpu time      0.0074: real time      0.0075
    SETDIJ:  cpu time      0.2216: real time      0.2221
     EDDAV:  cpu time      0.3917: real time      0.3937
       DOS:  cpu time      0.0009: real time      0.0009
    CHARGE:  cpu time      0.0051: real time      0.0052
    MIXING:  cpu time      0.0007: real time      0.0007
    --------------------------------------------
      LOOP:  cpu time      0.6275: real time      0.6301

 eigenvalue-minimisations  :  3264
 total energy-change (2. order) :-0.1002977E-03  (-0.2558709E-04)
 number of electron      40.0000035 magnetization 
 augmentation part       -7.3794162 magnetization 

 Broyden mixing:
  rms(total) = 0.22507E-02    rms(broyden)= 0.22507E-02
  rms(prec ) = 0.28569E-02
  weight for this iteration     100.00

 eigenvalues of (default mixing * dielectric matrix)
  average eigenvalue GAMMA=   1.7618
  2.6497  2.5139  1.0739  1.2858  1.2858

 Free energy of the ion-electron system (eV)
  ---------------------------------------------------
  alpha Z        PSCENC =        91.66130333
  Ewald energy   TEWEN  =     -1446.18503413
  -Hartree energ DENC   =      -127.86481681
  -exchange      EXHF   =         0.00000000
  -V(xc)+E(xc)   XCENC  =       -31.55575918
  PAW double counting   =      1988.62210499    -1876.24259568
  entropy T*S    EENTRO =        -0.00000286
  eigenvalues    EBANDS =       -80.09637994
  atomic energy  EATOM  =      1448.48460880
  Solvation  Ediel_sol  =         0.00000000
  ---------------------------------------------------
  free energy    TOTEN  =       -33.17657150 eV

  energy without entropy =      -33.17656864  energy(sigma->0) =      -33.17657007


--------------------------------------------------------------------------------------------------------




--------------------------------------- Iteration      1(  11)  ---------------------------------------


    POTLOK:  cpu time      0.0075: real time      0.0077
    SETDIJ:  cpu time      0.2177: real time      0.2183
     EDDAV:  cpu time      0.3380: real time      0.3396
       DOS:  cpu time      0.0009: real time      0.0009
    CHARGE:  cpu time      0.0051: real time      0.0051
    MIXING:  cpu time      0.0005: real time      0.0005
    --------------------------------------------
      LOOP:  cpu time      0.5696: real time      0.5720

 eigenvalue-minimisations  :  2800
 total energy-change (2. order) :-0.3032980E-04  (-0.4227493E-05)
 number of electron      40.0000035 magnetization 
 augmentation part       -7.3796383 magnetization 

 Broyden mixing:
  rms(total) = 0.10867E-02    rms(broyden)= 0.10867E-02
  rms(prec ) = 0.12658E-02
  weight for this iteration     100.00

 eigenvalues of (default mixing * dielectric matrix)
  average eigenvalue GAMMA=   1.7339
  2.5508  2.5508  2.0067  0.9419  1.1766  1.1766

 Free energy of the ion-electron system (eV)
  ---------------------------------------------------
  alpha Z        PSCENC =        91.66130333
  Ewald energy   TEWEN  =     -1446.18503413
  -Hartree energ DENC   =      -127.88942424
  -exchange      EXHF   =         0.00000000
  -V(xc)+E(xc)   XCENC  =       -31.55014269
  PAW double counting   =      1989.50520917    -1877.12548828
  entropy T*S    EENTRO =        -0.00000269
  eigenvalues    EBANDS =       -80.07763109
  atomic energy  EATOM  =      1448.48460880
  Solvation  Ediel_sol  =         0.00000000
  ---------------------------------------------------
  free energy    TOTEN  =       -33.17660183 eV

  energy without entropy =      -33.17659913  energy(sigma->0) =      -33.17660048


--------------------------------------------------------------------------------------------------------




--------------------------------------- Iteration      1(  12)  ---------------------------------------


    POTLOK:  cpu time      0.0075: real time      0.0076
    SETDIJ:  cpu time      0.2211: real time      0.2215
     EDDAV:  cpu time      0.4121: real time      0.4142
       DOS:  cpu time      0.0008: real time      0.0008
    --------------------------------------------
      LOOP:  cpu time      0.6415: real time      0.6441

 eigenvalue-minimisations  :  3472
 total energy-change (2. order) :-0.5102880E-06  (-0.6097861E-06)
 number of electron      40.0000035 magnetization 
 augmentation part       -7.3796383 magnetization 

 Free energy of the ion-electron system (eV)
  ---------------------------------------------------
  alpha Z        PSCENC =        91.66130333
  Ewald energy   TEWEN  =     -1446.18503413
  -Hartree energ DENC   =      -127.90577473
  -exchange      EXHF   =         0.00000000
  -V(xc)+E(xc)   XCENC  =       -31.54898933
  PAW double counting   =      1988.80770546    -1876.42785139
  entropy T*S    EENTRO =        -0.00000270
  eigenvalues    EBANDS =       -80.06256765
  atomic energy  EATOM  =      1448.48460880
  Solvation  Ediel_sol  =         0.00000000
  ---------------------------------------------------
  free energy    TOTEN  =       -33.17660234 eV

  energy without entropy =      -33.17659963  energy(sigma->0) =      -33.17660099


--------------------------------------------------------------------------------------------------------




 average (electrostatic) potential at core
  the test charge radii are     1.1631  1.0808
  (the norm of the test charge is              1.0000)
       1 -33.0035       2 -33.0035       3 -33.0035       4 -33.0035       5 -54.5764
       6 -54.5764       7 -54.5764       8 -54.5764
 
 
 
 E-fermi :   4.2004     XC(G=0):  -9.4975     alpha+bet : -9.1315

 Fermi energy:         4.2003649027

 k-point     1 :       0.0000    0.0000    0.0000
  band No.  band energies     occupation 
      1     -10.7852      2.00000
      2     -10.2047      2.00000
      3      -9.5562      2.00000
      4      -8.6686      2.00000
      5      -4.4867      2.00000
      6      -3.7796      2.00000
      7      -2.3736      2.00000
      8      -1.8883      2.00000
      9      -1.8323      2.00000
     10      -0.2196      2.00000
     11       0.3525      2.00000
     12       0.4767      2.00000
     13       0.6673      2.00000
     14       0.8026      2.00000
     15       1.6115      2.00000
     16       1.6895      2.00000
     17       2.2796      2.00000
     18       2.5017      2.00000
     19       3.1478      2.00000
     20       3.9882      2.00000
     21       4.5658      0.00000
     22       5.7170      0.00000
     23       5.9305      0.00000
     24       6.4548      0.00000
     25       7.1458      0.00000
     26       7.3291      0.00000
     27       7.4067      0.00000
     28       7.4070      0.00000
     29       8.6295      0.00000
     30       8.6406      0.00000
     31       8.8409      0.00000
     32       8.9363      0.00000

 k-point     2 :       0.1667    0.0000    0.0000
  band No.  band energies     occupation 
      1     -10.5947      2.00000
      2     -10.0261      2.00000
      3      -9.4385      2.00000
      4      -8.6178      2.00000
      5      -4.7729      2.00000
      6      -3.9187      2.00000
      7      -2.9679      2.00000
      8      -2.1340      2.00000
      9      -1.6796      2.00000
     10      -0.0002      2.00000
     11       0.0725      2.00000
     12       0.1717      2.00000
     13       0.7163      2.00000
     14       0.9905      2.00000
     15       1.4662      2.00000
     16       1.8250      2.00000
     17       1.9277      2.00000
     18       2.3464      2.00000
     19       3.4030      2.00000
     20       3.8834      2.00000
     21       4.6780      0.00000
     22       5.9357      0.00000
     23       5.9843      0.00000
     24       6.4695      0.00000
     25       6.6006      0.00000
     26       7.1490      0.00000
     27       7.4489      0.00000
     28       7.6293      0.00000
     29       7.6800      0.00000
     30       8.3153      0.00000
     31       8.3363      0.00000
     32       9.3460      0.00000

 k-point     3 :       0.3333    0.0000    0.0000
  band No.  band energies     occupation 
      1     -10.0776      2.00000
      2      -9.5458      2.00000
      3      -9.2518      2.00000
      4      -8.6254      2.00000
      5      -5.3162      2.00000
      6      -4.2382      2.00000
      7      -4.1677      2.00000
      8      -3.0066      2.00000
      9      -1.1088      2.00000
     10      -0.0654      2.00000
     11       0.1798      2.00000
     12       0.6306      2.00000
     13       0.8771      2.00000
     14       1.3254      2.00000
     15       1.6136      2.00000
     16       1.8212      2.00000
     17       1.8878      2.00000
     18       1.9672      2.00000
     19       3.1576      2.00000
     20       3.6057      2.00000
     21       4.4716      0.00000
     22       4.9333      0.00000
     23       5.3192      0.00000
     24       5.7927      0.00000
     25       5.8195      0.00000
     26       5.8739      0.00000
     27       6.4198      0.00000
     28       7.0313      0.00000
     29       7.6310      0.00000
     30       7.6996      0.00000
     31       8.5826      0.00000
     32       9.8856      0.00000

 k-point     4 :       0.5000    0.0000    0.0000
  band No.  band energies     occupation 
      1      -9.4677      2.00000
      2      -9.4677      2.00000
      3      -8.9684      2.00000
      4      -8.9684      2.00000
      5      -5.2300      2.00000
      6      -5.2300      2.00000
      7      -3.9068      2.00000
      8      -3.9068      2.00000
      9      -0.3370      2.00000
     10      -0.3370      2.00000
     11       0.6972      2.00000
     12       0.6972      2.00000
     13       1.3979      2.00000
     14       1.3979      2.00000
     15       1.4807      2.00000
     16       1.4807      2.00000
     17       1.9657      2.00000
     18       1.9657      2.00000
     19       3.0529      2.00000
     20       3.0529      2.00000
     21       4.3265      0.00036
     22       4.3265      0.00036
     23       5.3154      0.00000
     24       5.3154      0.00000
     25       5.6097      0.00000
     26       5.6097      0.00000
     27       6.2415      0.00000
     28       6.2415      0.00000
     29       6.8280      0.00000
     30       6.8280      0.00000
     31       9.3163      0.00000
     32       9.3163      0.00000

 k-point     5 :       0.0000    0.1667    0.0000
  band No.  band energies     occupation 
      1     -10.6722      2.00000
      2     -10.0926      2.00000
      3      -9.5682      2.00000
      4      -8.7361      2.00000
      5      -4.8108      2.00000
      6      -3.8439      2.00000
      7      -3.1185      2.00000
      8      -2.3072      2.00000
      9      -1.5039      2.00000
     10       0.1649      2.00000
     11       0.5463      2.00000
     12       0.7537      2.00000
     13       0.9240      2.00000
     14       1.0981      2.00000
     15       1.6475      2.00000
     16       2.1084      2.00000
     17       2.1949      2.00000
     18       2.2934      2.00000
     19       3.4139      2.00000
     20       4.0317      2.00000
     21       4.7621      0.00000
     22       5.2994      0.00000
     23       5.7377      0.00000
     24       6.5750      0.00000
     25       6.6258      0.00000
     26       6.7793      0.00000
     27       7.2227      0.00000
     28       7.6881      0.00000
     29       8.0110      0.00000
     30       8.0826      0.00000
     31       8.6052      0.00000
     32       9.5590      0.00000

 k-point     6 :       0.1667    0.1667    0.0000
  band No.  band energies     occupation 
      1     -10.4889      2.00000
      2      -9.9186      2.00000
      3      -9.4513      2.00000
      4      -8.6816      2.00000
      5      -4.8600      2.00000
      6      -4.0072      2.00000
      7      -3.1622      2.00000
      8      -2.7196      2.00000
      9      -1.4780      2.00000
     10      -0.4589      2.00000
     11      -0.2882      2.00000
     12       0.6633      2.00000
     13       1.0139      2.00000
     14       1.3636      2.00000
     15       1.6972      2.00000
     16       1.8150      2.00000
     17       2.2022      2.00000
     18       2.2283      2.00000
     19       3.5851      2.00000
     20       3.6072      2.00000
     21       4.9726      0.00000
     22       5.4912      0.00000
     23       5.8299      0.00000
     24       6.0589      0.00000
     25       6.5583      0.00000
     26       6.9437      0.00000
     27       7.5905      0.00000
     28       7.7540      0.00000
     29       7.9545      0.00000
     30       8.3197      0.00000
     31       8.4732      0.00000
     32       8.8672      0.00000

 k-point     7 :       0.1667   -0.1667    0.0000
  band No.  band energies     occupation 
      1     -10.4853      2.00000
      2      -9.9215      2.00000
      3      -9.4523      2.00000
      4      -8.6743      2.00000
      5      -4.9504      2.00000
      6      -3.9121      2.00000
      7      -3.4510      2.00000
      8      -2.3681      2.00000
      9      -1.3742      2.00000
     10      -0.4204      2.00000
     11      -0.1672      2.00000
     12       0.4081      2.00000
     13       0.9196      2.00000
     14       1.3536      2.00000
     15       1.4558      2.00000
     16       1.8671      2.00000
     17       2.2760      2.00000
     18       2.3202      2.00000
     19       3.2423      2.00000
     20       4.0741      1.99965
     21       4.7809      0.00000
     22       5.5454      0.00000
     23       5.8494      0.00000
     24       5.9034      0.00000
     25       6.9573      0.00000
     26       7.1110      0.00000
     27       7.4491      0.00000
     28       7.5880      0.00000
     29       7.7981      0.00000
     30       8.0692      0.00000
     31       8.4009      0.00000
     32       9.5858      0.00000

 k-point     8 :       0.3333    0.1667    0.0000
  band No.  band energies     occupation 
      1      -9.9950      2.00000
      2      -9.4578      2.00000
      3      -9.2533      2.00000
      4      -8.6612      2.00000
      5      -5.1660      2.00000
      6      -4.1886      2.00000
      7      -4.1466      2.00000
      8      -3.2617      2.00000
      9      -1.0078      2.00000
     10      -0.7362      2.00000
     11      -0.5479      2.00000
     12       0.2970      2.00000
     13       1.1436      2.00000
     14       1.1577      2.00000
     15       1.3181      2.00000
     16       1.6226      2.00000
     17       1.7646      2.00000
     18       2.1829      2.00000
     19       3.2456      2.00000
     20       3.3984      2.00000
     21       4.7932      0.00000
     22       5.2437      0.00000
     23       5.4894      0.00000
     24       5.7953      0.00000
     25       6.1710      0.00000
     26       6.6269      0.00000
     27       7.2365      0.00000
     28       7.5859      0.00000
     29       7.7994      0.00000
     30       7.8909      0.00000
     31       9.0238      0.00000
     32       9.2819      0.00000

 k-point     9 :       0.3333   -0.1667    0.0000
  band No.  band energies     occupation 
      1      -9.9861      2.00000
      2      -9.4663      2.00000
      3      -9.2622      2.00000
      4      -8.6415      2.00000
      5      -5.2529      2.00000
      6      -4.2991      2.00000
      7      -4.0968      2.00000
      8      -3.0615      2.00000
      9      -0.9271      2.00000
     10      -0.8514      2.00000
     11      -0.2505      2.00000
     12       0.1924      2.00000
     13       0.7870      2.00000
     14       1.0272      2.00000
     15       1.3777      2.00000
     16       1.6396      2.00000
     17       1.8717      2.00000
     18       2.2298      2.00000
     19       3.0304      2.00000
     20       3.6229      2.00000
     21       4.8258      0.00000
     22       5.2362      0.00000
     23       5.3699      0.00000
     24       5.9784      0.00000
     25       6.2537      0.00000
     26       6.5868      0.00000
     27       7.1282      0.00000
     28       7.4327      0.00000
     29       7.7118      0.00000
     30       7.9544      0.00000
     31       9.2145      0.00000
     32       9.3879      0.00000

 k-point    10 :       0.5000    0.1667    0.0000
  band No.  band energies     occupation 
      1      -9.4349      2.00000
      2      -9.4194      2.00000
      3      -8.9431      2.00000
      4      -8.9226      2.00000
      5      -5.1091      2.00000
      6      -5.1019      2.00000
      7      -3.9075      2.00000
      8      -3.8957      2.00000
      9      -0.4663      2.00000
     10      -0.3739      2.00000
     11      -0.1354      2.00000
     12       0.0044      2.00000
     13       0.6845      2.00000
     14       0.6898      2.00000
     15       1.0300      2.00000
     16       1.3049      2.00000
     17       1.8243      2.00000
     18       1.9240      2.00000
     19       3.2916      2.00000
     20       3.5308      2.00000
     21       4.7088      0.00000
     22       4.7319      0.00000
     23       5.6953      0.00000
     24       6.0340      0.00000
     25       6.3503      0.00000
     26       6.3806      0.00000
     27       6.4093      0.00000
     28       6.8773      0.00000
     29       7.5347      0.00000
     30       7.7686      0.00000
     31       8.7810      0.00000
     32       8.8407      0.00000

 k-point    11 :       0.0000    0.3333    0.0000
  band No.  band energies     occupation 
      1     -10.3655      2.00000
      2      -9.7824      2.00000
      3      -9.6769      2.00000
      4      -8.9688      2.00000
      5      -5.1673      2.00000
      6      -4.2313      2.00000
      7      -3.9005      2.00000
      8      -2.9593      2.00000
      9      -1.1309      2.00000
     10       0.3972      2.00000
     11       0.9439      2.00000
     12       1.1736      2.00000
     13       1.4149      2.00000
     14       1.6288      2.00000
     15       1.8890      2.00000
     16       2.1754      2.00000
     17       2.2855      2.00000
     18       2.9987      2.00000
     19       3.6147      2.00000
     20       3.7089      2.00000
     21       4.5830      0.00000
     22       5.2929      0.00000
     23       5.5766      0.00000
     24       5.5929      0.00000
     25       6.1295      0.00000
     26       6.4497      0.00000
     27       6.9002      0.00000
     28       7.0901      0.00000
     29       7.4405      0.00000
     30       7.7899      0.00000
     31       8.4770      0.00000
     32       9.7946      0.00000

 k-point    12 :       0.1667    0.3333    0.0000
  band No.  band energies     occupation 
      1     -10.2004      2.00000
      2      -9.6257      2.00000
      3      -9.5534      2.00000
      4      -8.8908      2.00000
      5      -5.0485      2.00000
      6      -4.0806      2.00000
      7      -3.9364      2.00000
      8      -3.2009      2.00000
      9      -0.9997      2.00000
     10      -0.5778      2.00000
     11      -0.1771      2.00000
     12       0.4613      2.00000
     13       0.9688      2.00000
     14       0.9691      2.00000
     15       1.9286      2.00000
     16       1.9664      2.00000
     17       2.2727      2.00000
     18       2.7773      2.00000
     19       3.6014      2.00000
     20       3.7151      2.00000
     21       5.0973      0.00000
     22       5.6931      0.00000
     23       5.7702      0.00000
     24       6.1670      0.00000
     25       6.2095      0.00000
     26       6.8363      0.00000
     27       7.3138      0.00000
     28       7.6012      0.00000
     29       7.9900      0.00000
     30       8.1857      0.00000
     31       8.5910      0.00000
     32       8.8563      0.00000

 k-point    13 :       0.1667   -0.3333    0.0000
  band No.  band energies     occupation 
      1     -10.1936      2.00000
      2      -9.6320      2.00000
      3      -9.5581      2.00000
      4      -8.8796      2.00000
      5      -5.0891      2.00000
      6      -4.2441      2.00000
      7      -3.9135      2.00000
      8      -2.9730      2.00000
      9      -0.9292      2.00000
     10      -0.3657      2.00000
     11      -0.1309      2.00000
     12       0.2171      2.00000
     13       0.5218      2.00000
     14       1.0865      2.00000
     15       1.8978      2.00000
     16       2.1986      2.00000
     17       2.6568      2.00000
     18       2.6657      2.00000
     19       3.1831      2.00000
     20       3.6415      2.00000
     21       5.2236      0.00000
     22       5.5689      0.00000
     23       5.9362      0.00000
     24       6.0070      0.00000
     25       6.5442      0.00000
     26       6.8223      0.00000
     27       7.2686      0.00000
     28       7.3803      0.00000
     29       7.7882      0.00000
     30       8.2677      0.00000
     31       8.6272      0.00000
     32       9.3527      0.00000

 k-point    14 :       0.3333    0.3333    0.0000
  band No.  band energies     occupation 
      1      -9.7726      2.00000
      2      -9.3095      2.00000
      3      -9.2319      2.00000
      4      -8.7718      2.00000
      5      -4.8782      2.00000
      6      -4.1231      2.00000
      7      -4.0866      2.00000
      8      -3.7876      2.00000
      9      -1.2411      2.00000
     10      -0.9749      2.00000
     11      -0.6651      2.00000
     12      -0.3888      2.00000
     13       0.1132      2.00000
     14       0.6131      2.00000
     15       0.9741      2.00000
     16       1.0718      2.00000
     17       1.3471      2.00000
     18       2.3590      2.00000
     19       3.1938      2.00000
     20       3.6344      2.00000
     21       5.0825      0.00000
     22       6.3433      0.00000
     23       6.6169      0.00000
     24       6.7474      0.00000
     25       6.9908      0.00000
     26       7.0774      0.00000
     27       7.4623      0.00000
     28       8.0735      0.00000
     29       8.4614      0.00000
     30       8.9274      0.00000
     31       9.0639      0.00000
     32      10.2272      0.00000

 k-point    15 :       0.3333   -0.3333    0.0000
  band No.  band energies     occupation 
      1      -9.7554      2.00000
      2      -9.3275      2.00000
      3      -9.2505      2.00000
      4      -8.7411      2.00000
      5      -4.9722      2.00000
      6      -4.4067      2.00000
      7      -4.0339      2.00000
      8      -3.3832      2.00000
      9      -1.2513      2.00000
     10      -0.7893      2.00000
     11      -0.7011      2.00000
     12      -0.4337      2.00000
     13       0.1024      2.00000
     14       0.4162      2.00000
     15       0.6024      2.00000
     16       1.2011      2.00000
     17       1.6907      2.00000
     18       2.2363      2.00000
     19       3.0542      2.00000
     20       3.9962      2.00000
     21       4.9253      0.00000
     22       6.3235      0.00000
     23       6.5334      0.00000
     24       6.5493      0.00000
     25       6.9188      0.00000
     26       7.3149      0.00000
     27       7.5815      0.00000
     28       7.8335      0.00000
     29       8.3219      0.00000
     30       9.0705      0.00000
     31       9.4823      0.00000
     32       9.8150      0.00000

 k-point    16 :       0.5000    0.3333    0.0000
  band No.  band energies     occupation 
      1      -9.3569      2.00000
      2      -9.3277      2.00000
      3      -8.8786      2.00000
      4      -8.8402      2.00000
      5      -4.7837      2.00000
      6      -4.7615      2.00000
      7      -3.9976      2.00000
      8      -3.9634      2.00000
      9      -1.0151      2.00000
     10      -0.9976      2.00000
     11      -0.5532      2.00000
     12      -0.3794      2.00000
     13      -0.2376      2.00000
     14      -0.1797      2.00000
     15       0.4694      2.00000
     16       0.6989      2.00000
     17       1.2169      2.00000
     18       1.5061      2.00000
     19       2.9997      2.00000
     20       3.9649      2.00000
     21       5.4873      0.00000
     22       5.8641      0.00000
     23       6.7074      0.00000
     24       6.9695      0.00000
     25       7.3341      0.00000
     26       7.5061      0.00000
     27       7.7601      0.00000
     28       7.9748      0.00000
     29       8.2743      0.00000
     30       8.6629      0.00000
     31       9.5625      0.00000
     32       9.9202      0.00000

 k-point    17 :       0.0000    0.5000    0.0000
  band No.  band energies     occupation 
      1      -9.9742      2.00000
      2      -9.9742      2.00000
      3      -9.3596      2.00000
      4      -9.3596      2.00000
      5      -4.9893      2.00000
      6      -4.9893      2.00000
      7      -3.6096      2.00000
      8      -3.6096      2.00000
      9      -0.4116      2.00000
     10      -0.4116      2.00000
     11       1.3720      2.00000
     12       1.3720      2.00000
     13       1.7359      2.00000
     14       1.7359      2.00000
     15       2.4568      2.00000
     16       2.4568      2.00000
     17       2.7025      2.00000
     18       2.7025      2.00000
     19       3.3036      2.00000
     20       3.3036      2.00000
     21       4.9315      0.00000
     22       4.9315      0.00000
     23       5.5954      0.00000
     24       5.5954      0.00000
     25       6.1417      0.00000
     26       6.1417      0.00000
     27       6.5913      0.00000
     28       6.5913      0.00000
     29       7.1356      0.00000
     30       7.1356      0.00000
     31       9.3248      0.00000
     32       9.3248      0.00000

 k-point    18 :       0.1667    0.5000    0.0000
  band No.  band energies     occupation 
      1      -9.8354      2.00000
      2      -9.8277      2.00000
      3      -9.2434      2.00000
      4      -9.2334      2.00000
      5      -4.8708      2.00000
      6      -4.8226      2.00000
      7      -3.6682      2.00000
      8      -3.5826      2.00000
      9      -0.3839      2.00000
     10      -0.3091      2.00000
     11      -0.0705      2.00000
     12       0.0663      2.00000
     13       0.3673      2.00000
     14       0.6270      2.00000
     15       1.9115      2.00000
     16       2.0628      2.00000
     17       2.6770      2.00000
     18       2.8806      2.00000
     19       3.5679      2.00000
     20       3.6699      2.00000
     21       5.3010      0.00000
     22       5.3110      0.00000
     23       6.0368      0.00000
     24       6.2771      0.00000
     25       6.8860      0.00000
     26       6.9204      0.00000
     27       7.0944      0.00000
     28       7.0953      0.00000
     29       8.0229      0.00000
     30       8.0370      0.00000
     31       8.5958      0.00000
     32       8.8028      0.00000

 k-point    19 :       0.3333    0.5000    0.0000
  band No.  band energies     occupation 
      1      -9.5100      2.00000
      2      -9.4882      2.00000
      3      -8.9842      2.00000
      4      -8.9557      2.00000
      5      -4.6101      2.00000
      6      -4.4949      2.00000
      7      -3.9956      2.00000
      8      -3.8272      2.00000
      9      -1.2134      2.00000
     10      -0.9737      2.00000
     11      -0.6883      2.00000
     12      -0.6596      2.00000
     13      -0.1101      2.00000
     14       0.2113      2.00000
     15       0.5256      2.00000
     16       0.5613      2.00000
     17       1.6515      2.00000
     18       1.9566      2.00000
     19       3.0653      2.00000
     20       3.9540      2.00000
     21       5.8219      0.00000
     22       6.0042      0.00000
     23       6.6666      0.00000
     24       7.3549      0.00000
     25       7.4493      0.00000
     26       7.7061      0.00000
     27       8.1162      0.00000
     28       8.1986      0.00000
     29       8.7089      0.00000
     30       9.3062      0.00000
     31       9.5034      0.00000
     32      10.0074      0.00000

 k-point    20 :       0.5000    0.5000    0.0000
  band No.  band energies     occupation 
      1      -9.3154      2.00000
      2      -9.2800      2.00000
      3      -8.8446      2.00000
      4      -8.7981      2.00000
      5      -4.4922      2.00000
      6      -4.3900      2.00000
      7      -4.2543      2.00000
      8      -4.1346      2.00000
      9      -1.2872      2.00000
     10      -1.1506      2.00000
     11      -0.9417      2.00000
     12      -0.7567      2.00000
     13      -0.3838      2.00000
     14      -0.1721      2.00000
     15       0.1944      2.00000
     16       0.3112      2.00000
     17       0.8674      2.00000
     18       1.4968      2.00000
[...]
     32       8.5603      0.00000

 k-point    32 :       0.1667    0.3333    0.5000
  band No.  band energies     occupation 
      1     -10.0290      2.00000
      2     -10.0290      2.00000
      3      -9.1084      2.00000
      4      -9.1084      2.00000
      5      -4.6426      2.00000
      6      -4.6426      2.00000
      7      -3.6005      2.00000
      8      -3.6005      2.00000
      9      -0.5476      2.00000
     10      -0.5476      2.00000
     11       0.3153      2.00000
     12       0.3153      2.00000
     13       0.7555      2.00000
     14       0.7555      2.00000
     15       2.0434      2.00000
     16       2.0434      2.00000
     17       2.2768      2.00000
     18       2.2768      2.00000
     19       3.3672      2.00000
     20       3.3672      2.00000
     21       5.4832      0.00000
     22       5.4832      0.00000
     23       6.0846      0.00000
     24       6.0846      0.00000
     25       6.9996      0.00000
     26       6.9996      0.00000
     27       7.5141      0.00000
     28       7.5141      0.00000
     29       8.0332      0.00000
     30       8.0332      0.00000
     31       8.4594      0.00000
     32       8.4594      0.00000

 k-point    33 :       0.1667   -0.3333    0.5000
  band No.  band energies     occupation 
      1     -10.0265      2.00000
      2     -10.0265      2.00000
      3      -9.1092      2.00000
      4      -9.1092      2.00000
      5      -4.7008      2.00000
      6      -4.7008      2.00000
      7      -3.5373      2.00000
      8      -3.5373      2.00000
      9      -0.6279      2.00000
     10      -0.6279      2.00000
     11       0.5191      2.00000
     12       0.5191      2.00000
     13       0.8866      2.00000
     14       0.8866      2.00000
     15       1.8237      2.00000
     16       1.8237      2.00000
     17       2.3812      2.00000
     18       2.3812      2.00000
     19       2.9801      2.00000
     20       2.9801      2.00000
     21       5.6599      0.00000
     22       5.6599      0.00000
     23       6.1781      0.00000
     24       6.1781      0.00000
     25       6.8574      0.00000
     26       6.8574      0.00000
     27       7.5518      0.00000
     28       7.5518      0.00000
     29       8.1750      0.00000
     30       8.1750      0.00000
     31       8.7300      0.00000
     32       8.7300      0.00000

 k-point    34 :       0.3333    0.3333    0.5000
  band No.  band energies     occupation 
      1      -9.6270      2.00000
      2      -9.6270      2.00000
      3      -8.9170      2.00000
      4      -8.9170      2.00000
      5      -4.5436      2.00000
      6      -4.5436      2.00000
      7      -3.9306      2.00000
      8      -3.9306      2.00000
      9      -1.1621      2.00000
     10      -1.1621      2.00000
     11      -0.5003      2.00000
     12      -0.5003      2.00000
     13       0.4771      2.00000
     14       0.4771      2.00000
     15       1.1383      2.00000
     16       1.1383      2.00000
     17       1.8439      2.00000
     18       1.8439      2.00000
     19       2.9971      2.00000
     20       2.9971      2.00000
     21       5.7839      0.00000
     22       5.7839      0.00000
     23       6.4767      0.00000
     24       6.4767      0.00000
     25       7.6455      0.00000
     26       7.6455      0.00000
     27       7.8007      0.00000
     28       7.8007      0.00000
     29       8.5138      0.00000
     30       8.5138      0.00000
     31       9.7749      0.00000
     32       9.7749      0.00000

 k-point    35 :       0.3333   -0.3333    0.5000
  band No.  band energies     occupation 
      1      -9.6229      2.00000
      2      -9.6229      2.00000
      3      -8.9190      2.00000
      4      -8.9190      2.00000
      5      -4.6633      2.00000
      6      -4.6633      2.00000
      7      -3.7852      2.00000
      8      -3.7852      2.00000
      9      -1.2848      2.00000
     10      -1.2848      2.00000
     11      -0.3547      2.00000
     12      -0.3547      2.00000
     13       0.5615      2.00000
     14       0.5615      2.00000
     15       1.1981      2.00000
     16       1.1981      2.00000
     17       1.7495      2.00000
     18       1.7495      2.00000
     19       2.7351      2.00000
     20       2.7351      2.00000
     21       5.9177      0.00000
     22       5.9177      0.00000
     23       6.5655      0.00000
     24       6.5655      0.00000
     25       7.4100      0.00000
     26       7.4100      0.00000
     27       8.2837      0.00000
     28       8.2837      0.00000
     29       8.4924      0.00000
     30       8.4924      0.00000
     31       9.4487      0.00000
     32       9.4487      0.00000

 k-point    36 :       0.5000    0.3333    0.5000
  band No.  band energies     occupation 
      1      -9.3369      2.00000
      2      -9.3369      2.00000
      3      -8.8685      2.00000
      4      -8.8685      2.00000
      5      -4.6625      2.00000
      6      -4.6625      2.00000
      7      -4.1113      2.00000
      8      -4.1113      2.00000
      9      -1.0839      2.00000
     10      -1.0839      2.00000
     11      -0.6074      2.00000
     12      -0.6074      2.00000
     13      -0.0258      2.00000
     14      -0.0258      2.00000
     15       0.6605      2.00000
     16       0.6605      2.00000
     17       1.8557      2.00000
     18       1.8557      2.00000
     19       2.6341      2.00000
     20       2.6341      2.00000
     21       5.8704      0.00000
     22       5.8704      0.00000
     23       6.8784      0.00000
     24       6.8784      0.00000
     25       7.4048      0.00000
     26       7.4048      0.00000
     27       8.3394      0.00000
     28       8.3394      0.00000
     29       8.5967      0.00000
     30       8.5967      0.00000
     31       9.5343      0.00000
     32       9.5343      0.00000

 k-point    37 :       0.0000    0.5000    0.5000
  band No.  band energies     occupation 
      1      -9.9680      2.00000
      2      -9.9680      2.00000
      3      -9.3713      2.00000
      4      -9.3713      2.00000
      5      -4.7817      2.00000
      6      -4.7817      2.00000
      7      -3.9852      2.00000
      8      -3.9852      2.00000
      9       0.4767      2.00000
     10       0.4767      2.00000
     11       1.1922      2.00000
     12       1.1922      2.00000
     13       1.4857      2.00000
     14       1.4857      2.00000
     15       1.7683      2.00000
     16       1.7683      2.00000
     17       2.8356      2.00000
     18       2.8356      2.00000
     19       3.2080      2.00000
     20       3.2080      2.00000
     21       5.2351      0.00000
     22       5.2351      0.00000
     23       5.2365      0.00000
     24       5.2365      0.00000
     25       6.2059      0.00000
     26       6.2059      0.00000
     27       6.9743      0.00000
     28       6.9743      0.00000
     29       7.9787      0.00000
     30       7.9787      0.00000
     31       8.5600      0.00000
     32       8.5600      0.00000

 k-point    38 :       0.1667    0.5000    0.5000
  band No.  band energies     occupation 
      1      -9.8256      2.00000
      2      -9.8256      2.00000
      3      -9.2493      2.00000
      4      -9.2493      2.00000
      5      -4.6465      2.00000
      6      -4.6465      2.00000
      7      -3.9533      2.00000
      8      -3.9533      2.00000
      9      -0.3193      2.00000
     10      -0.3193      2.00000
     11       0.2615      2.00000
     12       0.2615      2.00000
     13       1.0353      2.00000
     14       1.0353      2.00000
     15       1.5461      2.00000
     16       1.5461      2.00000
     17       2.3813      2.00000
     18       2.3813      2.00000
     19       3.2230      2.00000
     20       3.2230      2.00000
     21       5.7781      0.00000
     22       5.7781      0.00000
     23       5.9512      0.00000
     24       5.9512      0.00000
     25       7.2373      0.00000
     26       7.2373      0.00000
     27       7.5984      0.00000
     28       7.5984      0.00000
     29       8.0189      0.00000
     30       8.0189      0.00000
     31       8.5656      0.00000
     32       8.5656      0.00000

 k-point    39 :       0.3333    0.5000    0.5000
  band No.  band energies     occupation 
      1      -9.4944      2.00000
      2      -9.4944      2.00000
      3      -8.9782      2.00000
      4      -8.9782      2.00000
      5      -4.3873      2.00000
      6      -4.3873      2.00000
      7      -4.0926      2.00000
      8      -4.0926      2.00000
      9      -1.1242      2.00000
     10      -1.1242      2.00000
     11      -1.0173      2.00000
     12      -1.0173      2.00000
     13       0.5572      2.00000
     14       0.5572      2.00000
     15       0.8933      2.00000
     16       0.8933      2.00000
     17       1.7990      2.00000
     18       1.7990      2.00000
     19       2.6198      2.00000
     20       2.6198      2.00000
     21       6.2742      0.00000
     22       6.2742      0.00000
     23       7.0072      0.00000
     24       7.0072      0.00000
     25       7.8074      0.00000
     26       7.8074      0.00000
     27       8.5689      0.00000
     28       8.5689      0.00000
     29       8.8380      0.00000
     30       8.8380      0.00000
     31       9.6576      0.00000
     32       9.6576      0.00000

 k-point    40 :       0.5000    0.5000    0.5000
  band No.  band energies     occupation 
      1      -9.2945      2.00000
      2      -9.2945      2.00000
      3      -8.8270      2.00000
      4      -8.8270      2.00000
      5      -4.3912      2.00000
      6      -4.3912      2.00000
      7      -4.2184      2.00000
      8      -4.2184      2.00000
      9      -1.4121      2.00000
     10      -1.4121      2.00000
     11      -0.8183      2.00000
     12      -0.8183      2.00000
     13      -0.2866      2.00000
     14      -0.2866      2.00000
     15       0.1908      2.00000
     16       0.1908      2.00000
     17       1.9536      2.00000
     18       1.9536      2.00000
     19       2.6394      2.00000
     20       2.6394      2.00000
     21       5.7656      0.00000
     22       5.7656      0.00000
     23       7.5245      0.00000
     24       7.5245      0.00000
     25       8.0783      0.00000
     26       8.0783      0.00000
     27       8.7510      0.00000
     28       8.7510      0.00000
     29       9.0515      0.00000
     30       9.0515      0.00000
     31      10.4881      0.00000
     32      10.4883      0.00000


--------------------------------------------------------------------------------------------------------


 soft charge-density along one line, spin component            1
         0         1         2         3         4         5         6         7         8         9
 total charge-density along one line
 
 pseudopotential strength for first ion, spin component:            1
 14.378  17.933   0.037   0.040   0.002   0.066   0.072   0.003
 17.933  22.383   0.046   0.050   0.002   0.083   0.091   0.004
  0.037   0.046   3.203  -0.002   0.000   5.450  -0.003   0.000
  0.040   0.050  -0.002   3.199   0.000  -0.003   5.445   0.000
  0.002   0.002   0.000   0.000   3.204   0.000   0.000   5.452
  0.066   0.083   5.450  -0.003   0.000   9.332  -0.006   0.000
  0.072   0.091  -0.003   5.445   0.000  -0.006   9.322   0.000
  0.003   0.004   0.000   0.000   5.452   0.000   0.000   9.335
  0.000   0.000   0.000  -0.000   0.005   0.001  -0.000   0.011
 -0.004  -0.005   0.010   0.012  -0.000   0.019   0.021  -0.000
 -0.005  -0.006  -0.003   0.010  -0.000  -0.005   0.019  -0.000
  0.000   0.000  -0.000   0.001   0.010  -0.000   0.001   0.018
  0.001   0.001  -0.011  -0.000   0.001  -0.020  -0.000   0.001
 total augmentation occupancy for first ion, spin component:            1
  2.854  -0.807   0.307   0.333   0.014  -0.060  -0.060  -0.001  -0.003   0.004   0.004  -0.002   0.005
 -0.807   0.763  -0.389  -0.434  -0.015   0.064   0.066   0.001   0.003  -0.008  -0.006   0.000  -0.002
  0.307  -0.389   1.263   0.069  -0.007  -0.214  -0.006   0.002   0.004   0.038  -0.102   0.005   0.007
  0.333  -0.434   0.069   1.394  -0.010  -0.007  -0.230   0.002   0.002  -0.029   0.093   0.001   0.001
  0.014  -0.015  -0.007  -0.010   1.260   0.002   0.002  -0.222   0.145   0.004  -0.000   0.042  -0.001
 -0.060   0.064  -0.214  -0.007   0.002   0.040   0.000  -0.001  -0.001  -0.006   0.018  -0.001  -0.001
 -0.060   0.066  -0.006  -0.230   0.002   0.000   0.044  -0.000  -0.001   0.005  -0.016  -0.000  -0.000
 -0.001   0.001   0.002   0.002  -0.222  -0.001  -0.000   0.043  -0.026  -0.001   0.000  -0.007   0.000
 -0.003   0.003   0.004   0.002   0.145  -0.001  -0.001  -0.026   0.031  -0.001   0.000   0.004   0.000
  0.004  -0.008   0.038  -0.029   0.004  -0.006   0.005  -0.001  -0.001   0.015  -0.007  -0.002   0.000
  0.004  -0.006  -0.102   0.093  -0.000   0.018  -0.016   0.000   0.000  -0.007   0.032   0.001  -0.003
 -0.002   0.000   0.005   0.001   0.042  -0.001  -0.000  -0.007   0.004  -0.002   0.001   0.011   0.000
  0.005  -0.002   0.007   0.001  -0.001  -0.001  -0.000   0.000   0.000   0.000  -0.003   0.000   0.009


------------------------ aborting loop because EDIFF is reached ----------------------------------------


    CHARGE:  cpu time      0.0053: real time      0.0054
    FORLOC:  cpu time      0.0002: real time      0.0002
    FORNL :  cpu time      0.0254: real time      0.0256
    STRESS:  cpu time      0.2549: real time      0.2559
    FORCOR:  cpu time      0.0065: real time      0.0065
    FORHAR:  cpu time      0.0016: real time      0.0016
    MIXING:  cpu time      0.0006: real time      0.0006
    OFIELD:  cpu time      0.0000: real time      0.0000

  FORCE on cell =-STRESS in cart. coord.  units (eV):
  Direction    XX          YY          ZZ          XY          YZ          ZX
  --------------------------------------------------------------------------------------
  Alpha Z    91.66130    91.66130    91.66130
  Ewald    -465.55583  -527.63443  -452.99688   -11.05300     0.00005     0.00005
  Hartree    52.22843    22.14858    53.53555    -4.12341     0.00001     0.00001
  E(xc)    -141.90860  -141.92595  -141.88327    -0.06813    -0.00000     0.00000
  Local    -156.46507   -70.39774  -178.64682    15.37836    -0.00006    -0.00005
  n-local   241.87046   241.42296   243.12085    -0.09943     0.00000    -0.00000
  augment   -11.28402   -11.72610   -11.96441     0.03259     0.00000     0.00000
  Kinetic   392.04112   399.35897   404.96748    -1.10906    -0.00001    -0.00002
  Fock        0.00000     0.00000     0.00000     0.00000     0.00000     0.00000
  -------------------------------------------------------------------------------------
  Total       2.58779     2.90759     7.79381    -1.04209    -0.00000    -0.00001
  in kB      22.42844    25.20010    67.54906    -9.03176    -0.00000    -0.00007
  external pressure =       38.39 kB  Pullay stress =        0.00 kB


 VOLUME and BASIS-vectors are now :
 -----------------------------------------------------------------------------
  energy-cutoff  :      360.00
  volume of cell :      184.86
      direct lattice vectors                 reciprocal lattice vectors
     3.858100176  0.000000000  0.000000000     0.259194929  0.000000000  0.000000000
     0.000000000  4.526575088  0.000000000     0.000000000  0.220917577  0.000000000
     0.000000000  0.000000000 10.585176468     0.000000000  0.000000000  0.094471736

  length of vectors
     3.858100176  4.526575088 10.585176468     0.259194929  0.220917577  0.094471736


 FORCES acting on ions
    electron-ion (+dipol)            ewald-force                    non-local-force                 convergence-correction
 -----------------------------------------------------------------------------------------------
   -.602E+00 0.171E+02 0.199E+02   0.461E+00 -.193E+02 -.223E+02   0.730E-01 0.217E+01 0.264E+01   0.601E-05 -.336E-03 -.973E-03
   -.603E+00 0.171E+02 -.199E+02   0.461E+00 -.193E+02 0.223E+02   0.730E-01 0.217E+01 -.264E+01   0.591E-05 -.338E-03 0.976E-03
   0.603E+00 -.171E+02 -.199E+02   -.461E+00 0.193E+02 0.223E+02   -.730E-01 -.217E+01 -.264E+01   -.557E-05 0.337E-03 0.974E-03
   0.602E+00 -.171E+02 0.199E+02   -.461E+00 0.193E+02 -.223E+02   -.730E-01 -.217E+01 0.264E+01   -.645E-05 0.337E-03 -.977E-03
   0.406E+00 -.167E+02 -.111E+02   -.214E+00 0.182E+02 0.123E+02   -.230E+00 -.128E+01 -.154E+01   -.332E-04 0.755E-03 0.178E-02
   0.406E+00 -.167E+02 0.111E+02   -.214E+00 0.182E+02 -.123E+02   -.230E+00 -.128E+01 0.154E+01   -.339E-04 0.752E-03 -.177E-02
   -.406E+00 0.167E+02 0.111E+02   0.214E+00 -.182E+02 -.123E+02   0.230E+00 0.128E+01 0.154E+01   0.348E-04 -.753E-03 -.178E-02
   -.406E+00 0.167E+02 -.111E+02   0.214E+00 -.182E+02 0.123E+02   0.230E+00 0.128E+01 -.154E+01   0.325E-04 -.753E-03 0.178E-02
 -----------------------------------------------------------------------------------------------
   0.349E-05 0.493E-05 0.174E-05   0.352E-14 -.355E-14 0.355E-14   0.338E-04 -.372E-04 -.318E-05   0.130E-06 0.137E-05 0.131E-05
 
 
 POSITION                                       TOTAL-FORCE (eV/Angst)
 -----------------------------------------------------------------------------------
      2.36239      1.19558      1.23098        -0.068458     -0.070522      0.247507
      0.43334      3.45886      4.06160        -0.068457     -0.070526     -0.247500
      2.89357      3.98702      9.35419         0.068397      0.070538     -0.247516
      0.96452      1.72374      6.52357         0.068402      0.070535      0.247511
      2.36239      0.63313      3.75268        -0.038029      0.243843     -0.299816
      0.43334      2.89641      1.53991        -0.038027      0.243838      0.299810
      2.89357      0.02290      6.83250         0.038085     -0.243852      0.299796
      0.96452      2.28618      9.04526         0.038086     -0.243854     -0.299791
 -----------------------------------------------------------------------------------
    total drift:                                0.000037     -0.000031     -0.000000


--------------------------------------------------------------------------------------------------------



  FREE ENERGIE OF THE ION-ELECTRON SYSTEM (eV)
  ---------------------------------------------------
  free  energy   TOTEN  =       -33.17660234 eV

  energy  without entropy=      -33.17659963  energy(sigma->0) =      -33.17660099
 


--------------------------------------------------------------------------------------------------------


    POTLOK:  cpu time      0.2253: real time      0.2258


--------------------------------------------------------------------------------------------------------


     LOOP+:  cpu time      7.1600: real time      7.1974
    4ORBIT:  cpu time      0.0000: real time      0.0000

 total amount of memory used by VASP MPI-rank0    36587. kBytes
=======================================================================

   base      :      30000. kBytes
   nonl-proj :       5001. kBytes
   fftplans  :        306. kBytes
   grid      :        466. kBytes
   one-center:         16. kBytes
   wavefun   :        798. kBytes
 
  
  
 General timing and accounting informations for this job:
 ========================================================
  
                  Total CPU time used (sec):        8.941
                            User time (sec):        8.681
                          System time (sec):        0.260
                         Elapsed time (sec):       10.458
  
                   Maximum memory used (kb):      174204.
                   Average memory used (kb):          N/A
  
                          Minor page faults:        18422
                          Major page faults:           67
                 Voluntary context switches:         9709
