 vasp.6.4.2 20Jul23 (build Oct 12 2023 10:31:02) complex                         
 executed on              LinuxNV date 2024.11.01  22:47:00
 running  128 mpi-ranks, with    1 threads/rank, on    2 nodes
 distrk:  each k-point on   64 cores,    2 groups
 distr:  one band on NCORE=   8 cores,    8 groups


--------------------------------------------------------------------------------------------------------


 INCAR:
   ENCUT = 520.000000
   SIGMA = 0.050000
   EDIFF = 1.00e-06
   ALGO = N
   GGA = PE
   PREC = Accurate
   SYSTEM = 01_AOPT
   ICHARG = 0
   ISMEAR = 0
   ISPIN = 2
   ISTART = 1
   ISYM = -1
   KPAR = 2
   LORBIT = 11
   NBANDS = 220
   NELM = 100
   NELMIN = 5
   NPAR = 8
   LASPH = .TRUE.
   LCHARG = .FALSE.
   LWAVE = .FALSE.
   LREAL = .FALSE.

 POTCAR:    PAW_PBE Ge 05Jan2001                  
 POTCAR:    PAW_PBE Se 06Sep2000                  
 -----------------------------------------------------------------------------
|                                                                             |
|           W    W    AA    RRRRR   N    N  II  N    N   GGGG   !!!           |
|           W    W   A  A   R    R  NN   N  II  NN   N  G    G  !!!           |
|           W    W  A    A  R    R  N N  N  II  N N  N  G       !!!           |
|           W WW W  AAAAAA  RRRRR   N  N N  II  N  N N  G  GGG   !            |
|           WW  WW  A    A  R   R   N   NN  II  N   NN  G    G                |
|           W    W  A    A  R    R  N    N  II  N    N   GGGG   !!!           |
|                                                                             |
|     You use a magnetic or noncollinear calculation, but did not specify     |
|     the initial magnetic moment with the MAGMOM tag. Note that a            |
|     default of 1 will be used for all atoms. This ferromagnetic setup       |
|     may break the symmetry of the crystal, in particular it may rule        |
|     out finding an antiferromagnetic solution. Thence, we recommend         |
|     setting the initial magnetic moment manually or verifying carefully     |
|     that this magnetic setup is desired.                                    |
|                                                                             |
 -----------------------------------------------------------------------------

 POTCAR:    PAW_PBE Ge 05Jan2001                  
   VRHFIN =Ge: s2p2                                                                                 
   LEXCH  = PE                                                                                      
   EATOM  =   104.9960 eV,    7.7170 Ry                                                             
                                                                                                    
   TITEL  = PAW_PBE Ge 05Jan2001                                                                    
   LULTRA =        F    use ultrasoft PP ?                                                          
   IUNSCR =        1    unscreen: 0-lin 1-nonlin 2-no                                               
   RPACOR =    2.170    partial core radius                                                         
   POMASS =   72.610; ZVAL   =    4.000    mass and valenz                                          
   RCORE  =    2.300    outmost cutoff radius                                                       
   RWIGS  =    2.300; RWIGS  =    1.217    wigner-seitz radius (au A)                               
   ENMAX  =  173.807; ENMIN  =  130.355 eV                                                          
   ICORE  =        3    local potential                                                             
   LCOR   =        T    correct aug charges                                                         
   LPAW   =        T    paw PP                                                                      
   EAUG   =  385.843                                                                                
   DEXC   =    0.000                                                                                
   RMAX   =    2.342    core radius for proj-oper                                                   
   RAUG   =    1.300    factor for augmentation sphere                                              
   RDEP   =    2.318    radius for radial grids                                                     
   RDEPT  =    2.103    core radius for aug-charge                                                  
                                                                                                    
   Atomic configuration                                                                             
   10 entries                                                                                       
     n  l   j            E        occ.                                                              
     1  0  0.50    -10959.8463   2.0000                                                             
     2  0  0.50     -1371.6056   2.0000                                                             
     2  1  1.50     -1198.4791   6.0000                                                             
     3  0  0.50      -168.4733   2.0000                                                             
     3  1  1.50      -115.6019   6.0000                                                             
     3  2  2.50       -29.3106  10.0000                                                             
     4  0  0.50       -11.7309   2.0000                                                             
     4  1  0.50        -3.8952   2.0000                                                             
     4  2  1.50        -4.0817   0.0000                                                             
     4  3  2.50        -4.0817   0.0000                                                             
   Description                                                                                      
     l       E           TYP  RCUT    TYP  RCUT                                                     
     0    -11.7309493     23  2.300                                                                 
     0     -7.4578696     23  2.300                                                                 
     1     -3.8952261     23  2.300                                                                 
     1      6.1178114     23  2.300                                                                 
     2     -4.0817478     23  2.300                                                                 
     3     -1.3605826      7  2.300                                                                 
  local pseudopotential read in
  partial core-charges read in
  partial kinetic energy density read in
  atomic valenz-charges read in
  non local Contribution for L=            0  read in
    real space projection operators read in
  non local Contribution for L=            0  read in
    real space projection operators read in
  non local Contribution for L=            1  read in
    real space projection operators read in
  non local Contribution for L=            1  read in
    real space projection operators read in
  non local Contribution for L=            2  read in
    real space projection operators read in
    PAW grid and wavefunctions read in
 
   number of l-projection  operators is LMAX  =            5
   number of lm-projection operators is LMMAX =           13
 
 POTCAR:    PAW_PBE Se 06Sep2000                  
   VRHFIN =Se: s2p4                                                                                 
   LEXCH  = PE                                                                                      
   EATOM  =   257.1286 eV,   18.8984 Ry                                                             
                                                                                                    
   TITEL  = PAW_PBE Se 06Sep2000                                                                    
   LULTRA =        F    use ultrasoft PP ?                                                          
   IUNSCR =        1    unscreen: 0-lin 1-nonlin 2-no                                               
   RPACOR =    1.900    partial core radius                                                         
   POMASS =   78.960; ZVAL   =    6.000    mass and valenz                                          
   RCORE  =    2.100    outmost cutoff radius                                                       
   RWIGS  =    2.200; RWIGS  =    1.164    wigner-seitz radius (au A)                               
   ENMAX  =  211.555; ENMIN  =  158.666 eV                                                          
   ICORE  =        3    local potential                                                             
   LCOR   =        T    correct aug charges                                                         
   LPAW   =        T    paw PP                                                                      
   EAUG   =  446.842                                                                                
   DEXC   =    0.000                                                                                
   RMAX   =    2.147    core radius for proj-oper                                                   
   RAUG   =    1.300    factor for augmentation sphere                                              
   RDEP   =    2.177    radius for radial grids                                                     
   RDEPT  =    1.928    core radius for aug-charge                                                  
                                                                                                    
   Atomic configuration                                                                             
   10 entries                                                                                       
     n  l   j            E        occ.                                                              
     1  0  0.50    -12503.4787   2.0000                                                             
     2  0  0.50     -1606.9547   2.0000                                                             
     2  1  1.50     -1413.3140   6.0000                                                             
     3  0  0.50      -213.4885   2.0000                                                             
     3  1  1.50      -152.9538   6.0000                                                             
     3  2  2.50       -53.1221  10.0000                                                             
     4  0  0.50       -17.2865   2.0000                                                             
     4  1  0.50        -6.5110   4.0000                                                             
     4  2  2.50        -6.8029   0.0000                                                             
     4  3  2.50        -6.8029   0.0000                                                             
   Description                                                                                      
     l       E           TYP  RCUT    TYP  RCUT                                                     
     0    -17.2865377     23  2.100                                                                 
     0    -15.3094411     23  2.100                                                                 
     1     -6.5110275     23  2.100                                                                 
     1     -0.0695192     23  2.100                                                                 
     2     -6.8029130     23  2.100                                                                 
     3     -1.3605826      7  2.100                                                                 
  local pseudopotential read in
  partial core-charges read in
  partial kinetic energy density read in
  atomic valenz-charges read in
  non local Contribution for L=            0  read in
    real space projection operators read in
  non local Contribution for L=            0  read in
    real space projection operators read in
  non local Contribution for L=            1  read in
    real space projection operators read in
  non local Contribution for L=            1  read in
    real space projection operators read in
  non local Contribution for L=            2  read in
    real space projection operators read in
    PAW grid and wavefunctions read in
 
   number of l-projection  operators is LMAX  =            5
   number of lm-projection operators is LMMAX =           13
 
 -----------------------------------------------------------------------------
|                                                                             |
|               ----> ADVICE to this user running VASP <----                  |
|                                                                             |
|     You have a (more or less) 'large supercell' and for larger cells it     |
|     might be more efficient to use real-space projection operators.         |
|     Therefore, try LREAL= Auto in the INCAR file.                           |
|     Mind: For very accurate calculation, you might also keep the            |
|     reciprocal projection scheme (i.e. LREAL=.FALSE.).                      |
|                                                                             |
 -----------------------------------------------------------------------------

  PAW_PBE Ge 05Jan2001                  :
 energy of atom  1       EATOM= -104.9960
 kinetic energy error for atom=    0.0002 (will be added to EATOM!!)
  PAW_PBE Se 06Sep2000                  :
 energy of atom  2       EATOM= -257.1286
 kinetic energy error for atom=    0.0007 (will be added to EATOM!!)
 
 
 POSCAR: Ge Se
  positions in cartesian coordinates
  No initial velocities read in
 exchange correlation table for  LEXCH =        8
   RHO(1)=    0.500       N(1)  =     2000
   RHO(2)=  100.500       N(2)  =     4000
 


--------------------------------------------------------------------------------------------------------


 ion  position               nearest neighbor table
   1  0.071  0.055  0.124-  55 2.67  45 2.67  54 2.73
   2  0.245  0.892  0.373-  67 2.57  48 2.65  45 2.65
   3  0.575  0.213  0.384-  68 2.58  56 2.65  49 2.70
   4  0.553  0.536  0.355-  69 2.36  50 2.66  72 2.79
   5  0.560  0.872  0.360-  70 2.53  48 2.70  44 2.76
   6  0.914  0.205  0.371-  55 2.53  46 2.69  56 2.85
   7  0.877  0.550  0.345-  72 2.50  71 2.57  47 2.73
   8  0.895  0.889  0.375-  53 2.60  44 2.65  45 2.68
   9  0.063  0.146  0.618-  37 2.58  51 2.79  57 2.83
  10  0.050  0.489  0.631-  43 2.53  58 2.53
  11  0.063  0.817  0.634-  52 2.48  59 2.49  39 2.68
  12  0.399  0.155  0.624-  51 2.50  60 2.54
  13  0.418  0.483  0.646-  61 2.39  41 2.58  38 2.59
  14  0.390  0.820  0.626-  62 2.65  39 2.67  42 2.84
  15  0.726  0.159  0.643-  63 2.57  40 2.72  37 2.86
  16  0.738  0.474  0.627-  64 2.51  43 2.53  41 2.57
  17  0.233  0.540  0.371-  66 2.59  47 2.59
  18  0.263  0.196  0.350-  54 2.60  49 2.65  48 2.80  46 2.83
  19  0.722  0.836  0.636-  65 2.51  42 2.68  40 2.77
  20  0.896  0.653  0.867-  52 2.62  64 2.64  58 2.79
  21  0.904  0.984  0.873-  65 2.68  37 2.69  59 2.70
  22  0.066  0.362  0.135-  46 2.57  66 2.80
  23  0.064  0.700  0.151-  47 2.42  67 2.70  53 2.77
  24  0.407  0.060  0.105-  54 2.62  48 2.65  68 2.67
  25  0.399  0.377  0.128-  49 2.57  66 2.61  69 2.71
  26  0.736  0.025  0.132-  44 2.51  68 2.75
  27  0.745  0.390  0.115-  71 2.58  56 2.77
  28  0.382  0.697  0.147-  50 2.46  67 2.57
  29  0.215  0.336  0.866-  38 2.56  57 2.61
  30  0.241  0.646  0.869-  39 2.56  61 2.64  58 2.69
  31  0.234  0.978  0.879-  51 2.47  62 2.62  59 2.72
  32  0.585  0.316  0.890-  41 2.50  60 2.72  63 2.76
  33  0.574  0.649  0.868-  64 2.51  42 2.57  61 2.59
  34  0.548  0.008  0.865-  40 2.54  62 2.64  60 2.70
  35  0.909  0.315  0.871-  57 2.50  63 2.56  43 2.61
  36  0.739  0.719  0.120-  72 2.68  70 2.71  53 2.76
  37  0.904  0.015  0.632-   9 2.58  21 2.69  15 2.86
  38  0.248  0.364  0.640-  29 2.56  13 2.59
  39  0.228  0.680  0.641-  30 2.56  14 2.67  11 2.68
  40  0.575  0.003  0.637-  34 2.54  15 2.72  19 2.77
  41  0.577  0.351  0.668-  32 2.50  16 2.57  13 2.58
  42  0.571  0.683  0.638-  33 2.57  19 2.68  14 2.84
  43  0.900  0.352  0.639-  10 2.53  16 2.53  35 2.61
  44  0.727  0.017  0.358-  26 2.51   8 2.65   5 2.76
  45  0.070  0.014  0.361-   2 2.65   1 2.67   8 2.68
  46  0.085  0.336  0.365-  22 2.57   6 2.69  18 2.83
  47  0.064  0.662  0.365-  23 2.42  17 2.59   7 2.73
  48  0.408  0.025  0.341-   2 2.65  24 2.65   5 2.70  18 2.80
  49  0.409  0.350  0.358-  25 2.57  18 2.65   3 2.70
  50  0.406  0.691  0.367-  28 2.46   4 2.66
  51  0.249  0.027  0.664-  31 2.47  12 2.50   9 2.79
  52  0.907  0.695  0.635-  11 2.48  20 2.62
  53  0.909  0.859  0.144-   8 2.60  36 2.76  23 2.77
  54  0.243  0.191  0.116-  18 2.60  24 2.62   1 2.73
  55  0.907  0.191  0.144-   6 2.53   1 2.67
  56  0.737  0.348  0.361-   3 2.65  27 2.77   6 2.85
  57  0.066  0.190  0.868-  35 2.50  29 2.61   9 2.83
  58  0.071  0.514  0.856-  10 2.53  30 2.69  20 2.79
  59  0.066  0.841  0.858-  11 2.49  21 2.70  31 2.72
  60  0.418  0.180  0.850-  12 2.54  34 2.70  32 2.72
  61  0.411  0.520  0.857-  13 2.39  33 2.59  30 2.64
  62  0.403  0.854  0.862-  31 2.62  34 2.64  14 2.65
  63  0.757  0.177  0.872-  35 2.56  15 2.57  32 2.76
  64  0.730  0.524  0.846-  33 2.51  16 2.51  20 2.64
  65  0.734  0.855  0.862-  19 2.51  21 2.68
  66  0.236  0.508  0.140-  17 2.59  25 2.61  22 2.80
  67  0.231  0.838  0.150-   2 2.57  28 2.57  23 2.70
  68  0.579  0.179  0.154-   3 2.58  24 2.67  26 2.75
  69  0.558  0.525  0.141-   4 2.36  25 2.71
  70  0.572  0.857  0.133-   5 2.53  36 2.71
  71  0.898  0.528  0.115-   7 2.57  27 2.58
  72  0.725  0.680  0.358-   7 2.50  36 2.68   4 2.79
 

IMPORTANT INFORMATION: All symmetrisations will be switched off!
NOSYMM: (Re-)initialisation of all symmetry stuff for point group C_1.


----------------------------------------------------------------------------------------

                                     Primitive cell                                     

  volume of cell :    1721.5418

  direct lattice vectors                    reciprocal lattice vectors
    12.440689441  0.000001242 -0.000001823     0.080381397 -0.000000008  0.000000015
     0.000001248 12.504959017 -0.000000953    -0.000000008  0.079968275  0.000000008
    -0.000002087 -0.000001085 11.066004443     0.000000013  0.000000007  0.090366853

  length of vectors
    12.440689441 12.504959017 11.066004443     0.080381397  0.079968275  0.090366853

  position of ions in fractional coordinates (direct lattice)
     0.071287117  0.055135727  0.124438087
     0.244740104  0.892398796  0.372910345
     0.574778888  0.212620137  0.383673994
     0.552908022  0.536010577  0.354522634
     0.560134334  0.871744304  0.359929981
     0.914373982  0.204865777  0.371407399
     0.877209424  0.550266883  0.344734818
     0.895421016  0.888933524  0.375287994
     0.063231025  0.146168404  0.617589574
     0.050018869  0.488616018  0.630628169
     0.063104085  0.817448793  0.634135380
     0.398628176  0.154962353  0.623837674
     0.418497713  0.482539943  0.645712847
     0.389684770  0.820387107  0.626208299
     0.726260488  0.159188707  0.643058558
     0.738357103  0.474449064  0.626739631
     0.233076573  0.540381719  0.371121779
     0.262766848  0.195560469  0.349592195
     0.721922619  0.836033210  0.636107251
     0.896090431  0.653313945  0.866826936
     0.904322406  0.984476486  0.872843581
     0.065768602  0.361657880  0.135454882
     0.063641093  0.700408547  0.150720472
     0.406667654  0.059791492  0.105337631
     0.398937348  0.376676637  0.127573521
     0.735851135  0.024740699  0.131750064
     0.744966790  0.389615226  0.115056679
     0.381512112  0.697395938  0.146704229
     0.215191699  0.336365325  0.866159034
     0.241054072  0.645939782  0.869038131
     0.234383833  0.978370160  0.879487297
     0.585296734  0.315582590  0.889651336
     0.573673228  0.649221588  0.867949685
     0.548046178  0.007587945  0.864904119
     0.909412802  0.314782883  0.870584670
     0.739036560  0.719263799  0.120166478
     0.903785740  0.014662764  0.631748580
     0.247830830  0.363699509  0.639772271
     0.228309684  0.679935570  0.641184538
     0.574635453  0.002677240  0.637485632
     0.577226784  0.350958558  0.667641695
     0.571325839  0.683292684  0.638489067
     0.900021553  0.352478554  0.639101059
     0.726735712  0.017178590  0.357847529
     0.070450583  0.013588363  0.361202123
     0.085248873  0.336477536  0.365301004
     0.064436640  0.662390124  0.365153990
     0.408463715  0.024751638  0.341416145
     0.408809582  0.349809590  0.357608542
     0.406262669  0.690659275  0.367451741
     0.248754722  0.027047257  0.664011036
     0.906905680  0.694579950  0.634873840
     0.909003902  0.859427499  0.143537514
     0.242928512  0.190701181  0.115539830
     0.906840436  0.191012182  0.143842443
     0.737044077  0.348496130  0.361213707
     0.066175246  0.189687792  0.868221691
     0.070867899  0.514172204  0.856303712
     0.066085929  0.840552001  0.858017019
     0.417830417  0.180060924  0.850408436
     0.411297817  0.520324368  0.857253501
     0.402816967  0.853744706  0.862399004
     0.757262431  0.176804931  0.871948678
     0.729504646  0.523595460  0.846197732
     0.733667552  0.854514008  0.861861236
     0.236055707  0.507786036  0.140320982
     0.230933199  0.838144451  0.149813608
     0.579416875  0.178627657  0.153603381
     0.557716564  0.525061654  0.141327551
     0.571870966  0.857217126  0.132694312
     0.898470096  0.527995412  0.114984977
     0.724527655  0.679961406  0.358118327

  ion indices of the primitive-cell ions
   primitive index   ion index
                 1           1
                 2           2
                 3           3
                 4           4
                 5           5
                 6           6
                 7           7
                 8           8
                 9           9
                10          10
                11          11
                12          12
                13          13
                14          14
                15          15
                16          16
                17          17
                18          18
                19          19
                20          20
                21          21
                22          22
                23          23
                24          24
                25          25
                26          26
                27          27
                28          28
                29          29
                30          30
                31          31
                32          32
                33          33
                34          34
                35          35
                36          36
                37          37
                38          38
                39          39
                40          40
                41          41
                42          42
                43          43
                44          44
                45          45
                46          46
                47          47
                48          48
                49          49
                50          50
                51          51
                52          52
                53          53
                54          54
                55          55
                56          56
                57          57
                58          58
                59          59
                60          60
                61          61
                62          62
                63          63
                64          64
                65          65
                66          66
                67          67
                68          68
                69          69
                70          70
                71          71
                72          72

----------------------------------------------------------------------------------------

 
 
 KPOINTS: KPOINTS created by Atomic Simulation Env

Automatic generation of k-mesh.
 Grid dimensions read from file:
 generate k-points for:    2    2    2

 Generating k-lattice:

  Cartesian coordinates                     Fractional coordinates (reciprocal lattice)
     0.040190699 -0.000000004  0.000000008     0.500000000 -0.000000000  0.000000000
    -0.000000004  0.039984137  0.000000004     0.000000000  0.500000000  0.000000000
     0.000000007  0.000000003  0.045183427     0.000000000  0.000000000  0.500000000

  Length of vectors
     0.040190699  0.039984137  0.045183427

  Shift w.r.t. Gamma in fractional coordinates (k-lattice)
     0.000000000  0.000000000  0.000000000

 
 Subroutine IBZKPT returns following result:
 ===========================================
 
 Found      8 irreducible k-points:
 
 Following reciprocal coordinates:
            Coordinates               Weight
  0.000000  0.000000  0.000000      1.000000
  0.500000  0.000000  0.000000      1.000000
  0.000000  0.500000  0.000000      1.000000
  0.500000  0.500000  0.000000      1.000000
  0.000000  0.000000  0.500000      1.000000
  0.500000  0.000000  0.500000      1.000000
  0.000000  0.500000  0.500000      1.000000
  0.500000  0.500000  0.500000      1.000000
 
 Following cartesian coordinates:
            Coordinates               Weight
  0.000000  0.000000  0.000000      1.000000
  0.040191 -0.000000  0.000000      1.000000
 -0.000000  0.039984  0.000000      1.000000
  0.040191  0.039984  0.000000      1.000000
  0.000000  0.000000  0.045183      1.000000
  0.040191 -0.000000  0.045183      1.000000
  0.000000  0.039984  0.045183      1.000000
  0.040191  0.039984  0.045183      1.000000
 
 -----------------------------------------------------------------------------
|                                                                             |
|           W    W    AA    RRRRR   N    N  II  N    N   GGGG   !!!           |
|           W    W   A  A   R    R  NN   N  II  NN   N  G    G  !!!           |
|           W    W  A    A  R    R  N N  N  II  N N  N  G       !!!           |
|           W WW W  AAAAAA  RRRRR   N  N N  II  N  N N  G  GGG   !            |
|           WW  WW  A    A  R   R   N   NN  II  N   NN  G    G                |
|           W    W  A    A  R    R  N    N  II  N    N   GGGG   !!!           |
|                                                                             |
|     The number of bands has been changed from the values supplied in        |
|     the INCAR file. This is a result of running the parallel version.       |
|     The orbitals not found in the WAVECAR file will be initialized with     |
|     random numbers, which is usually adequate. For correlated               |
|     calculations, however, you should redo the groundstate calculation.     |
|     I found NBANDS = 220. Now, NBANDS = 224.                                |
|                                                                             |
 -----------------------------------------------------------------------------



--------------------------------------------------------------------------------------------------------




 Dimension of arrays:
   k-points           NKPTS =      8   k-points in BZ     NKDIM =      8   number of bands    NBANDS=    224
   number of dos      NEDOS =    301   number of ions     NIONS =     72
   non local maximal  LDIM  =      5   non local SUM 2l+1 LMDIM =     13
   total plane-waves  NPLWV = 774144
   max r-space proj   IRMAX =      1   max aug-charges    IRDMAX=  24637
   dimension x,y,z NGX =    96 NGY =   96 NGZ =   84
   dimension x,y,z NGXF=   192 NGYF=  192 NGZF=  168
   support grid    NGXF=   192 NGYF=  192 NGZF=  168
   ions per type =              36  36
   NGX,Y,Z   is equivalent  to a cutoff of  12.83, 12.76, 12.62 a.u.
   NGXF,Y,Z  is equivalent  to a cutoff of  25.66, 25.53, 25.24 a.u.

 SYSTEM =  01_AOPT                                 
 POSCAR =  Ge Se                                   

 Startparameter for this run:
   NWRITE =      2    write-flag & timer
   PREC   = accura    normal or accurate (medium, high low for compatibility)
   ISTART =      0    job   : 0-new  1-cont  2-samecut
   ICHARG =      2    charge: 1-file 2-atom 10-const
   ISPIN  =      2    spin polarized calculation?
   LNONCOLLINEAR =      F non collinear calculations
   LSORBIT =      F    spin-orbit coupling
   INIWAV =      1    electr: 0-lowe 1-rand  2-diag
   LASPH  =      T    aspherical Exc in radial PAW
 Electronic Relaxation 1
   ENCUT  =  520.0 eV  38.22 Ry    6.18 a.u.  23.13 23.25 20.58*2*pi/ulx,y,z
   ENINI  =  520.0     initial cutoff
   ENAUG  =  446.8 eV  augmentation charge cutoff
   NELM   =    100;   NELMIN=  5; NELMDL=  0     # of ELM steps 
   EDIFF  = 0.1E-05   stopping-criterion for ELM
   LREAL  =      F    real-space projection
   NLSPLINE    = F    spline interpolate recip. space projectors
   LCOMPAT=      F    compatible to vasp.4.4
   GGA_COMPAT  = T    GGA compatible to vasp.4.4-vasp.4.6
   LMAXPAW     = -100 max onsite density
   LMAXMIX     =    2 max onsite mixed and CHGCAR
   VOSKOWN=      0    Vosko Wilk Nusair interpolation
   ROPT   =    0.00000   0.00000
 Ionic relaxation
   EDIFFG = 0.1E-04   stopping-criterion for IOM
   NSW    =      0    number of steps for IOM
   NBLOCK =      1;   KBLOCK =      1    inner block; outer block 
   IBRION =     -1    ionic relax: 0-MD 1-quasi-New 2-CG
   NFREE  =      0    steps in history (QN), initial steepest desc. (CG)
   ISIF   =      2    stress and relaxation
   IWAVPR =     10    prediction:  0-non 1-charg 2-wave 3-comb
   ISYM   =     -1    0-nonsym 1-usesym 2-fastsym
   LCORR  =      T    Harris-Foulkes like correction to forces

   POTIM  = 0.5000    time-step for ionic-motion
   TEIN   =    0.0    initial temperature
   TEBEG  =    0.0;   TEEND  =   0.0 temperature during run
   SMASS  =  -3.00    Nose mass-parameter (am)
   estimated Nose-frequenzy (Omega)   =  0.10E-29 period in steps = 0.13E+47 mass=  -0.354E-26a.u.
   SCALEE = 1.0000    scale energy and forces
   NPACO  =    256;   APACO  = 10.0  distance and # of slots for P.C.
   PSTRESS=    0.0 pullay stress

  Mass of Ions in am
   POMASS =  72.61 78.96
  Ionic Valenz
   ZVAL   =   4.00  6.00
  Atomic Wigner-Seitz radii
   RWIGS  =  -1.00 -1.00
  virtual crystal weights 
   VCA    =   1.00  1.00
   NELECT =     360.0000    total number of electrons
   NUPDOWN=      -1.0000    fix difference up-down

 DOS related values:
   EMIN   =  10.00;   EMAX   =-10.00  energy-range for DOS
   EFERMI =   0.00;   METHOD = LEGACY      
   ISMEAR =     0;   SIGMA  =   0.05  broadening in eV -4-tet -1-fermi 0-gaus

 Electronic relaxation 2 (details)
   IALGO  =     38    algorithm
   LDIAG  =      T    sub-space diagonalisation (order eigenvalues)
   LSUBROT=      F    optimize rotation matrix (better conditioning)
   TURBO    =      0    0=normal 1=particle mesh
   IRESTART =      0    0=no restart 2=restart with 2 vectors
   NREBOOT  =      0    no. of reboots
   NMIN     =      0    reboot dimension
   EREF     =   0.00    reference energy to select bands
   IMIX   =      4    mixing-type and parameters
     AMIX     =   0.40;   BMIX     =  1.00
     AMIX_MAG =   1.60;   BMIX_MAG =  1.00
     AMIN     =   0.10
     WC   =   100.;   INIMIX=   1;  MIXPRE=   1;  MAXMIX= -45

 Intra band minimization:
   WEIMIN = 0.0000     energy-eigenvalue tresh-hold
   EBREAK =  0.11E-08  absolut break condition
   DEPER  =   0.30     relativ break condition  

   TIME   =   0.40     timestep for ELM

  volume/ion in A,a.u.               =      23.91       161.35
  Fermi-wavevector in a.u.,A,eV,Ry     =   0.971710  1.836265 12.846886  0.944219
  Thomas-Fermi vector in A             =   2.101949
 
 Write flags
   LWAVE        =      F    write WAVECAR
   LDOWNSAMPLE  =      F    k-point downsampling of WAVECAR
   LCHARG       =      F    write CHGCAR
   LVTOT        =      F    write LOCPOT, total local potential
   LVHAR        =      F    write LOCPOT, Hartree potential only
   LELF         =      F    write electronic localiz. function (ELF)
   LORBIT       =     11    0 simple, 1 ext, 2 COOP (PROOUT), +10 PAW based schemes


 Dipole corrections
   LMONO  =      F    monopole corrections only (constant potential shift)
   LDIPOL =      F    correct potential (dipole corrections)
   IDIPOL =      0    1-x, 2-y, 3-z, 4-all directions 
   EPSILON=  1.0000000 bulk dielectric constant

 Exchange correlation treatment:
   GGA     =    PE    GGA type
   LEXCH   =     8    internal setting for exchange type
   LIBXC   =     F    Libxc                    
   VOSKOWN =     0    Vosko Wilk Nusair interpolation
   LHFCALC =     F    Hartree Fock is set to
   LHFONE  =     F    Hartree Fock one center treatment
   AEXX    =    0.0000 exact exchange contribution

 Linear response parameters
   LEPSILON=     F    determine dielectric tensor
   LRPA    =     F    only Hartree local field effects (RPA)
   LNABLA  =     F    use nabla operator in PAW spheres
   LVEL    =     F    velocity operator in full k-point grid
   CSHIFT  =0.1000    complex shift for real part using Kramers Kronig
   OMEGAMAX=  -1.0    maximum frequency
   DEG_THRESHOLD= 0.2000000E-02 threshold for treating states as degnerate
   RTIME   =   -0.100 relaxation time in fs
  (WPLASMAI=    0.000 imaginary part of plasma frequency in eV, 0.658/RTIME)
   DFIELD  = 0.0000000 0.0000000 0.0000000 field for delta impulse in time
 
  Optional k-point grid parameters
   LKPOINTS_OPT  =     F    use optional k-point grid
   KPOINTS_OPT_MODE=     1    mode for optional k-point grid
 
 Orbital magnetization related:
   ORBITALMAG=     F  switch on orbital magnetization
   LCHIMAG   =     F  perturbation theory with respect to B field
   DQ        =  0.001000  dq finite difference perturbation B field
   LLRAUG    =     F  two centre corrections for induced B field
   LBONE     =     F  B-component reconstruction in AE one-centre
   LVGVCALC  =     T  calculate vGv susceptibility
   LVGVAPPL  =     F  apply vGv susceptibility instead of pGv for G=0

 Random number generation:
   RANDOM_GENERATOR = DEFAULT
   PCG_SEED         = not used


--------------------------------------------------------------------------------------------------------


 Static calculation
 charge density and potential will be updated during run
 spin polarized calculation
 Variant of blocked Davidson
 Davidson routine will perform the subspace rotation
 perform sub-space diagonalisation
    after iterative eigenvector-optimisation
 modified Broyden-mixing scheme, WC =      100.0
 initial mixing is a Kerker type mixing with AMIX =  0.4000 and BMIX =      1.0000
 Hartree-type preconditioning will be used
 using additional bands            44
 reciprocal scheme for non local part
 use partial core corrections
 calculate Harris-corrections to forces 
   (improved forces if not selfconsistent)
 use gradient corrections 
 use of overlap-Matrix (Vanderbilt PP)
 Gauss-broadening in eV      SIGMA  =   0.05


--------------------------------------------------------------------------------------------------------


  energy-cutoff  :      520.00
  volume of cell :     1721.54
      direct lattice vectors                 reciprocal lattice vectors
    12.440689441  0.000001242 -0.000001823     0.080381397 -0.000000008  0.000000015
     0.000001248 12.504959017 -0.000000953    -0.000000008  0.079968275  0.000000008
    -0.000002087 -0.000001085 11.066004443     0.000000013  0.000000007  0.090366853

  length of vectors
    12.440689441 12.504959017 11.066004443     0.080381397  0.079968275  0.090366853


 
 k-points in units of 2pi/SCALE and weight: KPOINTS created by Atomic Simulation Env
   0.00000000  0.00000000  0.00000000       0.125
   0.04019070 -0.00000000  0.00000001       0.125
  -0.00000000  0.03998414  0.00000000       0.125
   0.04019069  0.03998413  0.00000001       0.125
   0.00000001  0.00000000  0.04518343       0.125
   0.04019071 -0.00000000  0.04518343       0.125
   0.00000000  0.03998414  0.04518343       0.125
   0.04019070  0.03998414  0.04518344       0.125
 
 k-points in reciprocal lattice and weights: KPOINTS created by Atomic Simulation Env
   0.00000000  0.00000000  0.00000000       0.125
   0.50000000  0.00000000  0.00000000       0.125
   0.00000000  0.50000000  0.00000000       0.125
   0.50000000  0.50000000  0.00000000       0.125
   0.00000000  0.00000000  0.50000000       0.125
   0.50000000  0.00000000  0.50000000       0.125
   0.00000000  0.50000000  0.50000000       0.125
   0.50000000  0.50000000  0.50000000       0.125
 
 position of ions in fractional coordinates (direct lattice) 
   0.07128712  0.05513573  0.12443809
   0.24474010  0.89239880  0.37291035
   0.57477889  0.21262014  0.38367399
   0.55290802  0.53601058  0.35452263
   0.56013433  0.87174430  0.35992998
   0.91437398  0.20486578  0.37140740
   0.87720942  0.55026688  0.34473482
   0.89542102  0.88893352  0.37528799
   0.06323102  0.14616840  0.61758957
   0.05001887  0.48861602  0.63062817
   0.06310409  0.81744879  0.63413538
   0.39862818  0.15496235  0.62383767
   0.41849771  0.48253994  0.64571285
   0.38968477  0.82038711  0.62620830
   0.72626049  0.15918871  0.64305856
   0.73835710  0.47444906  0.62673963
   0.23307657  0.54038172  0.37112178
   0.26276685  0.19556047  0.34959220
   0.72192262  0.83603321  0.63610725
   0.89609043  0.65331394  0.86682694
   0.90432241  0.98447649  0.87284358
   0.06576860  0.36165788  0.13545488
   0.06364109  0.70040855  0.15072047
   0.40666765  0.05979149  0.10533763
   0.39893735  0.37667664  0.12757352
   0.73585113  0.02474070  0.13175006
   0.74496679  0.38961523  0.11505668
   0.38151211  0.69739594  0.14670423
   0.21519170  0.33636533  0.86615903
   0.24105407  0.64593978  0.86903813
   0.23438383  0.97837016  0.87948730
   0.58529673  0.31558259  0.88965134
   0.57367323  0.64922159  0.86794969
   0.54804618  0.00758794  0.86490412
   0.90941280  0.31478288  0.87058467
   0.73903656  0.71926380  0.12016648
   0.90378574  0.01466276  0.63174858
   0.24783083  0.36369951  0.63977227
   0.22830968  0.67993557  0.64118454
   0.57463545  0.00267724  0.63748563
   0.57722678  0.35095856  0.66764170
   0.57132584  0.68329268  0.63848907
   0.90002155  0.35247855  0.63910106
   0.72673571  0.01717859  0.35784753
   0.07045058  0.01358836  0.36120212
   0.08524887  0.33647754  0.36530100
   0.06443664  0.66239012  0.36515399
   0.40846371  0.02475164  0.34141615
   0.40880958  0.34980959  0.35760854
   0.40626267  0.69065928  0.36745174
   0.24875472  0.02704726  0.66401104
   0.90690568  0.69457995  0.63487384
   0.90900390  0.85942750  0.14353751
   0.24292851  0.19070118  0.11553983
   0.90684044  0.19101218  0.14384244
   0.73704408  0.34849613  0.36121371
   0.06617525  0.18968779  0.86822169
   0.07086790  0.51417220  0.85630371
   0.06608593  0.84055200  0.85801702
   0.41783042  0.18006092  0.85040844
   0.41129782  0.52032437  0.85725350
   0.40281697  0.85374471  0.86239900
   0.75726243  0.17680493  0.87194868
   0.72950465  0.52359546  0.84619773
   0.73366755  0.85451401  0.86186124
   0.23605571  0.50778604  0.14032098
   0.23093320  0.83814445  0.14981361
   0.57941688  0.17862766  0.15360338
   0.55771656  0.52506165  0.14132755
   0.57187097  0.85721713  0.13269431
   0.89847010  0.52799541  0.11498498
   0.72452765  0.67996141  0.35811833
 
 position of ions in cartesian coordinates  (Angst):
   0.88686069  0.68946996  1.37703225
   3.04473596 11.15941027  4.12662624
   7.15064511  2.65880640  4.24573687
   6.87855692  6.70279060  3.92314752
   6.96845763 10.90112709  3.98298492
  11.37544222  2.56183888  4.10999407
  10.91308999  6.88106553  3.81483491
  11.13965510 11.11607799  4.15293613
   0.78663644  1.82782931  6.83424872
   0.62226851  6.11012265  6.97853356
   0.78505802 10.22216304  7.01734404
   4.95920823  1.93779769  6.90338960
   5.20639934  6.03414202  7.14546001
   4.84794692 10.25890696  6.92962233
   9.03518004  1.99064846  7.11608739
   9.18567070  5.93296634  6.93550174
   2.89963316  6.75745114  4.10683431
   3.26900027  2.44547560  3.86858812
   8.98121482 10.45456123  7.03916356
  11.14798177  8.16966427  9.59230847
  11.25039362 12.31083828  9.65888836
   0.81820692  4.52251690  1.49894386
   0.79173964  8.75858009  1.66787263
   5.05922585  0.74769055  1.16566589
   4.96305586  4.71032627  1.41172807
   9.15449520  0.30938220  1.45794543
   9.26790073  4.87212324  1.27321599
   4.74627427  8.72090793  1.62342829
   2.67713171  4.20623393  9.58491901
   2.99887784  8.07744986  9.61677877
   2.91589587 12.23447809  9.73240898
   7.28149344  3.94634712  9.84488427
   7.13688947  8.11848913  9.60473341
   6.81807050  0.09488668  9.57103182
  11.31372082  3.93634724  9.63389187
   9.19412498  8.99436512  1.32976074
  11.24371642  0.18335769  6.99093093
   3.08318551  4.54804707  7.07972199
   2.84032938  8.50256603  7.09534988
   7.14885989  0.03347880  7.05441778
   7.18109820  4.38872238  7.38812458
   7.10768685  8.54454703  7.06552116
  11.19688774  4.40773029  7.07229319
   9.04109258  0.21481808  3.95994100
   0.87645309  0.16992162  3.99706416
   1.06055441  4.20763751  4.04242206
   0.80163629  8.28316104  4.04079493
   5.08156954  0.30951835  3.77811181
   5.08587274  4.37435470  3.95729664
   5.05418779  8.63666604  4.06622120
   3.09467889  0.33822442  7.34794860
  11.28253146  8.68569425  7.02551442
  11.30863602 10.74710663  1.58838430
   3.02219817  2.38471063  1.27856365
  11.28172018  2.38860048  1.59175928
   9.16933615  4.35793034  3.99719081
   0.82326410  2.37203720  9.60774478
   0.88164437  6.42970150  9.47586006
   0.82215377 10.51106747  9.49481922
   5.19809690  2.25165407  9.41062260
   5.11682727  6.50663448  9.48636980
   5.01132006 10.67604212  9.54330966
   9.42086513  2.21093841  9.64898639
   9.07553964  6.54753976  9.36402603
   9.12732944 10.68566263  9.53735811
   2.93669608  6.34984371  1.55279170
   2.87296894 10.48096213  1.65783683
   7.20834530  2.23373208  1.69977447
   6.93837893  6.56587501  1.56392979
   7.11446988 10.71946559  1.46839399
  11.17758786  6.60256198  1.27242212
   9.01362364  8.50289003  3.96293702
 


--------------------------------------------------------------------------------------------------------


 k-point   1 :   0.0000 0.0000 0.0000  plane waves:   46317
 k-point   2 :   0.5000 0.0000 0.0000  plane waves:   46382
 k-point   3 :   0.0000 0.5000 0.0000  plane waves:   46338
 k-point   4 :   0.5000 0.5000 0.0000  plane waves:   46468
 k-point   5 :   0.0000 0.0000 0.5000  plane waves:   46346
 k-point   6 :   0.5000 0.0000 0.5000  plane waves:   46332
 k-point   7 :   0.0000 0.5000 0.5000  plane waves:   46376
 k-point   8 :   0.5000 0.5000 0.5000  plane waves:   46352

 maximum and minimum number of plane-waves per node :      5862     5748

 maximum number of plane-waves:     46468
 maximum index in each direction: 
   IXMAX=   23   IYMAX=   23   IZMAX=   20
   IXMIN=  -23   IYMIN=  -23   IZMIN=  -21


 parallel 3D FFT for wavefunctions:
    minimum data exchange during FFTs selected (reduces bandwidth)
 parallel 3D FFT for charge:
    minimum data exchange during FFTs selected (reduces bandwidth)


 total amount of memory used by VASP MPI-rank0   110764. kBytes
=======================================================================

   base      :      30000. kBytes
   nonl-proj :      16355. kBytes
   fftplans  :       6179. kBytes
   grid      :      15593. kBytes
   one-center:        146. kBytes
   wavefun   :      42491. kBytes
 
     INWAV:  cpu time      0.0000: real time      0.0001
 Broyden mixing: mesh for mixing (old mesh)
   NGX = 47   NGY = 47   NGZ = 41
  (NGX  =192   NGY  =192   NGZ  =168)
  gives a total of  90569 points

 initial charge density was supplied:
 charge density of overlapping atoms calculated
 number of electron     360.0000000 magnetization      72.0000000
 keeping initial charge density in first step


--------------------------------------------------------------------------------------------------------


 Maximum index for augmentation-charges           727 (set IRDMAX)


--------------------------------------------------------------------------------------------------------


 First call to EWALD:  gamma=   0.148
 Maximum number of real-space cells 3x 3x 3
 Maximum number of reciprocal cells 3x 3x 3

    FEWALD:  cpu time      0.0058: real time      0.0058


--------------------------------------- Ionic step        1  -------------------------------------------




--------------------------------------- Iteration      1(   1)  ---------------------------------------


    POTLOK:  cpu time      0.1382: real time      0.1391
    SETDIJ:  cpu time      0.5960: real time      0.5977
     EDDAV:  cpu time      8.6673: real time      8.7129
       DOS:  cpu time      0.0016: real time      0.0016
    --------------------------------------------
      LOOP:  cpu time      9.4031: real time      9.4513

 eigenvalue-minimisations  :  7168
 total energy-change (2. order) : 0.1810005E+04  (-0.1418321E+05)
 number of electron     360.0000000 magnetization      72.0000000
 augmentation part      360.0000000 magnetization      72.0000000

 Free energy of the ion-electron system (eV)
  ---------------------------------------------------
  alpha Z        PSCENC =       797.25053032
  Ewald energy   TEWEN  =    -12878.79614208
  -Hartree energ DENC   =     -1099.69777469
  -exchange      EXHF   =         0.00000000
  -V(xc)+E(xc)   XCENC  =      -293.88152430
  PAW double counting   =     10738.42099860    -9719.93139476
  entropy T*S    EENTRO =        -0.02397447
  eigenvalues    EBANDS =      1230.21300230
  atomic energy  EATOM  =     13036.45147835
  Solvation  Ediel_sol  =         0.00000000
  ---------------------------------------------------
  free energy    TOTEN  =      1810.00519927 eV

  energy without entropy =     1810.02917374  energy(sigma->0) =     1810.01718650


--------------------------------------------------------------------------------------------------------




--------------------------------------- Iteration      1(   2)  ---------------------------------------


     EDDAV:  cpu time      9.8395: real time      9.8931
       DOS:  cpu time      0.0015: real time      0.0015
    --------------------------------------------
      LOOP:  cpu time      9.8410: real time      9.8945

 eigenvalue-minimisations  :  8472
 total energy-change (2. order) :-0.1873997E+04  (-0.1800263E+04)
 number of electron     360.0000000 magnetization      72.0000000
 augmentation part      360.0000000 magnetization      72.0000000

 Free energy of the ion-electron system (eV)
  ---------------------------------------------------
  alpha Z        PSCENC =       797.25053032
  Ewald energy   TEWEN  =    -12878.79614208
  -Hartree energ DENC   =     -1099.69777469
  -exchange      EXHF   =         0.00000000
  -V(xc)+E(xc)   XCENC  =      -293.88152430
  PAW double counting   =     10738.42099860    -9719.93139476
  entropy T*S    EENTRO =        -0.01645805
  eigenvalues    EBANDS =      -643.79137091
  atomic energy  EATOM  =     13036.45147835
  Solvation  Ediel_sol  =         0.00000000
  ---------------------------------------------------
  free energy    TOTEN  =       -63.99165752 eV

  energy without entropy =      -63.97519948  energy(sigma->0) =      -63.98342850


--------------------------------------------------------------------------------------------------------




--------------------------------------- Iteration      1(   3)  ---------------------------------------


     EDDAV:  cpu time      9.9850: real time     10.0354
       DOS:  cpu time      0.0018: real time      0.0018
    --------------------------------------------
      LOOP:  cpu time      9.9867: real time     10.0372

 eigenvalue-minimisations  :  8640
 total energy-change (2. order) :-0.2177447E+03  (-0.2118677E+03)
 number of electron     360.0000000 magnetization      72.0000000
 augmentation part      360.0000000 magnetization      72.0000000

 Free energy of the ion-electron system (eV)
  ---------------------------------------------------
  alpha Z        PSCENC =       797.25053032
  Ewald energy   TEWEN  =    -12878.79614208
  -Hartree energ DENC   =     -1099.69777469
  -exchange      EXHF   =         0.00000000
  -V(xc)+E(xc)   XCENC  =      -293.88152430
  PAW double counting   =     10738.42099860    -9719.93139476
  entropy T*S    EENTRO =        -0.00015046
  eigenvalues    EBANDS =      -861.55241557
  atomic energy  EATOM  =     13036.45147835
  Solvation  Ediel_sol  =         0.00000000
  ---------------------------------------------------
  free energy    TOTEN  =      -281.73639459 eV

  energy without entropy =     -281.73624413  energy(sigma->0) =     -281.73631936


--------------------------------------------------------------------------------------------------------




--------------------------------------- Iteration      1(   4)  ---------------------------------------


     EDDAV:  cpu time     10.0360: real time     10.0842
       DOS:  cpu time      0.0015: real time      0.0015
    --------------------------------------------
      LOOP:  cpu time     10.0375: real time     10.0858

 eigenvalue-minimisations  :  8656
 total energy-change (2. order) :-0.7768342E+01  (-0.7678050E+01)
 number of electron     360.0000000 magnetization      72.0000000
 augmentation part      360.0000000 magnetization      72.0000000

 Free energy of the ion-electron system (eV)
  ---------------------------------------------------
  alpha Z        PSCENC =       797.25053032
  Ewald energy   TEWEN  =    -12878.79614208
  -Hartree energ DENC   =     -1099.69777469
  -exchange      EXHF   =         0.00000000
  -V(xc)+E(xc)   XCENC  =      -293.88152430
  PAW double counting   =     10738.42099860    -9719.93139476
  entropy T*S    EENTRO =        -0.00000205
  eigenvalues    EBANDS =      -869.32090626
  atomic energy  EATOM  =     13036.45147835
  Solvation  Ediel_sol  =         0.00000000
  ---------------------------------------------------
  free energy    TOTEN  =      -289.50473687 eV

  energy without entropy =     -289.50473482  energy(sigma->0) =     -289.50473585


--------------------------------------------------------------------------------------------------------




--------------------------------------- Iteration      1(   5)  ---------------------------------------


     EDDAV:  cpu time     10.3581: real time     10.4194
       DOS:  cpu time      0.0012: real time      0.0012
    CHARGE:  cpu time      0.4459: real time      0.4477
    MIXING:  cpu time      0.0067: real time      0.0071
    --------------------------------------------
      LOOP:  cpu time     10.8119: real time     10.8754

 eigenvalue-minimisations  :  9128
 total energy-change (2. order) :-0.2922949E+00  (-0.2915148E+00)
 number of electron     359.9999984 magnetization      48.7788778
 augmentation part      -66.8724519 magnetization      48.9917162

 Broyden mixing:
  rms(total) = 0.29177E+01    rms(broyden)= 0.29177E+01
  rms(prec ) = 0.30770E+01
  weight for this iteration     100.00

 Free energy of the ion-electron system (eV)
  ---------------------------------------------------
  alpha Z        PSCENC =       797.25053032
  Ewald energy   TEWEN  =    -12878.79614208
  -Hartree energ DENC   =     -1099.69777469
  -exchange      EXHF   =         0.00000000
  -V(xc)+E(xc)   XCENC  =      -293.88152430
  PAW double counting   =     10738.42099860    -9719.93139476
  entropy T*S    EENTRO =        -0.00000180
  eigenvalues    EBANDS =      -869.61320142
  atomic energy  EATOM  =     13036.45147835
  Solvation  Ediel_sol  =         0.00000000
  ---------------------------------------------------
  free energy    TOTEN  =      -289.79703178 eV

  energy without entropy =     -289.79702999  energy(sigma->0) =     -289.79703088


--------------------------------------------------------------------------------------------------------




--------------------------------------- Iteration      1(   6)  ---------------------------------------


    POTLOK:  cpu time      0.1340: real time      0.1362
    SETDIJ:  cpu time      0.6019: real time      0.6039
     EDDAV:  cpu time      9.3951: real time      9.4406
       DOS:  cpu time      0.0012: real time      0.0012
    CHARGE:  cpu time      0.4388: real time      0.4404
    MIXING:  cpu time      0.0078: real time      0.0078
    --------------------------------------------
      LOOP:  cpu time     10.5789: real time     10.6302

 eigenvalue-minimisations  :  8048
 total energy-change (2. order) : 0.4140576E+00  (-0.2685560E+01)
 number of electron     359.9999984 magnetization      27.9329735
 augmentation part      -66.2553747 magnetization      29.1130589

 Broyden mixing:
  rms(total) = 0.17277E+01    rms(broyden)= 0.17277E+01
  rms(prec ) = 0.17637E+01
  weight for this iteration     100.00

 eigenvalues of (default mixing * dielectric matrix)
  average eigenvalue GAMMA=   1.0080
  1.0080

 Free energy of the ion-electron system (eV)
  ---------------------------------------------------
  alpha Z        PSCENC =       797.25053032
  Ewald energy   TEWEN  =    -12878.79614208
  -Hartree energ DENC   =     -1153.16869108
  -exchange      EXHF   =         0.00000000
  -V(xc)+E(xc)   XCENC  =      -287.40958395
  PAW double counting   =     13014.21360270   -11999.20987317
  entropy T*S    EENTRO =        -0.00002116
  eigenvalues    EBANDS =      -818.71427407
  atomic energy  EATOM  =     13036.45147835
  Solvation  Ediel_sol  =         0.00000000
  ---------------------------------------------------
  free energy    TOTEN  =      -289.38297414 eV

  energy without entropy =     -289.38295299  energy(sigma->0) =     -289.38296357


--------------------------------------------------------------------------------------------------------




--------------------------------------- Iteration      1(   7)  ---------------------------------------


    POTLOK:  cpu time      0.1299: real time      0.1306
    SETDIJ:  cpu time      0.6027: real time      0.6049
     EDDAV:  cpu time      9.4233: real time      9.4700
       DOS:  cpu time      0.0010: real time      0.0010
    CHARGE:  cpu time      0.4235: real time      0.4255
    MIXING:  cpu time      0.0071: real time      0.0071
    --------------------------------------------
      LOOP:  cpu time     10.5875: real time     10.6391

 eigenvalue-minimisations  :  8064
 total energy-change (2. order) :-0.7258776E+01  (-0.8646091E+00)
 number of electron     359.9999984 magnetization       9.2799784
 augmentation part      -66.2416178 magnetization       9.9561012

 Broyden mixing:
  rms(total) = 0.91066E+00    rms(broyden)= 0.91066E+00
  rms(prec ) = 0.92654E+00
  weight for this iteration     100.00

 eigenvalues of (default mixing * dielectric matrix)
  average eigenvalue GAMMA=   1.4499
  0.8612  2.0387

 Free energy of the ion-electron system (eV)
  ---------------------------------------------------
  alpha Z        PSCENC =       797.25053032
  Ewald energy   TEWEN  =    -12878.79614208
  -Hartree energ DENC   =     -1169.70594507
  -exchange      EXHF   =         0.00000000
  -V(xc)+E(xc)   XCENC  =      -290.40137918
  PAW double counting   =     15090.21839357   -14076.80047180
  entropy T*S    EENTRO =        -0.00000001
  eigenvalues    EBANDS =      -804.85821414
  atomic energy  EATOM  =     13036.45147835
  Solvation  Ediel_sol  =         0.00000000
  ---------------------------------------------------
  free energy    TOTEN  =      -296.64175003 eV

  energy without entropy =     -296.64175002  energy(sigma->0) =     -296.64175002


--------------------------------------------------------------------------------------------------------




--------------------------------------- Iteration      1(   8)  ---------------------------------------


    POTLOK:  cpu time      0.1299: real time      0.1306
    SETDIJ:  cpu time      0.6040: real time      0.6060
     EDDAV:  cpu time      9.4070: real time      9.4536
       DOS:  cpu time      0.0008: real time      0.0008
    CHARGE:  cpu time      0.4268: real time      0.4284
    MIXING:  cpu time      0.0080: real time      0.0081
    --------------------------------------------
      LOOP:  cpu time     10.5765: real time     10.6275

 eigenvalue-minimisations  :  8088
 total energy-change (2. order) :-0.3222815E+01  (-0.1698603E+00)
 number of electron     359.9999984 magnetization       4.3860576
 augmentation part      -66.2547561 magnetization       4.6979072

 Broyden mixing:
  rms(total) = 0.33441E+00    rms(broyden)= 0.33441E+00
  rms(prec ) = 0.33957E+00
  weight for this iteration     100.00

 eigenvalues of (default mixing * dielectric matrix)
  average eigenvalue GAMMA=   1.3567
  2.4966  0.9234  0.6503

 Free energy of the ion-electron system (eV)
  ---------------------------------------------------
  alpha Z        PSCENC =       797.25053032
  Ewald energy   TEWEN  =    -12878.79614208
  -Hartree energ DENC   =     -1173.96596382
  -exchange      EXHF   =         0.00000000
  -V(xc)+E(xc)   XCENC  =      -290.14836370
  PAW double counting   =     16850.37078767   -15837.86734472
  entropy T*S    EENTRO =        -0.00000000
  eigenvalues    EBANDS =      -803.15954725
  atomic energy  EATOM  =     13036.45147835
  Solvation  Ediel_sol  =         0.00000000
  ---------------------------------------------------
  free energy    TOTEN  =      -299.86456523 eV

  energy without entropy =     -299.86456523  energy(sigma->0) =     -299.86456523


--------------------------------------------------------------------------------------------------------




--------------------------------------- Iteration      1(   9)  ---------------------------------------


    POTLOK:  cpu time      0.1296: real time      0.1305
    SETDIJ:  cpu time      0.5995: real time      0.6016
     EDDAV:  cpu time     10.3815: real time     10.4345
       DOS:  cpu time      0.0009: real time      0.0009
    CHARGE:  cpu time      0.4415: real time      0.4437
    MIXING:  cpu time      0.0087: real time      0.0087
    --------------------------------------------
      LOOP:  cpu time     11.5617: real time     11.6199

 eigenvalue-minimisations  :  9112
 total energy-change (2. order) :-0.3895886E+00  (-0.4364868E-01)
 number of electron     359.9999984 magnetization       2.2781012
 augmentation part      -66.2924907 magnetization       2.4321442

 Broyden mixing:
  rms(total) = 0.14814E+00    rms(broyden)= 0.14814E+00
  rms(prec ) = 0.14992E+00
  weight for this iteration     100.00

 eigenvalues of (default mixing * dielectric matrix)
  average eigenvalue GAMMA=   1.3308
  2.6324  1.2401  0.8321  0.6184

 Free energy of the ion-electron system (eV)
  ---------------------------------------------------
  alpha Z        PSCENC =       797.25053032
  Ewald energy   TEWEN  =    -12878.79614208
  -Hartree energ DENC   =     -1172.94989232
  -exchange      EXHF   =         0.00000000
  -V(xc)+E(xc)   XCENC  =      -290.18967298
  PAW double counting   =     17144.19042240   -16132.02771909
  entropy T*S    EENTRO =        -0.00000000
  eigenvalues    EBANDS =      -804.18315847
  atomic energy  EATOM  =     13036.45147835
  Solvation  Ediel_sol  =         0.00000000
  ---------------------------------------------------
  free energy    TOTEN  =      -300.25415386 eV

  energy without entropy =     -300.25415386  energy(sigma->0) =     -300.25415386


--------------------------------------------------------------------------------------------------------




--------------------------------------- Iteration      1(  10)  ---------------------------------------


    POTLOK:  cpu time      0.1300: real time      0.1307
    SETDIJ:  cpu time      0.6025: real time      0.6047
     EDDAV:  cpu time      9.4487: real time      9.4985
       DOS:  cpu time      0.0008: real time      0.0009
    CHARGE:  cpu time      0.4267: real time      0.4286
    MIXING:  cpu time      0.0074: real time      0.0075
    --------------------------------------------
      LOOP:  cpu time     10.6162: real time     10.6709

 eigenvalue-minimisations  :  8040
 total energy-change (2. order) :-0.1069469E+00  (-0.9752088E-02)
 number of electron     359.9999984 magnetization       0.7384093
 augmentation part      -66.2951214 magnetization       0.8070641

 Broyden mixing:
  rms(total) = 0.72614E-01    rms(broyden)= 0.72614E-01
  rms(prec ) = 0.73711E-01
  weight for this iteration     100.00

 eigenvalues of (default mixing * dielectric matrix)
  average eigenvalue GAMMA=   1.3749
  2.7056  1.7458  0.9740  0.8237  0.6252

 Free energy of the ion-electron system (eV)
  ---------------------------------------------------
  alpha Z        PSCENC =       797.25053032
  Ewald energy   TEWEN  =    -12878.79614208
  -Hartree energ DENC   =     -1173.09750071
  -exchange      EXHF   =         0.00000000
  -V(xc)+E(xc)   XCENC  =      -290.18853174
  PAW double counting   =     17155.00570586   -16142.85453049
  entropy T*S    EENTRO =        -0.00000000
  eigenvalues    EBANDS =      -804.13211031
  atomic energy  EATOM  =     13036.45147835
  Solvation  Ediel_sol  =         0.00000000
  ---------------------------------------------------
  free energy    TOTEN  =      -300.36110080 eV

  energy without entropy =     -300.36110080  energy(sigma->0) =     -300.36110080


--------------------------------------------------------------------------------------------------------




--------------------------------------- Iteration      1(  11)  ---------------------------------------


    POTLOK:  cpu time      0.1308: real time      0.1314
    SETDIJ:  cpu time      0.5987: real time      0.6005
     EDDAV:  cpu time     10.3831: real time     10.4360
       DOS:  cpu time      0.0011: real time      0.0011
    CHARGE:  cpu time      0.4244: real time      0.4260
    MIXING:  cpu time      0.0077: real time      0.0077
    --------------------------------------------
      LOOP:  cpu time     11.5457: real time     11.6028

 eigenvalue-minimisations  :  9088
 total energy-change (2. order) :-0.3104729E-01  (-0.3646915E-02)
 number of electron     359.9999984 magnetization       0.1946296
 augmentation part      -66.2816225 magnetization       0.2135602

 Broyden mixing:
  rms(total) = 0.28644E-01    rms(broyden)= 0.28644E-01
  rms(prec ) = 0.29242E-01
  weight for this iteration     100.00

 eigenvalues of (default mixing * dielectric matrix)
  average eigenvalue GAMMA=   1.4048
  2.9045  2.1692  1.1773  0.8564  0.6979  0.6237

 Free energy of the ion-electron system (eV)
  ---------------------------------------------------
  alpha Z        PSCENC =       797.25053032
  Ewald energy   TEWEN  =    -12878.79614208
  -Hartree energ DENC   =     -1174.16569476
  -exchange      EXHF   =         0.00000000
  -V(xc)+E(xc)   XCENC  =      -290.14979415
  PAW double counting   =     17079.57138232   -16067.39314356
  entropy T*S    EENTRO =        -0.00000000
  eigenvalues    EBANDS =      -803.16076453
  atomic energy  EATOM  =     13036.45147835
  Solvation  Ediel_sol  =         0.00000000
  ---------------------------------------------------
  free energy    TOTEN  =      -300.39214809 eV

  energy without entropy =     -300.39214809  energy(sigma->0) =     -300.39214809


--------------------------------------------------------------------------------------------------------




--------------------------------------- Iteration      1(  12)  ---------------------------------------


    POTLOK:  cpu time      0.1288: real time      0.1307
    SETDIJ:  cpu time      0.6005: real time      0.6025
     EDDAV:  cpu time      9.8126: real time      9.8665
       DOS:  cpu time      0.0010: real time      0.0010
    CHARGE:  cpu time      0.4431: real time      0.4450
    MIXING:  cpu time      0.0085: real time      0.0085
    --------------------------------------------
      LOOP:  cpu time     10.9946: real time     11.0542

 eigenvalue-minimisations  :  8360
 total energy-change (2. order) :-0.3255765E-02  (-0.4416198E-03)
 number of electron     359.9999984 magnetization       0.0602777
 augmentation part      -66.2806709 magnetization       0.0654731

 Broyden mixing:
  rms(total) = 0.11038E-01    rms(broyden)= 0.11038E-01
  rms(prec ) = 0.11696E-01
  weight for this iteration     100.00

 eigenvalues of (default mixing * dielectric matrix)
  average eigenvalue GAMMA=   1.3669
  3.0028  2.3370  1.2018  0.8815  0.8815  0.6089  0.6547

 Free energy of the ion-electron system (eV)
  ---------------------------------------------------
  alpha Z        PSCENC =       797.25053032
  Ewald energy   TEWEN  =    -12878.79614208
  -Hartree energ DENC   =     -1174.26316942
  -exchange      EXHF   =         0.00000000
  -V(xc)+E(xc)   XCENC  =      -290.15373335
  PAW double counting   =     17043.14549185   -16030.94452603
  entropy T*S    EENTRO =        -0.00000000
  eigenvalues    EBANDS =      -803.08533348
  atomic energy  EATOM  =     13036.45147835
  Solvation  Ediel_sol  =         0.00000000
  ---------------------------------------------------
  free energy    TOTEN  =      -300.39540385 eV

  energy without entropy =     -300.39540385  energy(sigma->0) =     -300.39540385


--------------------------------------------------------------------------------------------------------




--------------------------------------- Iteration      1(  13)  ---------------------------------------


    POTLOK:  cpu time      0.1290: real time      0.1300
    SETDIJ:  cpu time      0.6001: real time      0.6022
     EDDAV:  cpu time     10.9550: real time     11.0162
       DOS:  cpu time      0.0008: real time      0.0008
    CHARGE:  cpu time      0.4240: real time      0.4260
    MIXING:  cpu time      0.0077: real time      0.0078
    --------------------------------------------
      LOOP:  cpu time     12.1166: real time     12.1830

 eigenvalue-minimisations  :  9752
 total energy-change (2. order) :-0.1479522E-03  (-0.7486185E-04)
 number of electron     359.9999984 magnetization       0.0161497
 augmentation part      -66.2818841 magnetization       0.0169331

 Broyden mixing:
  rms(total) = 0.43761E-02    rms(broyden)= 0.43761E-02
  rms(prec ) = 0.46021E-02
  weight for this iteration     100.00

 eigenvalues of (default mixing * dielectric matrix)
  average eigenvalue GAMMA=   1.3439
  3.0540  2.4332  1.0931  1.0261  1.0261  0.8601  0.6489  0.6096

 Free energy of the ion-electron system (eV)
  ---------------------------------------------------
  alpha Z        PSCENC =       797.25053032
  Ewald energy   TEWEN  =    -12878.79614208
  -Hartree energ DENC   =     -1174.17511744
  -exchange      EXHF   =         0.00000000
  -V(xc)+E(xc)   XCENC  =      -290.16367278
  PAW double counting   =     17028.64098439   -16016.42866972
  entropy T*S    EENTRO =        -0.00000000
  eigenvalues    EBANDS =      -803.17494284
  atomic energy  EATOM  =     13036.45147835
  Solvation  Ediel_sol  =         0.00000000
  ---------------------------------------------------
  free energy    TOTEN  =      -300.39555181 eV

  energy without entropy =     -300.39555181  energy(sigma->0) =     -300.39555181


--------------------------------------------------------------------------------------------------------




--------------------------------------- Iteration      1(  14)  ---------------------------------------


    POTLOK:  cpu time      0.1285: real time      0.1292
    SETDIJ:  cpu time      0.5992: real time      0.6012
     EDDAV:  cpu time      9.6541: real time      9.7035
       DOS:  cpu time      0.0008: real time      0.0008
    CHARGE:  cpu time      0.4321: real time      0.4338
    MIXING:  cpu time      0.0082: real time      0.0083
    --------------------------------------------
      LOOP:  cpu time     10.8229: real time     10.8768

 eigenvalue-minimisations  :  8280
 total energy-change (2. order) :-0.1799150E-04  (-0.9623066E-05)
 number of electron     359.9999984 magnetization       0.0058985
 augmentation part      -66.2815724 magnetization       0.0062094

 Broyden mixing:
  rms(total) = 0.18109E-02    rms(broyden)= 0.18109E-02
  rms(prec ) = 0.19247E-02
  weight for this iteration     100.00

 eigenvalues of (default mixing * dielectric matrix)
  average eigenvalue GAMMA=   1.3266
  3.0770  2.4644  1.4130  1.1948  0.8801  0.8801  0.7738  0.6143  0.6420

 Free energy of the ion-electron system (eV)
  ---------------------------------------------------
  alpha Z        PSCENC =       797.25053032
  Ewald energy   TEWEN  =    -12878.79614208
  -Hartree energ DENC   =     -1174.18298347
  -exchange      EXHF   =         0.00000000
  -V(xc)+E(xc)   XCENC  =      -290.16376100
  PAW double counting   =     17024.62466376   -16012.40983969
  entropy T*S    EENTRO =        -0.00000000
  eigenvalues    EBANDS =      -803.16951598
  atomic energy  EATOM  =     13036.45147835
  Solvation  Ediel_sol  =         0.00000000
  ---------------------------------------------------
  free energy    TOTEN  =      -300.39556980 eV

  energy without entropy =     -300.39556980  energy(sigma->0) =     -300.39556980


--------------------------------------------------------------------------------------------------------




--------------------------------------- Iteration      1(  15)  ---------------------------------------


    POTLOK:  cpu time      0.1285: real time      0.1294
    SETDIJ:  cpu time      0.5994: real time      0.6014
     EDDAV:  cpu time     10.1634: real time     10.2153
       DOS:  cpu time      0.0034: real time      0.0034
    CHARGE:  cpu time      0.4253: real time      0.4273
    MIXING:  cpu time      0.0081: real time      0.0081
    --------------------------------------------
      LOOP:  cpu time     11.3282: real time     11.3850

 eigenvalue-minimisations  :  8776
 total energy-change (2. order) :-0.2542767E-05  (-0.1764847E-05)
 number of electron     359.9999984 magnetization       0.0019472
 augmentation part      -66.2817339 magnetization       0.0021745

 Broyden mixing:
  rms(total) = 0.84802E-03    rms(broyden)= 0.84802E-03
  rms(prec ) = 0.89472E-03
  weight for this iteration     100.00

 eigenvalues of (default mixing * dielectric matrix)
  average eigenvalue GAMMA=   1.2980
  3.0880  2.4407  1.6610  1.1159  0.9530  0.9530  0.8338  0.6969  0.6188  0.6188

 Free energy of the ion-electron system (eV)
  ---------------------------------------------------
  alpha Z        PSCENC =       797.25053032
  Ewald energy   TEWEN  =    -12878.79614208
  -Hartree energ DENC   =     -1174.16701966
  -exchange      EXHF   =         0.00000000
  -V(xc)+E(xc)   XCENC  =      -290.16442809
  PAW double counting   =     17023.98778112   -16011.77203881
  entropy T*S    EENTRO =        -0.00000000
  eigenvalues    EBANDS =      -803.18573349
  atomic energy  EATOM  =     13036.45147835
  Solvation  Ediel_sol  =         0.00000000
  ---------------------------------------------------
  free energy    TOTEN  =      -300.39557234 eV

  energy without entropy =     -300.39557234  energy(sigma->0) =     -300.39557234


--------------------------------------------------------------------------------------------------------




--------------------------------------- Iteration      1(  16)  ---------------------------------------


    POTLOK:  cpu time      0.1290: real time      0.1297
    SETDIJ:  cpu time      0.6015: real time      0.6039
     EDDAV:  cpu time      6.6611: real time      6.6964
       DOS:  cpu time      0.0009: real time      0.0009
    --------------------------------------------
      LOOP:  cpu time      7.3925: real time      7.4308

 eigenvalue-minimisations  :  4832
 total energy-change (2. order) :-0.6730095E-06  (-0.1606228E-06)
 number of electron     359.9999984 magnetization       0.0019472
 augmentation part      -66.2817339 magnetization       0.0021745

 Free energy of the ion-electron system (eV)
  ---------------------------------------------------
  alpha Z        PSCENC =       797.25053032
  Ewald energy   TEWEN  =    -12878.79614208
  -Hartree energ DENC   =     -1174.15858982
  -exchange      EXHF   =         0.00000000
  -V(xc)+E(xc)   XCENC  =      -290.16482557
  PAW double counting   =     17023.90190207   -16011.68582440
  entropy T*S    EENTRO =        -0.00000000
  eigenvalues    EBANDS =      -803.19410188
  atomic energy  EATOM  =     13036.45147835
  Solvation  Ediel_sol  =         0.00000000
  ---------------------------------------------------
  free energy    TOTEN  =      -300.39557301 eV

  energy without entropy =     -300.39557301  energy(sigma->0) =     -300.39557301


--------------------------------------------------------------------------------------------------------




 average (electrostatic) potential at core
  the test charge radii are     1.1631  1.0808
  (the norm of the test charge is              1.0000)
       1 -33.6630       2 -33.4532       3 -33.4319       4 -33.2493       5 -33.4742
       6 -33.5016       7 -33.3280       8 -33.4844       9 -33.7741      10 -33.4725
      11 -33.1115      12 -33.5706      13 -33.2276      14 -33.5094      15 -33.6284
      16 -33.2995      17 -33.5936      18 -33.5494      19 -33.3343      20 -33.5403
      21 -33.5251      22 -33.6798      23 -33.3748      24 -33.5659      25 -33.4533
      26 -33.4893      27 -33.7088      28 -33.4117      29 -33.5558      30 -33.4797
      31 -33.3876      32 -33.5707      33 -33.2482      34 -33.4130      35 -33.3744
      36 -33.5399      37 -54.8213      38 -54.6472      39 -54.7277      40 -54.9160
      41 -55.0314      42 -54.5996      43 -55.0542      44 -54.8031      45 -54.8985
      46 -54.6833      47 -54.7886      48 -54.9855      49 -54.9120      50 -54.9119
      51 -54.9471      52 -54.6716      53 -54.8262      54 -55.0736      55 -54.8982
      56 -54.6672      57 -54.9521      58 -54.9569      59 -54.7697      60 -54.8689
      61 -54.9470      62 -54.7910      63 -54.9959      64 -54.9178      65 -54.6171
      66 -54.9082      67 -54.7522      68 -54.6872      69 -54.7822      70 -54.6504
      71 -54.9779      72 -54.7051
 
 
 
 E-fermi :   3.5382     XC(G=0):  -9.3803     alpha+bet : -8.8249

 Fermi energy:         3.5381542874

 spin component 1

 k-point     1 :       0.0000    0.0000    0.0000
  band No.  band energies     occupation 
      1     -10.9129      1.00000
      2     -10.5806      1.00000
      3     -10.4268      1.00000
      4     -10.3595      1.00000
      5     -10.2990      1.00000
      6     -10.2256      1.00000
      7     -10.0939      1.00000
      8     -10.0407      1.00000
      9      -9.9746      1.00000
     10      -9.9713      1.00000
     11      -9.9093      1.00000
     12      -9.8683      1.00000
     13      -9.8132      1.00000
     14      -9.7494      1.00000
     15      -9.6774      1.00000
     16      -9.6433      1.00000
     17      -9.6150      1.00000
     18      -9.5802      1.00000
     19      -9.5160      1.00000
     20      -9.4671      1.00000
     21      -9.4483      1.00000
     22      -9.4002      1.00000
     23      -9.3779      1.00000
     24      -9.3390      1.00000
     25      -9.2747      1.00000
     26      -9.2372      1.00000
     27      -9.2128      1.00000
     28      -9.2080      1.00000
     29      -9.1382      1.00000
     30      -9.1010      1.00000
     31      -9.0788      1.00000
     32      -9.0452      1.00000
     33      -9.0215      1.00000
     34      -9.0090      1.00000
     35      -8.9261      1.00000
     36      -8.8619      1.00000
     37      -5.3707      1.00000
     38      -5.3118      1.00000
     39      -5.3061      1.00000
     40      -5.2722      1.00000
     41      -5.0786      1.00000
     42      -5.0522      1.00000
     43      -5.0013      1.00000
     44      -4.9271      1.00000
     45      -4.7719      1.00000
     46      -4.7436      1.00000
     47      -4.5503      1.00000
     48      -4.4750      1.00000
     49      -4.4608      1.00000
     50      -4.4350      1.00000
     51      -4.3969      1.00000
     52      -4.3725      1.00000
     53      -4.3556      1.00000
     54      -4.3436      1.00000
     55      -4.3086      1.00000
     56      -4.2880      1.00000
     57      -4.2549      1.00000
     58      -4.2364      1.00000
     59      -4.1516      1.00000
     60      -4.1445      1.00000
     61      -4.0959      1.00000
     62      -4.0620      1.00000
     63      -3.9823      1.00000
     64      -3.9280      1.00000
     65      -3.9137      1.00000
     66      -3.8313      1.00000
     67      -3.7560      1.00000
     68      -3.7025      1.00000
     69      -3.5618      1.00000
     70      -3.4343      1.00000
     71      -2.5306      1.00000
     72      -2.3409      1.00000
     73      -1.8214      1.00000
     74      -1.6201      1.00000
     75      -1.5704      1.00000
     76      -1.5314      1.00000
     77      -1.4712      1.00000
     78      -1.4072      1.00000
     79      -1.3654      1.00000
     80      -1.2881      1.00000
     81      -1.2387      1.00000
     82      -1.1515      1.00000
     83      -1.1045      1.00000
     84      -1.0434      1.00000
     85      -1.0082      1.00000
     86      -0.8496      1.00000
     87      -0.8069      1.00000
     88      -0.7386      1.00000
     89      -0.7094      1.00000
     90      -0.6038      1.00000
     91      -0.5531      1.00000
     92      -0.5227      1.00000
     93      -0.4766      1.00000
     94      -0.4057      1.00000
     95      -0.1482      1.00000
     96      -0.0962      1.00000
     97      -0.0481      1.00000
     98      -0.0247      1.00000
     99       0.0468      1.00000
    100       0.0783      1.00000
    101       0.1285      1.00000
    102       0.1521      1.00000
    103       0.2014      1.00000
    104       0.2350      1.00000
    105       0.2466      1.00000
    106       0.2938      1.00000
    107       0.3133      1.00000
    108       0.3605      1.00000
    109       0.3954      1.00000
    110       0.4377      1.00000
    111       0.5091      1.00000
    112       0.5144      1.00000
    113       0.5625      1.00000
    114       0.5840      1.00000
    115       0.6136      1.00000
    116       0.6235      1.00000
    117       0.6898      1.00000
    118       0.7108      1.00000
    119       0.7401      1.00000
    120       0.7851      1.00000
    121       0.8018      1.00000
    122       0.8380      1.00000
    123       0.8850      1.00000
    124       0.9570      1.00000
    125       0.9928      1.00000
    126       1.0088      1.00000
    127       1.0269      1.00000
    128       1.0969      1.00000
    129       1.1395      1.00000
    130       1.1572      1.00000
    131       1.1727      1.00000
    132       1.1781      1.00000
    133       1.2439      1.00000
    134       1.2756      1.00000
    135       1.3466      1.00000
    136       1.3836      1.00000
    137       1.4541      1.00000
    138       1.4819      1.00000
    139       1.4997      1.00000
    140       1.5645      1.00000
    141       1.5841      1.00000
    142       1.6457      1.00000
    143       1.6676      1.00000
    144       1.7226      1.00000
    145       1.7712      1.00000
    146       1.7816      1.00000
    147       1.8272      1.00000
    148       1.8527      1.00000
    149       1.8614      1.00000
    150       1.8833      1.00000
[...]
   0.233E+01 -.168E+02 -.165E+02   -.273E+01 0.198E+02 0.193E+02   0.179E+00 -.250E+01 -.271E+01   -.391E-03 -.181E-03 -.323E-03
   -.782E+00 0.833E+01 0.163E+02   0.721E+00 -.101E+02 -.185E+02   -.127E+00 0.213E+01 0.264E+01   -.387E-04 -.190E-03 0.182E-03
   -.165E+01 0.499E+01 0.210E+02   0.131E+01 -.580E+01 -.224E+02   0.285E+00 0.102E+01 0.193E+01   0.349E-03 -.132E-03 0.468E-04
   0.960E+01 0.147E+02 0.330E+02   -.100E+02 -.156E+02 -.350E+02   0.839E-01 0.273E+00 0.209E+01   0.418E-03 0.335E-04 -.290E-03
   -.239E+01 0.517E+01 0.305E+02   0.237E+01 -.630E+01 -.323E+02   0.463E+00 0.122E+01 0.188E+01   -.266E-04 0.572E-03 -.157E-03
   0.667E+01 0.267E+01 0.326E+02   -.700E+01 -.282E+01 -.344E+02   0.244E+00 0.871E+00 0.178E+01   -.287E-03 0.258E-03 0.210E-03
   0.649E+01 0.140E+02 0.371E+02   -.676E+01 -.153E+02 -.387E+02   0.410E+00 0.734E+00 0.100E+01   0.994E-04 0.137E-03 -.405E-03
   0.181E+01 0.473E+01 0.313E+02   -.191E+01 -.559E+01 -.334E+02   -.156E+00 0.132E+01 0.213E+01   -.112E-03 -.437E-03 0.686E-04
   -.778E+01 0.152E+02 0.346E+02   0.804E+01 -.167E+02 -.364E+02   -.107E+00 0.665E+00 0.200E+01   -.396E-03 -.355E-04 -.225E-03
   -.528E+01 -.958E+01 -.327E+02   0.503E+01 0.105E+02 0.344E+02   0.626E+00 -.105E+01 -.150E+01   0.645E-04 0.130E-03 0.888E-05
   -.850E+01 -.523E+00 -.243E+02   0.846E+01 0.124E+01 0.257E+02   0.174E+00 -.244E+00 -.158E+01   0.313E-03 -.419E-04 0.366E-03
   0.287E+01 -.121E+02 -.338E+02   -.251E+01 0.128E+02 0.355E+02   -.495E+00 -.613E+00 -.210E+01   -.299E-03 -.323E-03 0.220E-03
   0.365E+01 -.117E+02 -.325E+02   -.397E+01 0.130E+02 0.350E+02   0.265E+00 -.833E+00 -.186E+01   -.263E-03 0.312E-03 0.269E-03
   0.478E+01 0.179E+01 -.286E+02   -.446E+01 -.126E+01 0.298E+02   -.597E+00 -.824E+00 -.129E+01   -.456E-03 0.152E-03 0.114E-03
   0.245E+01 -.898E+01 -.353E+02   -.265E+01 0.977E+01 0.373E+02   0.132E+00 -.102E+01 -.200E+01   0.525E-03 -.833E-04 0.111E-03
   0.821E+01 -.781E+01 -.343E+02   -.846E+01 0.821E+01 0.365E+02   0.136E-01 -.650E+00 -.187E+01   0.145E-03 -.159E-03 0.268E-03
   0.175E+02 0.743E+01 0.343E+02   -.181E+02 -.867E+01 -.363E+02   -.191E+00 0.947E+00 0.934E+00   -.411E-04 -.539E-03 -.527E-04
   0.130E+02 0.109E+02 0.331E+02   -.142E+02 -.118E+02 -.349E+02   0.705E+00 -.526E-01 0.210E+01   0.177E-03 0.242E-03 -.282E-03
   -.119E+02 0.160E+00 0.192E+02   0.123E+02 0.332E+00 -.208E+02   -.624E+00 -.969E+00 0.168E+01   0.606E-04 -.810E-04 0.938E-04
   0.493E+01 -.139E+01 0.197E+02   -.515E+01 0.218E+01 -.215E+02   0.656E-01 -.758E+00 0.237E+01   0.428E-03 -.274E-03 0.229E-03
   0.122E+02 -.319E+01 0.141E+02   -.130E+02 0.334E+01 -.156E+02   0.986E+00 -.411E+00 0.154E+01   -.165E-03 0.231E-03 0.174E-03
   -.744E+01 -.907E+01 -.179E+02   0.795E+01 0.979E+01 0.194E+02   -.279E+00 -.748E+00 -.188E+01   -.526E-04 0.445E-03 0.261E-03
   -.111E+02 0.232E+02 -.222E+01   0.117E+02 -.247E+02 0.322E+01   -.240E+00 0.112E+01 -.180E+01   -.216E-03 -.179E-03 -.127E-03
   0.170E+01 -.330E+01 -.257E+02   -.210E+01 0.309E+01 0.277E+02   0.495E+00 0.706E-01 -.176E+01   -.210E-03 -.249E-04 -.251E-03
   -.623E+01 0.494E+01 -.313E+02   0.626E+01 -.584E+01 0.334E+02   0.239E+00 0.128E+01 -.168E+01   0.339E-03 0.224E-03 -.582E-03
   0.170E+02 -.127E+02 -.199E+02   -.180E+02 0.130E+02 0.214E+02   0.107E+01 0.808E-01 -.127E+01   0.295E-03 -.209E-03 0.902E-04
   0.891E+01 0.600E+01 -.329E+02   -.900E+01 -.727E+01 0.354E+02   -.113E+00 0.105E+01 -.137E+01   0.467E-03 0.176E-04 -.444E-03
   0.130E+01 0.232E+02 -.255E+02   -.105E+01 -.246E+02 0.272E+02   -.451E+00 0.127E+01 -.203E+01   -.228E-03 0.245E-03 0.952E-04
   0.558E+01 0.132E+02 -.225E+02   -.579E+01 -.144E+02 0.243E+02   -.539E+00 0.119E+01 -.208E+01   -.153E-03 0.388E-03 -.189E-04
   -.907E+01 0.582E+01 -.252E+02   0.949E+01 -.716E+01 0.269E+02   0.250E+00 0.922E+00 -.120E+01   -.245E-03 -.311E-03 -.224E-03
   0.194E+01 0.708E+01 -.248E+02   -.267E+01 -.737E+01 0.267E+02   0.114E+01 0.338E+00 -.171E+01   -.153E-03 -.318E-04 -.114E-03
   0.113E+02 -.110E+02 0.228E+02   -.119E+02 0.115E+02 -.247E+02   0.608E+00 -.253E+00 0.189E+01   0.380E-03 -.107E-03 0.106E-03
   0.633E+01 -.133E+02 0.258E+02   -.657E+01 0.144E+02 -.276E+02   0.613E-01 -.883E+00 0.186E+01   0.191E-03 0.321E-03 -.823E-05
   -.756E+01 -.173E+02 0.229E+02   0.806E+01 0.185E+02 -.243E+02   -.736E+00 -.125E+01 0.115E+01   -.224E-03 0.400E-03 -.727E-04
   -.109E+02 -.514E+01 0.314E+02   0.111E+02 0.599E+01 -.339E+02   0.136E+00 -.128E+01 0.108E+01   0.166E-03 -.371E-03 0.442E-03
   0.141E+02 0.711E+01 0.284E+02   -.150E+02 -.703E+01 -.304E+02   0.985E+00 -.370E+00 0.207E+01   -.224E-03 -.398E-04 -.156E-03
   -.108E+02 -.353E+01 0.134E+02   0.114E+02 0.382E+01 -.152E+02   -.521E+00 -.698E+00 0.218E+01   -.488E-03 -.269E-03 0.420E-03
   -.204E+01 -.104E+02 -.289E+02   0.171E+01 0.113E+02 0.306E+02   0.227E+00 -.532E+00 -.218E+01   0.344E-04 -.654E-03 0.182E-03
 -----------------------------------------------------------------------------------------------
   0.575E+01 0.111E+01 0.400E+00   -.338E-13 0.000E+00 0.497E-13   -.575E+01 -.111E+01 -.400E+00   -.845E-05 -.702E-03 0.355E-03
 
 
 POSITION                                       TOTAL-FORCE (eV/Angst)
 -----------------------------------------------------------------------------------
      0.88686      0.68947      1.37703        -0.110701     -0.054776      0.201981
      3.04474     11.15941      4.12663        -0.038191     -0.319333      0.004442
      7.15065      2.65881      4.24574         0.146295      0.185846     -0.326539
      6.87856      6.70279      3.92315         0.441416      0.232324      1.301413
      6.96846     10.90113      3.98298         0.252207      0.067111     -0.190359
     11.37544      2.56184      4.10999        -0.174969      0.343451     -0.017063
     10.91309      6.88107      3.81483         0.313613     -0.587172      0.351447
     11.13966     11.11608      4.15294        -0.053296     -0.240645     -0.041636
      0.78664      1.82783      6.83425         0.147936     -0.023888      0.460676
      0.62227      6.11012      6.97853         0.535438      0.533972     -0.256841
      0.78506     10.22216      7.01734         0.398153      0.342997     -0.376714
      4.95921      1.93780      6.90339         0.261829      0.292492      0.077682
      5.20640      6.03414      7.14546        -0.293663      0.361096     -1.214671
      4.84795     10.25891      6.92962         0.175996     -0.301043      0.338514
      9.03518      1.99065      7.11609         0.232555     -0.438092     -0.058200
      9.18567      5.93297      6.93550        -0.327901      0.793384     -0.667623
      2.89963      6.75745      4.10683        -0.025870     -0.145232     -0.006028
      3.26900      2.44548      3.86859        -0.473532      0.482621     -0.031264
      8.98121     10.45456      7.03916        -0.008419     -0.421876      0.036350
     11.14798      8.16966      9.59231        -0.110890      0.371212     -0.323238
     11.25039     12.31084      9.65889        -0.159981     -0.359979     -0.469845
      0.81821      4.52252      1.49894        -0.014662      0.226052      0.400145
      0.79174      8.75858      1.66787         0.139940      0.429970     -0.736052
      5.05923      0.74769      1.16567         0.443309     -0.210389      0.321598
      4.96306      4.71033      1.41173         0.295036      0.049715     -0.002068
      9.15450      0.30938      1.45795        -0.441396      0.212824      0.037330
      9.26790      4.87212      1.27322        -0.478741     -0.056717      0.549010
      4.74627      8.72091      1.62343         0.205409      0.148887     -0.556668
      2.67713      4.20623      9.58492         0.141894      0.064817     -0.236390
      2.99888      8.07745      9.61678        -0.201882      0.281550     -0.148935
      2.91590     12.23448      9.73241        -0.091292     -0.199977      0.677341
      7.28149      3.94635      9.84488        -0.112683     -0.344338      0.387305
      7.13689      8.11849      9.60473        -0.176789      0.845981     -0.123161
      6.81807      0.09489      9.57103         0.174779     -0.412494      0.088733
     11.31372      3.93635      9.63389        -0.222197      0.567532      0.079623
      9.19412      8.99437      1.32976        -0.188640      0.334403      0.446955
     11.24372      0.18336      6.99093        -0.052363      0.222828      0.523097
      3.08319      4.54805      7.07972        -0.334507     -0.575082      0.136471
      2.84033      8.50257      7.09535         0.444819      0.090294      0.099814
      7.14886      0.03348      7.05442        -0.079630      0.719223     -0.060143
      7.18110      4.38872      7.38812         0.141034     -0.643006     -0.597622
      7.10769      8.54455      7.06552        -0.255073      0.463017      0.062246
     11.19689      4.40773      7.07229         0.152952     -0.847869      0.236370
      9.04109      0.21482      3.95994         0.374557     -0.099460      0.238252
      0.87645      0.16992      3.99706         0.132738      0.470598     -0.205120
      1.06055      4.20764      4.04242        -0.135785      0.138751     -0.381225
      0.80164      8.28316      4.04079        -0.057098      0.378948      0.567766
      5.08157      0.30952      3.77811        -0.275640     -0.290073     -0.094253
      5.08587      4.37435      3.95730        -0.072121     -0.237009      0.032990
      5.05419      8.63667      4.06622        -0.240923     -0.250044      0.271905
      3.09468      0.33822      7.34795        -0.779268     -0.296861     -0.991739
     11.28253      8.68569      7.02551        -0.404294     -0.898541      0.273361
     11.30864     10.74711      1.58838        -0.160012     -0.477331      0.087731
      3.02220      2.38471      1.27856        -0.156331      0.029843      0.556293
     11.28172      2.38860      1.59176         0.112371     -0.260280      0.023974
      9.16934      4.35793      3.99719         0.227824     -0.026163     -0.464684
      0.82326      2.37204      9.60774         0.294604     -0.351833     -0.795011
      0.88164      6.42970      9.47586         0.096057     -0.138497      0.242032
      0.82215     10.51107      9.49482         0.273222      0.369074      0.385258
      5.19810      2.25165      9.41062         0.078678      0.431780      0.219459
      5.11683      6.50663      9.48637        -0.207012     -0.219708      1.135235
      5.01132     10.67604      9.54331        -0.196642     -0.119643     -0.337384
      9.42087      2.21094      9.64899        -0.748328     -0.065539     -0.262912
      9.07554      6.54754      9.36403         0.665524     -0.423643      0.587532
      9.12733     10.68566      9.53736         0.411555      0.052188      0.163075
      2.93670      6.34984      1.55279        -0.017681      0.263637      0.008433
      2.87297     10.48096      1.65784        -0.179418      0.221071      0.098779
      7.20835      2.23373      1.69977        -0.226871     -0.000328     -0.298599
      6.93838      6.56588      1.56393         0.377945     -0.423150     -1.358727
      7.11447     10.71947      1.46839         0.165009     -0.289857      0.049462
     11.17759      6.60256      1.27242         0.129913     -0.413762      0.378902
      9.01362      8.50289      3.96294        -0.099912      0.444140     -0.508270
 -----------------------------------------------------------------------------------
    total drift:                               -0.000442     -0.000592      0.000151


--------------------------------------------------------------------------------------------------------



  FREE ENERGIE OF THE ION-ELECTRON SYSTEM (eV)
  ---------------------------------------------------
  free  energy   TOTEN  =      -300.39557301 eV

  energy  without entropy=     -300.39557301  energy(sigma->0) =     -300.39557301
 


--------------------------------------------------------------------------------------------------------


    POTLOK:  cpu time      0.7375: real time      0.7403


--------------------------------------------------------------------------------------------------------


     LOOP+:  cpu time    182.4825: real time    183.4206
    4ORBIT:  cpu time      0.0000: real time      0.0000



 total charge

# of ion       s       p       d       tot
------------------------------------------
    1        1.335   0.717   0.048   2.100
    2        1.319   0.768   0.052   2.140
    3        1.319   0.759   0.054   2.132
    4        1.318   0.811   0.067   2.195
    5        1.324   0.755   0.056   2.134
    6        1.325   0.742   0.052   2.119
    7        1.323   0.785   0.057   2.165
    8        1.332   0.737   0.052   2.121
    9        1.339   0.695   0.044   2.078
   10        1.332   0.757   0.056   2.145
   11        1.306   0.831   0.065   2.202
   12        1.319   0.770   0.057   2.146
   13        1.309   0.843   0.070   2.223
   14        1.329   0.719   0.046   2.094
   15        1.333   0.727   0.048   2.108
   16        1.321   0.812   0.065   2.198
   17        1.339   0.721   0.052   2.112
   18        1.330   0.746   0.054   2.130
   19        1.322   0.763   0.057   2.141
   20        1.336   0.723   0.052   2.110
   21        1.328   0.727   0.049   2.105
   22        1.334   0.711   0.049   2.095
   23        1.319   0.787   0.060   2.167
   24        1.322   0.751   0.054   2.127
   25        1.326   0.758   0.057   2.141
   26        1.334   0.728   0.056   2.117
   27        1.333   0.704   0.045   2.082
   28        1.325   0.772   0.059   2.156
   29        1.325   0.748   0.051   2.124
   30        1.326   0.755   0.053   2.135
   31        1.312   0.795   0.057   2.164
   32        1.326   0.751   0.054   2.132
   33        1.316   0.807   0.063   2.186
   34        1.323   0.767   0.060   2.149
   35        1.309   0.821   0.064   2.194
   36        1.331   0.712   0.048   2.091
   37        1.477   2.278   0.028   3.783
   38        1.479   2.284   0.027   3.791
   39        1.476   2.294   0.029   3.799
   40        1.479   2.287   0.032   3.798
   41        1.475   2.334   0.038   3.847
   42        1.478   2.278   0.027   3.783
   43        1.477   2.322   0.037   3.836
   44        1.477   2.302   0.032   3.811
   45        1.476   2.287   0.029   3.792
   46        1.478   2.277   0.026   3.781
   47        1.478   2.320   0.034   3.832
   48        1.478   2.296   0.033   3.807
   49        1.478   2.296   0.033   3.807
   50        1.481   2.296   0.035   3.812
   51        1.471   2.332   0.034   3.837
   52        1.478   2.296   0.030   3.804
   53        1.477   2.281   0.029   3.786
   54        1.482   2.283   0.036   3.800
   55        1.478   2.290   0.031   3.799
   56        1.478   2.261   0.024   3.764
   57        1.478   2.298   0.032   3.808
   58        1.477   2.296   0.033   3.806
   59        1.477   2.299   0.031   3.806
   60        1.478   2.294   0.031   3.803
   61        1.474   2.344   0.039   3.857
   62        1.478   2.286   0.030   3.793
   63        1.480   2.293   0.034   3.807
   64        1.473   2.339   0.037   3.848
   65        1.477   2.287   0.028   3.792
   66        1.475   2.296   0.032   3.803
   67        1.476   2.304   0.030   3.810
   68        1.475   2.292   0.028   3.794
   69        1.475   2.322   0.035   3.833
   70        1.479   2.280   0.028   3.787
   71        1.484   2.279   0.035   3.798
   72        1.478   2.289   0.029   3.797
--------------------------------------------------
tot        100.882 109.967   3.120 213.969



 magnetization (x)

# of ion       s       p       d       tot
------------------------------------------
    1       -0.000   0.000   0.000   0.000
    2       -0.000   0.000   0.000   0.000
    3       -0.000   0.000   0.000   0.000
    4       -0.000   0.000  -0.000  -0.000
    5       -0.000  -0.000  -0.000  -0.000
    6       -0.000   0.000   0.000   0.000
    7       -0.000   0.000  -0.000   0.000
    8       -0.000   0.000  -0.000  -0.000
    9       -0.000   0.000   0.000   0.000
   10       -0.000   0.000   0.000   0.000
   11       -0.000   0.000  -0.000   0.000
   12       -0.000   0.000   0.000   0.000
   13       -0.000  -0.000  -0.000  -0.000
   14       -0.000  -0.000  -0.000  -0.000
   15       -0.000   0.000   0.000   0.000
   16       -0.000  -0.000  -0.000  -0.000
   17       -0.000   0.000   0.000   0.000
   18       -0.000   0.000   0.000   0.000
   19       -0.000  -0.000  -0.000  -0.000
   20       -0.000   0.000  -0.000  -0.000
   21       -0.000   0.000   0.000   0.000
   22       -0.000   0.000   0.000   0.000
   23       -0.000   0.000  -0.000  -0.000
   24       -0.000   0.000   0.000   0.000
   25       -0.000   0.000   0.000   0.000
   26       -0.000   0.000   0.000   0.000
   27       -0.000   0.000   0.000   0.000
   28       -0.000  -0.000  -0.000  -0.000
   29       -0.000   0.000   0.000   0.000
   30       -0.000   0.000  -0.000  -0.000
   31       -0.000   0.000   0.000   0.000
   32       -0.000   0.000   0.000   0.000
   33       -0.000  -0.000  -0.000  -0.000
   34       -0.000   0.000  -0.000   0.000
   35       -0.000   0.000   0.000   0.000
   36       -0.000  -0.000  -0.000  -0.000
   37       -0.000  -0.000   0.000  -0.000
   38       -0.000  -0.000   0.000  -0.000
   39       -0.000  -0.000  -0.000  -0.000
   40       -0.000  -0.000   0.000  -0.000
   41       -0.000  -0.000   0.000  -0.000
   42       -0.000  -0.000  -0.000  -0.000
   43       -0.000  -0.000   0.000  -0.000
   44       -0.000  -0.000   0.000  -0.000
   45       -0.000  -0.000   0.000  -0.000
   46       -0.000  -0.000   0.000  -0.000
   47       -0.000  -0.000  -0.000  -0.000
   48       -0.000  -0.000   0.000  -0.000
   49       -0.000  -0.000   0.000  -0.000
   50       -0.000  -0.000  -0.000  -0.000
   51       -0.000  -0.000   0.000  -0.000
   52       -0.000  -0.000  -0.000  -0.000
   53       -0.000  -0.000  -0.000  -0.000
   54       -0.000  -0.000   0.000  -0.000
   55       -0.000  -0.000   0.000  -0.000
   56       -0.000  -0.000   0.000  -0.000
   57       -0.000  -0.000   0.000  -0.000
   58       -0.000  -0.000   0.000  -0.000
   59       -0.000  -0.000   0.000  -0.000
   60       -0.000  -0.000   0.000  -0.000
   61       -0.000  -0.000  -0.000  -0.000
   62       -0.000  -0.000  -0.000  -0.000
   63       -0.000  -0.000   0.000  -0.000
   64       -0.000  -0.000  -0.000  -0.000
   65       -0.000  -0.000  -0.000  -0.000
   66       -0.000  -0.000   0.000  -0.000
   67       -0.000  -0.000  -0.000  -0.000
   68       -0.000  -0.000   0.000  -0.000
   69       -0.000  -0.000  -0.000  -0.000
   70       -0.000  -0.000  -0.000  -0.000
   71       -0.000  -0.000   0.000  -0.000
   72       -0.000  -0.000  -0.000  -0.000
--------------------------------------------------
tot         -0.000  -0.000   0.000  -0.000
 

 total amount of memory used by VASP MPI-rank0   110764. kBytes
=======================================================================

   base      :      30000. kBytes
   nonl-proj :      16355. kBytes
   fftplans  :       6179. kBytes
   grid      :      15593. kBytes
   one-center:        146. kBytes
   wavefun   :      42491. kBytes
 
  
  
 General timing and accounting informations for this job:
 ========================================================
  
                  Total CPU time used (sec):      194.368
                            User time (sec):      188.063
                          System time (sec):        6.305
                         Elapsed time (sec):      196.659
  
                   Maximum memory used (kb):      314376.
                   Average memory used (kb):          N/A
  
                          Minor page faults:        98045
                          Major page faults:           74
                 Voluntary context switches:         5632
