 vasp.6.4.2 20Jul23 (build Oct 12 2023 10:31:02) complex                         
 executed on              LinuxNV date 2024.11.01  22:11:40
 running  128 mpi-ranks, with    1 threads/rank, on    2 nodes
 distrk:  each k-point on   64 cores,    2 groups
 distr:  one band on NCORE=   8 cores,    8 groups


--------------------------------------------------------------------------------------------------------


 INCAR:
   ENCUT = 520.000000
   SIGMA = 0.050000
   EDIFF = 1.00e-06
   ALGO = N
   GGA = PE
   PREC = Accurate
   SYSTEM = 01_AOPT
   ICHARG = 0
   ISMEAR = 0
   ISPIN = 2
   ISTART = 1
   ISYM = -1
   KPAR = 2
   LORBIT = 11
   NBANDS = 220
   NELM = 100
   NELMIN = 5
   NPAR = 8
   LASPH = .TRUE.
   LCHARG = .FALSE.
   LWAVE = .FALSE.
   LREAL = .FALSE.

 POTCAR:    PAW_PBE Ge 05Jan2001                  
 POTCAR:    PAW_PBE Se 06Sep2000                  
 -----------------------------------------------------------------------------
|                                                                             |
|           W    W    AA    RRRRR   N    N  II  N    N   GGGG   !!!           |
|           W    W   A  A   R    R  NN   N  II  NN   N  G    G  !!!           |
|           W    W  A    A  R    R  N N  N  II  N N  N  G       !!!           |
|           W WW W  AAAAAA  RRRRR   N  N N  II  N  N N  G  GGG   !            |
|           WW  WW  A    A  R   R   N   NN  II  N   NN  G    G                |
|           W    W  A    A  R    R  N    N  II  N    N   GGGG   !!!           |
|                                                                             |
|     You use a magnetic or noncollinear calculation, but did not specify     |
|     the initial magnetic moment with the MAGMOM tag. Note that a            |
|     default of 1 will be used for all atoms. This ferromagnetic setup       |
|     may break the symmetry of the crystal, in particular it may rule        |
|     out finding an antiferromagnetic solution. Thence, we recommend         |
|     setting the initial magnetic moment manually or verifying carefully     |
|     that this magnetic setup is desired.                                    |
|                                                                             |
 -----------------------------------------------------------------------------

 POTCAR:    PAW_PBE Ge 05Jan2001                  
   VRHFIN =Ge: s2p2                                                                                 
   LEXCH  = PE                                                                                      
   EATOM  =   104.9960 eV,    7.7170 Ry                                                             
                                                                                                    
   TITEL  = PAW_PBE Ge 05Jan2001                                                                    
   LULTRA =        F    use ultrasoft PP ?                                                          
   IUNSCR =        1    unscreen: 0-lin 1-nonlin 2-no                                               
   RPACOR =    2.170    partial core radius                                                         
   POMASS =   72.610; ZVAL   =    4.000    mass and valenz                                          
   RCORE  =    2.300    outmost cutoff radius                                                       
   RWIGS  =    2.300; RWIGS  =    1.217    wigner-seitz radius (au A)                               
   ENMAX  =  173.807; ENMIN  =  130.355 eV                                                          
   ICORE  =        3    local potential                                                             
   LCOR   =        T    correct aug charges                                                         
   LPAW   =        T    paw PP                                                                      
   EAUG   =  385.843                                                                                
   DEXC   =    0.000                                                                                
   RMAX   =    2.342    core radius for proj-oper                                                   
   RAUG   =    1.300    factor for augmentation sphere                                              
   RDEP   =    2.318    radius for radial grids                                                     
   RDEPT  =    2.103    core radius for aug-charge                                                  
                                                                                                    
   Atomic configuration                                                                             
   10 entries                                                                                       
     n  l   j            E        occ.                                                              
     1  0  0.50    -10959.8463   2.0000                                                             
     2  0  0.50     -1371.6056   2.0000                                                             
     2  1  1.50     -1198.4791   6.0000                                                             
     3  0  0.50      -168.4733   2.0000                                                             
     3  1  1.50      -115.6019   6.0000                                                             
     3  2  2.50       -29.3106  10.0000                                                             
     4  0  0.50       -11.7309   2.0000                                                             
     4  1  0.50        -3.8952   2.0000                                                             
     4  2  1.50        -4.0817   0.0000                                                             
     4  3  2.50        -4.0817   0.0000                                                             
   Description                                                                                      
     l       E           TYP  RCUT    TYP  RCUT                                                     
     0    -11.7309493     23  2.300                                                                 
     0     -7.4578696     23  2.300                                                                 
     1     -3.8952261     23  2.300                                                                 
     1      6.1178114     23  2.300                                                                 
     2     -4.0817478     23  2.300                                                                 
     3     -1.3605826      7  2.300                                                                 
  local pseudopotential read in
  partial core-charges read in
  partial kinetic energy density read in
  atomic valenz-charges read in
  non local Contribution for L=            0  read in
    real space projection operators read in
  non local Contribution for L=            0  read in
    real space projection operators read in
  non local Contribution for L=            1  read in
    real space projection operators read in
  non local Contribution for L=            1  read in
    real space projection operators read in
  non local Contribution for L=            2  read in
    real space projection operators read in
    PAW grid and wavefunctions read in
 
   number of l-projection  operators is LMAX  =            5
   number of lm-projection operators is LMMAX =           13
 
 POTCAR:    PAW_PBE Se 06Sep2000                  
   VRHFIN =Se: s2p4                                                                                 
   LEXCH  = PE                                                                                      
   EATOM  =   257.1286 eV,   18.8984 Ry                                                             
                                                                                                    
   TITEL  = PAW_PBE Se 06Sep2000                                                                    
   LULTRA =        F    use ultrasoft PP ?                                                          
   IUNSCR =        1    unscreen: 0-lin 1-nonlin 2-no                                               
   RPACOR =    1.900    partial core radius                                                         
   POMASS =   78.960; ZVAL   =    6.000    mass and valenz                                          
   RCORE  =    2.100    outmost cutoff radius                                                       
   RWIGS  =    2.200; RWIGS  =    1.164    wigner-seitz radius (au A)                               
   ENMAX  =  211.555; ENMIN  =  158.666 eV                                                          
   ICORE  =        3    local potential                                                             
   LCOR   =        T    correct aug charges                                                         
   LPAW   =        T    paw PP                                                                      
   EAUG   =  446.842                                                                                
   DEXC   =    0.000                                                                                
   RMAX   =    2.147    core radius for proj-oper                                                   
   RAUG   =    1.300    factor for augmentation sphere                                              
   RDEP   =    2.177    radius for radial grids                                                     
   RDEPT  =    1.928    core radius for aug-charge                                                  
                                                                                                    
   Atomic configuration                                                                             
   10 entries                                                                                       
     n  l   j            E        occ.                                                              
     1  0  0.50    -12503.4787   2.0000                                                             
     2  0  0.50     -1606.9547   2.0000                                                             
     2  1  1.50     -1413.3140   6.0000                                                             
     3  0  0.50      -213.4885   2.0000                                                             
     3  1  1.50      -152.9538   6.0000                                                             
     3  2  2.50       -53.1221  10.0000                                                             
     4  0  0.50       -17.2865   2.0000                                                             
     4  1  0.50        -6.5110   4.0000                                                             
     4  2  2.50        -6.8029   0.0000                                                             
     4  3  2.50        -6.8029   0.0000                                                             
   Description                                                                                      
     l       E           TYP  RCUT    TYP  RCUT                                                     
     0    -17.2865377     23  2.100                                                                 
     0    -15.3094411     23  2.100                                                                 
     1     -6.5110275     23  2.100                                                                 
     1     -0.0695192     23  2.100                                                                 
     2     -6.8029130     23  2.100                                                                 
     3     -1.3605826      7  2.100                                                                 
  local pseudopotential read in
  partial core-charges read in
  partial kinetic energy density read in
  atomic valenz-charges read in
  non local Contribution for L=            0  read in
    real space projection operators read in
  non local Contribution for L=            0  read in
    real space projection operators read in
  non local Contribution for L=            1  read in
    real space projection operators read in
  non local Contribution for L=            1  read in
    real space projection operators read in
  non local Contribution for L=            2  read in
    real space projection operators read in
    PAW grid and wavefunctions read in
 
   number of l-projection  operators is LMAX  =            5
   number of lm-projection operators is LMMAX =           13
 
 -----------------------------------------------------------------------------
|                                                                             |
|               ----> ADVICE to this user running VASP <----                  |
|                                                                             |
|     You have a (more or less) 'large supercell' and for larger cells it     |
|     might be more efficient to use real-space projection operators.         |
|     Therefore, try LREAL= Auto in the INCAR file.                           |
|     Mind: For very accurate calculation, you might also keep the            |
|     reciprocal projection scheme (i.e. LREAL=.FALSE.).                      |
|                                                                             |
 -----------------------------------------------------------------------------

  PAW_PBE Ge 05Jan2001                  :
 energy of atom  1       EATOM= -104.9960
 kinetic energy error for atom=    0.0002 (will be added to EATOM!!)
  PAW_PBE Se 06Sep2000                  :
 energy of atom  2       EATOM= -257.1286
 kinetic energy error for atom=    0.0007 (will be added to EATOM!!)
 
 
 POSCAR: Ge Se
  positions in cartesian coordinates
  No initial velocities read in
 exchange correlation table for  LEXCH =        8
   RHO(1)=    0.500       N(1)  =     2000
   RHO(2)=  100.500       N(2)  =     4000
 


--------------------------------------------------------------------------------------------------------


 ion  position               nearest neighbor table
   1  0.064  0.041  0.131-  45 2.52  54 2.65  55 2.74
   2  0.221  0.869  0.353-  67 2.56  45 2.60  47 2.80
   3  0.575  0.219  0.378-  56 2.60  49 2.61  68 2.70
   4  0.566  0.527  0.356-  69 2.63  72 2.65  50 2.66
   5  0.569  0.888  0.381-  44 2.68  70 2.70  48 2.73
   6  0.891  0.218  0.359-  55 2.50  56 2.57
   7  0.880  0.538  0.373-  72 2.54  71 2.56
   8  0.902  0.881  0.371-  45 2.59  53 2.61  44 2.74
   9  0.063  0.146  0.626-  57 2.59  37 2.69
  10  0.066  0.470  0.617-  58 2.53  38 2.66  43 2.68
  11  0.075  0.815  0.614-  59 2.58  52 2.63
  12  0.407  0.147  0.640-  51 2.54  60 2.60  40 2.66
  13  0.414  0.473  0.632-  41 2.53  61 2.72  38 2.77
  14  0.403  0.821  0.630-  62 2.65  42 2.67  39 2.71
  15  0.733  0.152  0.635-  63 2.47  40 2.51
  16  0.738  0.501  0.625-  64 2.52  41 2.61
  17  0.251  0.563  0.378-  66 2.57  50 2.62  47 2.65
  18  0.229  0.219  0.371-  54 2.62  46 2.65  49 2.69
  19  0.732  0.830  0.642-  65 2.57  42 2.78  52 2.82
  20  0.886  0.658  0.881-  52 2.57  64 2.58
  21  0.911  0.976  0.868-  59 2.58  37 2.70  65 2.71
  22  0.068  0.410  0.125-  66 2.53  46 2.58  71 2.65
  23  0.048  0.698  0.140-  47 2.54  53 2.67  71 2.69
  24  0.370  0.033  0.141-  48 2.57  54 2.59
  25  0.387  0.380  0.114-  69 2.59  66 2.68  49 2.73
  26  0.731  0.035  0.128-  44 2.51  55 2.71  68 2.74
  27  0.706  0.342  0.124-  56 2.51  69 2.62  68 2.72
  28  0.399  0.722  0.126-  50 2.50  67 2.59  70 2.65
  29  0.215  0.316  0.878-  38 2.53  57 2.61
  30  0.222  0.640  0.870-  39 2.59  58 2.62  61 2.73
  31  0.241  0.996  0.868-  51 2.43  59 2.63  62 2.76
  32  0.577  0.309  0.880-  60 2.55  63 2.66  41 2.69
  33  0.561  0.648  0.863-  42 2.53  61 2.67  64 2.69
  34  0.550  0.971  0.876-  62 2.47  40 2.55  65 2.70
  35  0.899  0.326  0.881-  63 2.70  43 2.85
  36  0.732  0.706  0.142-  72 2.45  70 2.58  53 2.74
  37  0.907  0.996  0.625-   9 2.69  21 2.70
  38  0.235  0.343  0.653-  29 2.53  10 2.66  13 2.77
  39  0.249  0.666  0.640-  30 2.59  14 2.71
  40  0.580  0.023  0.656-  15 2.51  34 2.55  12 2.66
  41  0.583  0.360  0.644-  13 2.53  16 2.61  32 2.69
  42  0.565  0.681  0.637-  33 2.53  14 2.67  19 2.78
  43  0.899  0.335  0.624-  10 2.68  35 2.85
  44  0.734  0.023  0.354-  26 2.51   5 2.68   8 2.74
  45  0.065  0.008  0.355-   1 2.52   8 2.59   2 2.60
  46  0.073  0.363  0.352-  22 2.58  18 2.65
  47  0.082  0.693  0.367-  23 2.54  17 2.65   2 2.80
  48  0.403  0.031  0.370-  24 2.57   5 2.73
  49  0.406  0.342  0.355-   3 2.61  18 2.69  25 2.73
  50  0.422  0.684  0.347-  28 2.50  17 2.62   4 2.66
  51  0.252  0.015  0.651-  31 2.43  12 2.54
  52  0.909  0.689  0.652-  20 2.57  11 2.63  19 2.82
  53  0.897  0.851  0.138-   8 2.61  23 2.67  36 2.74
  54  0.224  0.180  0.139-  24 2.59  18 2.62   1 2.65
  55  0.893  0.180  0.137-   6 2.50  26 2.71   1 2.74
  56  0.734  0.352  0.348-  27 2.51   6 2.57   3 2.60
  57  0.066  0.170  0.858-   9 2.59  29 2.61
  58  0.062  0.506  0.842-  10 2.53  30 2.62
  59  0.081  0.861  0.841-  11 2.58  21 2.58  31 2.63
  60  0.412  0.188  0.871-  32 2.55  12 2.60
  61  0.398  0.510  0.873-  33 2.67  13 2.72  30 2.73
  62  0.400  0.842  0.868-  34 2.47  14 2.65  31 2.76
  63  0.744  0.177  0.855-  15 2.47  32 2.66  35 2.70
  64  0.735  0.520  0.852-  16 2.52  20 2.58  33 2.69
  65  0.732  0.852  0.873-  19 2.57  34 2.70  21 2.71
  66  0.233  0.526  0.150-  22 2.53  17 2.57  25 2.68
  67  0.230  0.844  0.125-   2 2.56  28 2.59
  68  0.564  0.177  0.139-   3 2.70  27 2.72  26 2.74
  69  0.561  0.494  0.122-  25 2.59  27 2.62   4 2.63
  70  0.575  0.840  0.143-  36 2.58  28 2.65   5 2.70
  71  0.901  0.540  0.143-   7 2.56  22 2.65  23 2.69
  72  0.724  0.670  0.360-  36 2.45   7 2.54   4 2.65
 

IMPORTANT INFORMATION: All symmetrisations will be switched off!
NOSYMM: (Re-)initialisation of all symmetry stuff for point group C_1.


----------------------------------------------------------------------------------------

                                     Primitive cell                                     

  volume of cell :    1720.6204

  direct lattice vectors                    reciprocal lattice vectors
    12.413391327 -0.000004380 -0.000004298     0.080558163  0.000000028  0.000000036
    -0.000004416 12.516011064  0.000000263     0.000000028  0.079897660 -0.000000002
    -0.000004936  0.000000299 11.074616175     0.000000031 -0.000000002  0.090296583

  length of vectors
    12.413391327 12.516011064 11.074616175     0.080558163  0.079897660  0.090296583

  position of ions in fractional coordinates (direct lattice)
     0.063501450  0.041264724  0.130695535
     0.220764044  0.868941710  0.353403712
     0.574645825  0.218580259  0.377819099
     0.566460760  0.527062518  0.356272217
     0.568727682  0.887825461  0.381119481
     0.890637280  0.217795589  0.358929472
     0.879509128  0.537671676  0.373121877
     0.902012311  0.880800250  0.370848203
     0.062616647  0.145995454  0.625876391
     0.066206284  0.470332149  0.617437294
     0.075360171  0.814757607  0.614294418
     0.407035582  0.147318405  0.640361336
     0.414496877  0.472899395  0.631747805
     0.402506826  0.820702972  0.630109959
     0.733336643  0.151915295  0.634562528
     0.738243862  0.500736443  0.624827717
     0.250667435  0.563374301  0.377615469
     0.228790847  0.219345167  0.370966529
     0.731631156  0.829616240  0.642025616
     0.886385958  0.658032244  0.880568919
     0.910836901  0.976261563  0.868180048
     0.067909855  0.409992874  0.125408760
     0.047628254  0.697976298  0.140404629
     0.370363051  0.032722260  0.141289597
     0.386754599  0.379753061  0.113714525
     0.730569582  0.034801290  0.127862815
     0.705860810  0.342026637  0.123790519
     0.398762388  0.722418739  0.126138747
     0.215025869  0.315659022  0.878203847
     0.221777840  0.640034061  0.869723676
     0.241208827  0.996130008  0.868476344
     0.576792831  0.309164756  0.879952488
     0.561347954  0.647898665  0.862563594
     0.549796355  0.970746394  0.875509901
     0.898980619  0.325808418  0.881076609
     0.731805500  0.705647150  0.142466973
     0.906987170  0.995954282  0.624987995
     0.234959087  0.343316518  0.652661502
     0.249148941  0.666412730  0.639556924
     0.579886813  0.022866505  0.655854355
     0.583222569  0.360408865  0.644038148
     0.565417840  0.681375075  0.637143909
     0.899145281  0.334836458  0.623768037
     0.734374681  0.022869019  0.353851046
     0.065444367  0.008422264  0.354940832
     0.072928616  0.362563814  0.352202047
     0.081928124  0.692610086  0.366661880
     0.403372835  0.031490622  0.370088223
     0.406466314  0.342115442  0.355114758
     0.421560655  0.683754664  0.346557565
     0.252296139  0.014554512  0.650573069
     0.908998049  0.688686489  0.652294938
     0.897146947  0.850944275  0.137937010
     0.224217622  0.179845989  0.138883128
     0.893033435  0.179639575  0.137361389
     0.733698582  0.351712275  0.347695737
     0.066452629  0.169688762  0.857781246
     0.061669648  0.505574088  0.841960020
     0.081181712  0.860543369  0.841179535
     0.411670164  0.187709456  0.871017079
     0.397841974  0.509608730  0.872964574
     0.399639008  0.841925875  0.867743559
     0.743515955  0.177050864  0.855309980
     0.734758509  0.519769239  0.851749826
     0.731829927  0.852127688  0.872575629
     0.232682552  0.526353743  0.149909645
     0.229716491  0.844080025  0.124523193
     0.563604967  0.177271609  0.138877661
     0.560602013  0.494169437  0.121520931
     0.575023046  0.840460303  0.143234571
     0.900545884  0.539853481  0.143380203
     0.724350830  0.669999621  0.359829756

  ion indices of the primitive-cell ions
   primitive index   ion index
                 1           1
                 2           2
                 3           3
                 4           4
                 5           5
                 6           6
                 7           7
                 8           8
                 9           9
                10          10
                11          11
                12          12
                13          13
                14          14
                15          15
                16          16
                17          17
                18          18
                19          19
                20          20
                21          21
                22          22
                23          23
                24          24
                25          25
                26          26
                27          27
                28          28
                29          29
                30          30
                31          31
                32          32
                33          33
                34          34
                35          35
                36          36
                37          37
                38          38
                39          39
                40          40
                41          41
                42          42
                43          43
                44          44
                45          45
                46          46
                47          47
                48          48
                49          49
                50          50
                51          51
                52          52
                53          53
                54          54
                55          55
                56          56
                57          57
                58          58
                59          59
                60          60
                61          61
                62          62
                63          63
                64          64
                65          65
                66          66
                67          67
                68          68
                69          69
                70          70
                71          71
                72          72

----------------------------------------------------------------------------------------

 
 
 KPOINTS: KPOINTS created by Atomic Simulation Env

Automatic generation of k-mesh.
 Grid dimensions read from file:
 generate k-points for:    2    2    2

 Generating k-lattice:

  Cartesian coordinates                     Fractional coordinates (reciprocal lattice)
     0.040279081  0.000000014  0.000000018     0.500000000  0.000000000  0.000000000
     0.000000014  0.039948830 -0.000000001     0.000000000  0.500000000  0.000000000
     0.000000016 -0.000000001  0.045148292     0.000000000 -0.000000000  0.500000000

  Length of vectors
     0.040279081  0.039948830  0.045148292

  Shift w.r.t. Gamma in fractional coordinates (k-lattice)
     0.000000000  0.000000000  0.000000000

 
 Subroutine IBZKPT returns following result:
 ===========================================
 
 Found      8 irreducible k-points:
 
 Following reciprocal coordinates:
            Coordinates               Weight
  0.000000  0.000000  0.000000      1.000000
  0.500000  0.000000  0.000000      1.000000
  0.000000  0.500000  0.000000      1.000000
  0.500000  0.500000  0.000000      1.000000
  0.000000  0.000000  0.500000      1.000000
  0.500000  0.000000  0.500000      1.000000
  0.000000  0.500000  0.500000      1.000000
  0.500000  0.500000  0.500000      1.000000
 
 Following cartesian coordinates:
            Coordinates               Weight
  0.000000  0.000000  0.000000      1.000000
  0.040279  0.000000  0.000000      1.000000
  0.000000  0.039949 -0.000000      1.000000
  0.040279  0.039949  0.000000      1.000000
  0.000000 -0.000000  0.045148      1.000000
  0.040279  0.000000  0.045148      1.000000
  0.000000  0.039949  0.045148      1.000000
  0.040279  0.039949  0.045148      1.000000
 
 -----------------------------------------------------------------------------
|                                                                             |
|           W    W    AA    RRRRR   N    N  II  N    N   GGGG   !!!           |
|           W    W   A  A   R    R  NN   N  II  NN   N  G    G  !!!           |
|           W    W  A    A  R    R  N N  N  II  N N  N  G       !!!           |
|           W WW W  AAAAAA  RRRRR   N  N N  II  N  N N  G  GGG   !            |
|           WW  WW  A    A  R   R   N   NN  II  N   NN  G    G                |
|           W    W  A    A  R    R  N    N  II  N    N   GGGG   !!!           |
|                                                                             |
|     The number of bands has been changed from the values supplied in        |
|     the INCAR file. This is a result of running the parallel version.       |
|     The orbitals not found in the WAVECAR file will be initialized with     |
|     random numbers, which is usually adequate. For correlated               |
|     calculations, however, you should redo the groundstate calculation.     |
|     I found NBANDS = 220. Now, NBANDS = 224.                                |
|                                                                             |
 -----------------------------------------------------------------------------



--------------------------------------------------------------------------------------------------------




 Dimension of arrays:
   k-points           NKPTS =      8   k-points in BZ     NKDIM =      8   number of bands    NBANDS=    224
   number of dos      NEDOS =    301   number of ions     NIONS =     72
   non local maximal  LDIM  =      5   non local SUM 2l+1 LMDIM =     13
   total plane-waves  NPLWV = 774144
   max r-space proj   IRMAX =      1   max aug-charges    IRDMAX=  24650
   dimension x,y,z NGX =    96 NGY =   96 NGZ =   84
   dimension x,y,z NGXF=   192 NGYF=  192 NGZF=  168
   support grid    NGXF=   192 NGYF=  192 NGZF=  168
   ions per type =              36  36
   NGX,Y,Z   is equivalent  to a cutoff of  12.86, 12.75, 12.61 a.u.
   NGXF,Y,Z  is equivalent  to a cutoff of  25.71, 25.50, 25.22 a.u.

 SYSTEM =  01_AOPT                                 
 POSCAR =  Ge Se                                   

 Startparameter for this run:
   NWRITE =      2    write-flag & timer
   PREC   = accura    normal or accurate (medium, high low for compatibility)
   ISTART =      0    job   : 0-new  1-cont  2-samecut
   ICHARG =      2    charge: 1-file 2-atom 10-const
   ISPIN  =      2    spin polarized calculation?
   LNONCOLLINEAR =      F non collinear calculations
   LSORBIT =      F    spin-orbit coupling
   INIWAV =      1    electr: 0-lowe 1-rand  2-diag
   LASPH  =      T    aspherical Exc in radial PAW
 Electronic Relaxation 1
   ENCUT  =  520.0 eV  38.22 Ry    6.18 a.u.  23.08 23.27 20.59*2*pi/ulx,y,z
   ENINI  =  520.0     initial cutoff
   ENAUG  =  446.8 eV  augmentation charge cutoff
   NELM   =    100;   NELMIN=  5; NELMDL=  0     # of ELM steps 
   EDIFF  = 0.1E-05   stopping-criterion for ELM
   LREAL  =      F    real-space projection
   NLSPLINE    = F    spline interpolate recip. space projectors
   LCOMPAT=      F    compatible to vasp.4.4
   GGA_COMPAT  = T    GGA compatible to vasp.4.4-vasp.4.6
   LMAXPAW     = -100 max onsite density
   LMAXMIX     =    2 max onsite mixed and CHGCAR
   VOSKOWN=      0    Vosko Wilk Nusair interpolation
   ROPT   =    0.00000   0.00000
 Ionic relaxation
   EDIFFG = 0.1E-04   stopping-criterion for IOM
   NSW    =      0    number of steps for IOM
   NBLOCK =      1;   KBLOCK =      1    inner block; outer block 
   IBRION =     -1    ionic relax: 0-MD 1-quasi-New 2-CG
   NFREE  =      0    steps in history (QN), initial steepest desc. (CG)
   ISIF   =      2    stress and relaxation
   IWAVPR =     10    prediction:  0-non 1-charg 2-wave 3-comb
   ISYM   =     -1    0-nonsym 1-usesym 2-fastsym
   LCORR  =      T    Harris-Foulkes like correction to forces

   POTIM  = 0.5000    time-step for ionic-motion
   TEIN   =    0.0    initial temperature
   TEBEG  =    0.0;   TEEND  =   0.0 temperature during run
   SMASS  =  -3.00    Nose mass-parameter (am)
   estimated Nose-frequenzy (Omega)   =  0.10E-29 period in steps = 0.13E+47 mass=  -0.352E-26a.u.
   SCALEE = 1.0000    scale energy and forces
   NPACO  =    256;   APACO  = 10.0  distance and # of slots for P.C.
   PSTRESS=    0.0 pullay stress

  Mass of Ions in am
   POMASS =  72.61 78.96
  Ionic Valenz
   ZVAL   =   4.00  6.00
  Atomic Wigner-Seitz radii
   RWIGS  =  -1.00 -1.00
  virtual crystal weights 
   VCA    =   1.00  1.00
   NELECT =     360.0000    total number of electrons
   NUPDOWN=      -1.0000    fix difference up-down

 DOS related values:
   EMIN   =  10.00;   EMAX   =-10.00  energy-range for DOS
   EFERMI =   0.00;   METHOD = LEGACY      
   ISMEAR =     0;   SIGMA  =   0.05  broadening in eV -4-tet -1-fermi 0-gaus

 Electronic relaxation 2 (details)
   IALGO  =     38    algorithm
   LDIAG  =      T    sub-space diagonalisation (order eigenvalues)
   LSUBROT=      F    optimize rotation matrix (better conditioning)
   TURBO    =      0    0=normal 1=particle mesh
   IRESTART =      0    0=no restart 2=restart with 2 vectors
   NREBOOT  =      0    no. of reboots
   NMIN     =      0    reboot dimension
   EREF     =   0.00    reference energy to select bands
   IMIX   =      4    mixing-type and parameters
     AMIX     =   0.40;   BMIX     =  1.00
     AMIX_MAG =   1.60;   BMIX_MAG =  1.00
     AMIN     =   0.10
     WC   =   100.;   INIMIX=   1;  MIXPRE=   1;  MAXMIX= -45

 Intra band minimization:
   WEIMIN = 0.0000     energy-eigenvalue tresh-hold
   EBREAK =  0.11E-08  absolut break condition
   DEPER  =   0.30     relativ break condition  

   TIME   =   0.40     timestep for ELM

  volume/ion in A,a.u.               =      23.90       161.27
  Fermi-wavevector in a.u.,A,eV,Ry     =   0.971883  1.836593 12.851472  0.944557
  Thomas-Fermi vector in A             =   2.102136
 
 Write flags
   LWAVE        =      F    write WAVECAR
   LDOWNSAMPLE  =      F    k-point downsampling of WAVECAR
   LCHARG       =      F    write CHGCAR
   LVTOT        =      F    write LOCPOT, total local potential
   LVHAR        =      F    write LOCPOT, Hartree potential only
   LELF         =      F    write electronic localiz. function (ELF)
   LORBIT       =     11    0 simple, 1 ext, 2 COOP (PROOUT), +10 PAW based schemes


 Dipole corrections
   LMONO  =      F    monopole corrections only (constant potential shift)
   LDIPOL =      F    correct potential (dipole corrections)
   IDIPOL =      0    1-x, 2-y, 3-z, 4-all directions 
   EPSILON=  1.0000000 bulk dielectric constant

 Exchange correlation treatment:
   GGA     =    PE    GGA type
   LEXCH   =     8    internal setting for exchange type
   LIBXC   =     F    Libxc                    
   VOSKOWN =     0    Vosko Wilk Nusair interpolation
   LHFCALC =     F    Hartree Fock is set to
   LHFONE  =     F    Hartree Fock one center treatment
   AEXX    =    0.0000 exact exchange contribution

 Linear response parameters
   LEPSILON=     F    determine dielectric tensor
   LRPA    =     F    only Hartree local field effects (RPA)
   LNABLA  =     F    use nabla operator in PAW spheres
   LVEL    =     F    velocity operator in full k-point grid
   CSHIFT  =0.1000    complex shift for real part using Kramers Kronig
   OMEGAMAX=  -1.0    maximum frequency
   DEG_THRESHOLD= 0.2000000E-02 threshold for treating states as degnerate
   RTIME   =   -0.100 relaxation time in fs
  (WPLASMAI=    0.000 imaginary part of plasma frequency in eV, 0.658/RTIME)
   DFIELD  = 0.0000000 0.0000000 0.0000000 field for delta impulse in time
 
  Optional k-point grid parameters
   LKPOINTS_OPT  =     F    use optional k-point grid
   KPOINTS_OPT_MODE=     1    mode for optional k-point grid
 
 Orbital magnetization related:
   ORBITALMAG=     F  switch on orbital magnetization
   LCHIMAG   =     F  perturbation theory with respect to B field
   DQ        =  0.001000  dq finite difference perturbation B field
   LLRAUG    =     F  two centre corrections for induced B field
   LBONE     =     F  B-component reconstruction in AE one-centre
   LVGVCALC  =     T  calculate vGv susceptibility
   LVGVAPPL  =     F  apply vGv susceptibility instead of pGv for G=0

 Random number generation:
   RANDOM_GENERATOR = DEFAULT
   PCG_SEED         = not used


--------------------------------------------------------------------------------------------------------


 Static calculation
 charge density and potential will be updated during run
 spin polarized calculation
 Variant of blocked Davidson
 Davidson routine will perform the subspace rotation
 perform sub-space diagonalisation
    after iterative eigenvector-optimisation
 modified Broyden-mixing scheme, WC =      100.0
 initial mixing is a Kerker type mixing with AMIX =  0.4000 and BMIX =      1.0000
 Hartree-type preconditioning will be used
 using additional bands            44
 reciprocal scheme for non local part
 use partial core corrections
 calculate Harris-corrections to forces 
   (improved forces if not selfconsistent)
 use gradient corrections 
 use of overlap-Matrix (Vanderbilt PP)
 Gauss-broadening in eV      SIGMA  =   0.05


--------------------------------------------------------------------------------------------------------


  energy-cutoff  :      520.00
  volume of cell :     1720.62
      direct lattice vectors                 reciprocal lattice vectors
    12.413391327 -0.000004380 -0.000004298     0.080558163  0.000000028  0.000000036
    -0.000004416 12.516011064  0.000000263     0.000000028  0.079897660 -0.000000002
    -0.000004936  0.000000299 11.074616175     0.000000031 -0.000000002  0.090296583

  length of vectors
    12.413391327 12.516011064 11.074616175     0.080558163  0.079897660  0.090296583


 
 k-points in units of 2pi/SCALE and weight: KPOINTS created by Atomic Simulation Env
   0.00000000  0.00000000  0.00000000       0.125
   0.04027908  0.00000001  0.00000002       0.125
   0.00000001  0.03994883 -0.00000000       0.125
   0.04027910  0.03994884  0.00000002       0.125
   0.00000002 -0.00000000  0.04514829       0.125
   0.04027910  0.00000001  0.04514831       0.125
   0.00000003  0.03994883  0.04514829       0.125
   0.04027911  0.03994884  0.04514831       0.125
 
 k-points in reciprocal lattice and weights: KPOINTS created by Atomic Simulation Env
   0.00000000  0.00000000  0.00000000       0.125
   0.50000000  0.00000000  0.00000000       0.125
   0.00000000  0.50000000  0.00000000       0.125
   0.50000000  0.50000000  0.00000000       0.125
   0.00000000  0.00000000  0.50000000       0.125
   0.50000000  0.00000000  0.50000000       0.125
   0.00000000  0.50000000  0.50000000       0.125
   0.50000000  0.50000000  0.50000000       0.125
 
 position of ions in fractional coordinates (direct lattice) 
   0.06350145  0.04126472  0.13069553
   0.22076404  0.86894171  0.35340371
   0.57464582  0.21858026  0.37781910
   0.56646076  0.52706252  0.35627222
   0.56872768  0.88782546  0.38111948
   0.89063728  0.21779559  0.35892947
   0.87950913  0.53767168  0.37312188
   0.90201231  0.88080025  0.37084820
   0.06261665  0.14599545  0.62587639
   0.06620628  0.47033215  0.61743729
   0.07536017  0.81475761  0.61429442
   0.40703558  0.14731840  0.64036134
   0.41449688  0.47289940  0.63174781
   0.40250683  0.82070297  0.63010996
   0.73333664  0.15191529  0.63456253
   0.73824386  0.50073644  0.62482772
   0.25066744  0.56337430  0.37761547
   0.22879085  0.21934517  0.37096653
   0.73163116  0.82961624  0.64202562
   0.88638596  0.65803224  0.88056892
   0.91083690  0.97626156  0.86818005
   0.06790986  0.40999287  0.12540876
   0.04762825  0.69797630  0.14040463
   0.37036305  0.03272226  0.14128960
   0.38675460  0.37975306  0.11371452
   0.73056958  0.03480129  0.12786281
   0.70586081  0.34202664  0.12379052
   0.39876239  0.72241874  0.12613875
   0.21502587  0.31565902  0.87820385
   0.22177784  0.64003406  0.86972368
   0.24120883  0.99613001  0.86847634
   0.57679283  0.30916476  0.87995249
   0.56134795  0.64789867  0.86256359
   0.54979635  0.97074639  0.87550990
   0.89898062  0.32580842  0.88107661
   0.73180550  0.70564715  0.14246697
   0.90698717  0.99595428  0.62498799
   0.23495909  0.34331652  0.65266150
   0.24914894  0.66641273  0.63955692
   0.57988681  0.02286651  0.65585435
   0.58322257  0.36040887  0.64403815
   0.56541784  0.68137507  0.63714391
   0.89914528  0.33483646  0.62376804
   0.73437468  0.02286902  0.35385105
   0.06544437  0.00842226  0.35494083
   0.07292862  0.36256381  0.35220205
   0.08192812  0.69261009  0.36666188
   0.40337283  0.03149062  0.37008822
   0.40646631  0.34211544  0.35511476
   0.42156066  0.68375466  0.34655756
   0.25229614  0.01455451  0.65057307
   0.90899805  0.68868649  0.65229494
   0.89714695  0.85094427  0.13793701
   0.22421762  0.17984599  0.13888313
   0.89303343  0.17963958  0.13736139
   0.73369858  0.35171228  0.34769574
   0.06645263  0.16968876  0.85778125
   0.06166965  0.50557409  0.84196002
   0.08118171  0.86054337  0.84117953
   0.41167016  0.18770946  0.87101708
   0.39784197  0.50960873  0.87296457
   0.39963901  0.84192587  0.86774356
   0.74351595  0.17705086  0.85530998
   0.73475851  0.51976924  0.85174983
   0.73182993  0.85212769  0.87257563
   0.23268255  0.52635374  0.14990965
   0.22971649  0.84408003  0.12452319
   0.56360497  0.17727161  0.13887766
   0.56060201  0.49416944  0.12152093
   0.57502305  0.84046030  0.14323457
   0.90054588  0.53985348  0.14338020
   0.72435083  0.66999962  0.35982976
 
 position of ions in cartesian coordinates  (Angst):
   0.78826752  0.51646950  1.44740262
   2.74042489 10.87568320  3.91380974
   7.13330067  2.73575054  4.18419909
   7.03169500  6.59671793  3.94557577
   7.05983348 11.11203092  4.22074976
  11.05582636  2.72592820  3.97500237
  10.91768676  6.72950090  4.13217794
  11.19702608 11.02410183  4.10699786
   0.77728121  1.82728063  6.93134057
   0.82183939  5.88668228  6.83788088
   0.93546866 10.19751507  6.80307479
   5.05268815  1.84383720  7.09175430
   5.14530674  5.91881243  6.99636281
   4.99646801 10.27192591  6.97822443
   9.10319092  1.90137049  7.02753332
   9.16410466  6.26721982  6.91972410
   3.11162861  7.05119799  4.18194545
   2.84006752  2.74532565  4.10831100
   9.08201701 10.38348303  7.11018434
  11.00304851  8.23593523  9.75195916
  11.30656629 12.21889680  9.61475715
   0.84298918  5.13147508  1.38885370
   0.59122438  8.73587890  1.55492736
   4.59746064  0.40955059  1.56472648
   4.80093395  4.75299185  1.25934315
   9.06884533  0.43557018  1.41602847
   8.76212434  4.28080612  1.37092954
   4.94998975  9.04179922  1.39693668
   2.66919453  3.95079113  9.72576969
   2.75300800  8.01067268  9.63185510
   2.99421088 12.46757341  9.61804140
   7.15994941  3.86950724  9.74513366
   6.96822470  8.10910466  9.55255849
   6.82482869 12.14987046  9.69593400
  11.15939243  4.07781810  9.75758148
   9.08418422  8.83188438  1.57776409
  11.25877918 12.46537103  6.92149852
   2.91663435  4.29695251  7.22797470
   3.09277720  8.34082820  7.08284655
   7.19835860  0.28619509  7.26333276
   7.23976521  4.51087899  7.13247288
   7.01874676  8.52809569  7.05612199
  11.16143767  4.19081306  6.90798781
   9.11607845  0.28622578  3.91876136
   0.81238475  0.10541296  3.93083320
   0.90528811  4.53785250  3.90050226
   1.01700099  8.66871525  4.06063941
   5.00722288  0.39413532  4.09858329
   5.04562215  4.28191898  3.93275799
   5.23299265  8.55787919  3.83799038
   3.13184742  0.18216353  7.20484596
  11.28374223  8.61960393  7.22391234
  11.13663170 10.65042407  1.52759581
   2.78329960  2.25095345  1.53807642
  11.08557202  2.24836704  1.52122087
   9.10768435  4.40203162  3.85059377
   0.82489751  2.12382638  9.49959783
   0.76552308  6.32777087  9.32438393
   1.00773240 10.77057023  9.31574036
   5.11021771  2.34937208  9.64617811
   4.93856155  6.37826702  9.66774601
   4.96086740 10.53755207  9.60992536
   9.22954950  2.21596757  9.47222659
   9.12083840  6.50543458  9.43279938
   9.08448320 10.66523663  9.66343726
   2.88837651  6.58784830  1.66019092
   2.85155635 10.56451397  1.37904580
   6.99624754  2.21873099  1.53801441
   6.95896939  6.18502772  1.34579538
   7.13798167 10.51920798  1.58626565
  11.17882537  6.75680824  1.58787698
   8.99164558  8.38571960  3.98497350
 


--------------------------------------------------------------------------------------------------------


 k-point   1 :   0.0000 0.0000 0.0000  plane waves:   46317
 k-point   2 :   0.5000 0.0000 0.0000  plane waves:   46350
 k-point   3 :   0.0000 0.5000 0.0000  plane waves:   46318
 k-point   4 :   0.5000 0.5000 0.0000  plane waves:   46412
 k-point   5 :   0.0000 0.0000 0.5000  plane waves:   46326
 k-point   6 :   0.5000 0.0000 0.5000  plane waves:   46316
 k-point   7 :   0.0000 0.5000 0.5000  plane waves:   46300
 k-point   8 :   0.5000 0.5000 0.5000  plane waves:   46304

 maximum and minimum number of plane-waves per node :      5834     5751

 maximum number of plane-waves:     46412
 maximum index in each direction: 
   IXMAX=   23   IYMAX=   23   IZMAX=   20
   IXMIN=  -23   IYMIN=  -23   IZMIN=  -21


 parallel 3D FFT for wavefunctions:
    minimum data exchange during FFTs selected (reduces bandwidth)
 parallel 3D FFT for charge:
    minimum data exchange during FFTs selected (reduces bandwidth)


 total amount of memory used by VASP MPI-rank0   110684. kBytes
=======================================================================

   base      :      30000. kBytes
   nonl-proj :      16332. kBytes
   fftplans  :       6179. kBytes
   grid      :      15593. kBytes
   one-center:        146. kBytes
   wavefun   :      42434. kBytes
 
     INWAV:  cpu time      0.0000: real time      0.0001
 Broyden mixing: mesh for mixing (old mesh)
   NGX = 47   NGY = 47   NGZ = 41
  (NGX  =192   NGY  =192   NGZ  =168)
  gives a total of  90569 points

 initial charge density was supplied:
 charge density of overlapping atoms calculated
 number of electron     360.0000000 magnetization      72.0000000
 keeping initial charge density in first step


--------------------------------------------------------------------------------------------------------


 Maximum index for augmentation-charges           834 (set IRDMAX)


--------------------------------------------------------------------------------------------------------


 First call to EWALD:  gamma=   0.148
 Maximum number of real-space cells 3x 3x 3
 Maximum number of reciprocal cells 3x 3x 3

    FEWALD:  cpu time      0.0020: real time      0.0021


--------------------------------------- Ionic step        1  -------------------------------------------




--------------------------------------- Iteration      1(   1)  ---------------------------------------


    POTLOK:  cpu time      0.1496: real time      0.1505
    SETDIJ:  cpu time      0.5917: real time      0.5931
     EDDAV:  cpu time      8.6376: real time      8.6885
       DOS:  cpu time      0.0016: real time      0.0016
    --------------------------------------------
      LOOP:  cpu time      9.3806: real time      9.4337

 eigenvalue-minimisations  :  7168
 total energy-change (2. order) : 0.1813379E+04  (-0.1419423E+05)
 number of electron     360.0000000 magnetization      72.0000000
 augmentation part      360.0000000 magnetization      72.0000000

 Free energy of the ion-electron system (eV)
  ---------------------------------------------------
  alpha Z        PSCENC =       797.67744162
  Ewald energy   TEWEN  =    -12890.88470677
  -Hartree energ DENC   =     -1092.74952238
  -exchange      EXHF   =         0.00000000
  -V(xc)+E(xc)   XCENC  =      -294.01558994
  PAW double counting   =     10738.42099860    -9719.93139476
  entropy T*S    EENTRO =        -0.02556257
  eigenvalues    EBANDS =      1238.43622232
  atomic energy  EATOM  =     13036.45147835
  Solvation  Ediel_sol  =         0.00000000
  ---------------------------------------------------
  free energy    TOTEN  =      1813.37936447 eV

  energy without entropy =     1813.40492704  energy(sigma->0) =     1813.39214576


--------------------------------------------------------------------------------------------------------




--------------------------------------- Iteration      1(   2)  ---------------------------------------


     EDDAV:  cpu time      9.7559: real time      9.8057
       DOS:  cpu time      0.0014: real time      0.0014
    --------------------------------------------
      LOOP:  cpu time      9.7572: real time      9.8071

 eigenvalue-minimisations  :  8480
 total energy-change (2. order) :-0.1876921E+04  (-0.1802076E+04)
 number of electron     360.0000000 magnetization      72.0000000
 augmentation part      360.0000000 magnetization      72.0000000

 Free energy of the ion-electron system (eV)
  ---------------------------------------------------
  alpha Z        PSCENC =       797.67744162
  Ewald energy   TEWEN  =    -12890.88470677
  -Hartree energ DENC   =     -1092.74952238
  -exchange      EXHF   =         0.00000000
  -V(xc)+E(xc)   XCENC  =      -294.01558994
  PAW double counting   =     10738.42099860    -9719.93139476
  entropy T*S    EENTRO =        -0.01319981
  eigenvalues    EBANDS =      -638.49715182
  atomic energy  EATOM  =     13036.45147835
  Solvation  Ediel_sol  =         0.00000000
  ---------------------------------------------------
  free energy    TOTEN  =       -63.54164691 eV

  energy without entropy =      -63.52844710  energy(sigma->0) =      -63.53504700


--------------------------------------------------------------------------------------------------------




--------------------------------------- Iteration      1(   3)  ---------------------------------------


     EDDAV:  cpu time      9.8411: real time      9.8908
       DOS:  cpu time      0.0013: real time      0.0013
    --------------------------------------------
      LOOP:  cpu time      9.8424: real time      9.8921

 eigenvalue-minimisations  :  8576
 total energy-change (2. order) :-0.2180701E+03  (-0.2118023E+03)
 number of electron     360.0000000 magnetization      72.0000000
 augmentation part      360.0000000 magnetization      72.0000000

 Free energy of the ion-electron system (eV)
  ---------------------------------------------------
  alpha Z        PSCENC =       797.67744162
  Ewald energy   TEWEN  =    -12890.88470677
  -Hartree energ DENC   =     -1092.74952238
  -exchange      EXHF   =         0.00000000
  -V(xc)+E(xc)   XCENC  =      -294.01558994
  PAW double counting   =     10738.42099860    -9719.93139476
  entropy T*S    EENTRO =        -0.00005403
  eigenvalues    EBANDS =      -856.58039116
  atomic energy  EATOM  =     13036.45147835
  Solvation  Ediel_sol  =         0.00000000
  ---------------------------------------------------
  free energy    TOTEN  =      -281.61174047 eV

  energy without entropy =     -281.61168644  energy(sigma->0) =     -281.61171345


--------------------------------------------------------------------------------------------------------




--------------------------------------- Iteration      1(   4)  ---------------------------------------


     EDDAV:  cpu time      9.9956: real time     10.0489
       DOS:  cpu time      0.0010: real time      0.0010
    --------------------------------------------
      LOOP:  cpu time      9.9967: real time     10.0500

 eigenvalue-minimisations  :  8728
 total energy-change (2. order) :-0.8048315E+01  (-0.7952128E+01)
 number of electron     360.0000000 magnetization      72.0000000
 augmentation part      360.0000000 magnetization      72.0000000

 Free energy of the ion-electron system (eV)
  ---------------------------------------------------
  alpha Z        PSCENC =       797.67744162
  Ewald energy   TEWEN  =    -12890.88470677
  -Hartree energ DENC   =     -1092.74952238
  -exchange      EXHF   =         0.00000000
  -V(xc)+E(xc)   XCENC  =      -294.01558994
  PAW double counting   =     10738.42099860    -9719.93139476
  entropy T*S    EENTRO =        -0.00000758
  eigenvalues    EBANDS =      -864.62875263
  atomic energy  EATOM  =     13036.45147835
  Solvation  Ediel_sol  =         0.00000000
  ---------------------------------------------------
  free energy    TOTEN  =      -289.66005548 eV

  energy without entropy =     -289.66004791  energy(sigma->0) =     -289.66005169


--------------------------------------------------------------------------------------------------------




--------------------------------------- Iteration      1(   5)  ---------------------------------------


     EDDAV:  cpu time     10.3473: real time     10.3997
       DOS:  cpu time      0.0016: real time      0.0016
    CHARGE:  cpu time      0.4236: real time      0.4254
    MIXING:  cpu time      0.0074: real time      0.0075
    --------------------------------------------
      LOOP:  cpu time     10.7799: real time     10.8342

 eigenvalue-minimisations  :  9104
 total energy-change (2. order) :-0.3054800E+00  (-0.3046633E+00)
 number of electron     360.0000002 magnetization      48.8116333
 augmentation part      -66.8579465 magnetization      49.0244583

 Broyden mixing:
  rms(total) = 0.29025E+01    rms(broyden)= 0.29025E+01
  rms(prec ) = 0.30598E+01
  weight for this iteration     100.00

 Free energy of the ion-electron system (eV)
  ---------------------------------------------------
  alpha Z        PSCENC =       797.67744162
  Ewald energy   TEWEN  =    -12890.88470677
  -Hartree energ DENC   =     -1092.74952238
  -exchange      EXHF   =         0.00000000
  -V(xc)+E(xc)   XCENC  =      -294.01558994
  PAW double counting   =     10738.42099860    -9719.93139476
  entropy T*S    EENTRO =        -0.00000788
  eigenvalues    EBANDS =      -864.93423237
  atomic energy  EATOM  =     13036.45147835
  Solvation  Ediel_sol  =         0.00000000
  ---------------------------------------------------
  free energy    TOTEN  =      -289.96553553 eV

  energy without entropy =     -289.96552765  energy(sigma->0) =     -289.96553159


--------------------------------------------------------------------------------------------------------




--------------------------------------- Iteration      1(   6)  ---------------------------------------


    POTLOK:  cpu time      0.1445: real time      0.1458
    SETDIJ:  cpu time      0.5934: real time      0.5958
     EDDAV:  cpu time      9.2572: real time      9.3028
       DOS:  cpu time      0.0015: real time      0.0015
    CHARGE:  cpu time      0.4207: real time      0.4221
    MIXING:  cpu time      0.0075: real time      0.0075
    --------------------------------------------
      LOOP:  cpu time     10.4248: real time     10.4755

 eigenvalue-minimisations  :  7920
 total energy-change (2. order) : 0.5006748E+00  (-0.2706224E+01)
 number of electron     360.0000002 magnetization      27.9928745
 augmentation part      -66.2414410 magnetization      29.1792366

 Broyden mixing:
  rms(total) = 0.17181E+01    rms(broyden)= 0.17181E+01
  rms(prec ) = 0.17540E+01
  weight for this iteration     100.00

 eigenvalues of (default mixing * dielectric matrix)
  average eigenvalue GAMMA=   1.0070
  1.0070

 Free energy of the ion-electron system (eV)
  ---------------------------------------------------
  alpha Z        PSCENC =       797.67744162
  Ewald energy   TEWEN  =    -12890.88470677
  -Hartree energ DENC   =     -1146.37582148
  -exchange      EXHF   =         0.00000000
  -V(xc)+E(xc)   XCENC  =      -287.56535656
  PAW double counting   =     12988.88036497   -11973.84758463
  entropy T*S    EENTRO =        -0.00001620
  eigenvalues    EBANDS =      -813.80066004
  atomic energy  EATOM  =     13036.45147835
  Solvation  Ediel_sol  =         0.00000000
  ---------------------------------------------------
  free energy    TOTEN  =      -289.46486074 eV

  energy without entropy =     -289.46484454  energy(sigma->0) =     -289.46485264


--------------------------------------------------------------------------------------------------------




--------------------------------------- Iteration      1(   7)  ---------------------------------------


    POTLOK:  cpu time      0.1402: real time      0.1409
    SETDIJ:  cpu time      0.5962: real time      0.5980
     EDDAV:  cpu time      9.4425: real time      9.4891
       DOS:  cpu time      0.0013: real time      0.0013
    CHARGE:  cpu time      0.4197: real time      0.4215
    MIXING:  cpu time      0.0075: real time      0.0075
    --------------------------------------------
      LOOP:  cpu time     10.6074: real time     10.6583

 eigenvalue-minimisations  :  8056
 total energy-change (2. order) :-0.7323151E+01  (-0.8525000E+00)
 number of electron     360.0000002 magnetization       9.2942839
 augmentation part      -66.2322153 magnetization       9.9756834

 Broyden mixing:
  rms(total) = 0.90671E+00    rms(broyden)= 0.90671E+00
  rms(prec ) = 0.92223E+00
  weight for this iteration     100.00

 eigenvalues of (default mixing * dielectric matrix)
  average eigenvalue GAMMA=   1.4469
  0.8627  2.0311

 Free energy of the ion-electron system (eV)
  ---------------------------------------------------
  alpha Z        PSCENC =       797.67744162
  Ewald energy   TEWEN  =    -12890.88470677
  -Hartree energ DENC   =     -1162.86008663
  -exchange      EXHF   =         0.00000000
  -V(xc)+E(xc)   XCENC  =      -290.54546694
  PAW double counting   =     15040.89355701   -14027.42693348
  entropy T*S    EENTRO =        -0.00000000
  eigenvalues    EBANDS =      -800.09329448
  atomic energy  EATOM  =     13036.45147835
  Solvation  Ediel_sol  =         0.00000000
  ---------------------------------------------------
  free energy    TOTEN  =      -296.78801132 eV

  energy without entropy =     -296.78801132  energy(sigma->0) =     -296.78801132


--------------------------------------------------------------------------------------------------------




--------------------------------------- Iteration      1(   8)  ---------------------------------------


    POTLOK:  cpu time      0.1421: real time      0.1428
    SETDIJ:  cpu time      0.5950: real time      0.5968
     EDDAV:  cpu time      9.4666: real time      9.5196
       DOS:  cpu time      0.0008: real time      0.0008
    CHARGE:  cpu time      0.4177: real time      0.4195
    MIXING:  cpu time      0.0075: real time      0.0075
    --------------------------------------------
      LOOP:  cpu time     10.6298: real time     10.6870

 eigenvalue-minimisations  :  8128
 total energy-change (2. order) :-0.3255888E+01  (-0.1726544E+00)
 number of electron     360.0000002 magnetization       4.3779456
 augmentation part      -66.2465641 magnetization       4.6892521

 Broyden mixing:
  rms(total) = 0.33235E+00    rms(broyden)= 0.33235E+00
  rms(prec ) = 0.33752E+00
  weight for this iteration     100.00

 eigenvalues of (default mixing * dielectric matrix)
  average eigenvalue GAMMA=   1.3594
  2.4996  0.9262  0.6522

 Free energy of the ion-electron system (eV)
  ---------------------------------------------------
  alpha Z        PSCENC =       797.67744162
  Ewald energy   TEWEN  =    -12890.88470677
  -Hartree energ DENC   =     -1166.89042136
  -exchange      EXHF   =         0.00000000
  -V(xc)+E(xc)   XCENC  =      -290.32542814
  PAW double counting   =     16779.29661844   -15766.71860693
  entropy T*S    EENTRO =        -0.00000000
  eigenvalues    EBANDS =      -798.65027422
  atomic energy  EATOM  =     13036.45147835
  Solvation  Ediel_sol  =         0.00000000
  ---------------------------------------------------
  free energy    TOTEN  =      -300.04389901 eV

  energy without entropy =     -300.04389901  energy(sigma->0) =     -300.04389901


--------------------------------------------------------------------------------------------------------




--------------------------------------- Iteration      1(   9)  ---------------------------------------


    POTLOK:  cpu time      0.1399: real time      0.1405
    SETDIJ:  cpu time      0.5912: real time      0.5955
     EDDAV:  cpu time     10.3453: real time     10.4274
       DOS:  cpu time      0.0010: real time      0.0010
    CHARGE:  cpu time      0.4232: real time      0.4247
    MIXING:  cpu time      0.0075: real time      0.0076
    --------------------------------------------
      LOOP:  cpu time     11.5081: real time     11.5968

 eigenvalue-minimisations  :  9056
 total energy-change (2. order) :-0.3880507E+00  (-0.4317783E-01)
 number of electron     360.0000002 magnetization       2.2701056
 augmentation part      -66.2859560 magnetization       2.4248339

 Broyden mixing:
  rms(total) = 0.14724E+00    rms(broyden)= 0.14724E+00
  rms(prec ) = 0.14885E+00
  weight for this iteration     100.00

 eigenvalues of (default mixing * dielectric matrix)
  average eigenvalue GAMMA=   1.3312
  2.6364  1.2359  0.8334  0.6193

 Free energy of the ion-electron system (eV)
  ---------------------------------------------------
  alpha Z        PSCENC =       797.67744162
  Ewald energy   TEWEN  =    -12890.88470677
  -Hartree energ DENC   =     -1165.77400799
  -exchange      EXHF   =         0.00000000
  -V(xc)+E(xc)   XCENC  =      -290.37617042
  PAW double counting   =     17067.85427855   -16055.61499195
  entropy T*S    EENTRO =        -0.00000000
  eigenvalues    EBANDS =      -799.76527112
  atomic energy  EATOM  =     13036.45147835
  Solvation  Ediel_sol  =         0.00000000
  ---------------------------------------------------
  free energy    TOTEN  =      -300.43194973 eV

  energy without entropy =     -300.43194973  energy(sigma->0) =     -300.43194973


--------------------------------------------------------------------------------------------------------




--------------------------------------- Iteration      1(  10)  ---------------------------------------


    POTLOK:  cpu time      0.1394: real time      0.1400
    SETDIJ:  cpu time      0.5940: real time      0.5963
     EDDAV:  cpu time      9.4770: real time      9.5290
       DOS:  cpu time      0.0008: real time      0.0008
    CHARGE:  cpu time      0.4244: real time      0.4264
    MIXING:  cpu time      0.0076: real time      0.0076
    --------------------------------------------
      LOOP:  cpu time     10.6432: real time     10.7002

 eigenvalue-minimisations  :  8104
 total energy-change (2. order) :-0.1067066E+00  (-0.9834462E-02)
 number of electron     360.0000002 magnetization       0.7236404
 augmentation part      -66.2885778 magnetization       0.7916275

 Broyden mixing:
  rms(total) = 0.73010E-01    rms(broyden)= 0.73010E-01
  rms(prec ) = 0.74066E-01
  weight for this iteration     100.00

 eigenvalues of (default mixing * dielectric matrix)
  average eigenvalue GAMMA=   1.3768
  2.7074  1.7562  0.9707  0.8235  0.6260

 Free energy of the ion-electron system (eV)
  ---------------------------------------------------
  alpha Z        PSCENC =       797.67744162
  Ewald energy   TEWEN  =    -12890.88470677
  -Hartree energ DENC   =     -1165.92551788
  -exchange      EXHF   =         0.00000000
  -V(xc)+E(xc)   XCENC  =      -290.37833573
  PAW double counting   =     17075.13544031   -16062.90675426
  entropy T*S    EENTRO =        -0.00000000
  eigenvalues    EBANDS =      -799.70770194
  atomic energy  EATOM  =     13036.45147835
  Solvation  Ediel_sol  =         0.00000000
  ---------------------------------------------------
  free energy    TOTEN  =      -300.53865630 eV

  energy without entropy =     -300.53865630  energy(sigma->0) =     -300.53865630


--------------------------------------------------------------------------------------------------------




--------------------------------------- Iteration      1(  11)  ---------------------------------------


    POTLOK:  cpu time      0.1419: real time      0.1426
    SETDIJ:  cpu time      0.5916: real time      0.5933
     EDDAV:  cpu time     10.3107: real time     10.3624
       DOS:  cpu time      0.0009: real time      0.0009
    CHARGE:  cpu time      0.4169: real time      0.4185
    MIXING:  cpu time      0.0076: real time      0.0077
    --------------------------------------------
      LOOP:  cpu time     11.4696: real time     11.5254

 eigenvalue-minimisations  :  8984
 total energy-change (2. order) :-0.3101589E-01  (-0.3673983E-02)
 number of electron     360.0000002 magnetization       0.1752659
 augmentation part      -66.2736524 magnetization       0.1934710

 Broyden mixing:
  rms(total) = 0.28417E-01    rms(broyden)= 0.28417E-01
  rms(prec ) = 0.28906E-01
  weight for this iteration     100.00

 eigenvalues of (default mixing * dielectric matrix)
  average eigenvalue GAMMA=   1.4074
  2.9147  2.1834  1.1707  0.8551  0.6958  0.6244

 Free energy of the ion-electron system (eV)
  ---------------------------------------------------
  alpha Z        PSCENC =       797.67744162
  Ewald energy   TEWEN  =    -12890.88470677
  -Hartree energ DENC   =     -1167.04392541
  -exchange      EXHF   =         0.00000000
  -V(xc)+E(xc)   XCENC  =      -290.34037592
  PAW double counting   =     16996.15389557   -15983.89812998
  entropy T*S    EENTRO =        -0.00000000
  eigenvalues    EBANDS =      -798.68534966
  atomic energy  EATOM  =     13036.45147835
  Solvation  Ediel_sol  =         0.00000000
  ---------------------------------------------------
  free energy    TOTEN  =      -300.56967220 eV

  energy without entropy =     -300.56967220  energy(sigma->0) =     -300.56967220


--------------------------------------------------------------------------------------------------------




--------------------------------------- Iteration      1(  12)  ---------------------------------------


    POTLOK:  cpu time      0.1400: real time      0.1421
    SETDIJ:  cpu time      0.5936: real time      0.5953
     EDDAV:  cpu time      9.8763: real time      9.9296
       DOS:  cpu time      0.0033: real time      0.0033
    CHARGE:  cpu time      0.4305: real time      0.4325
    MIXING:  cpu time      0.0079: real time      0.0079
    --------------------------------------------
      LOOP:  cpu time     11.0515: real time     11.1108

 eigenvalue-minimisations  :  8528
 total energy-change (2. order) :-0.3137261E-02  (-0.4419983E-03)
 number of electron     360.0000002 magnetization       0.0622861
 augmentation part      -66.2730636 magnetization       0.0664684

 Broyden mixing:
  rms(total) = 0.10698E-01    rms(broyden)= 0.10698E-01
  rms(prec ) = 0.11356E-01
  weight for this iteration     100.00

 eigenvalues of (default mixing * dielectric matrix)
  average eigenvalue GAMMA=   1.3644
  3.0064  2.3248  1.2004  0.8778  0.8778  0.6084  0.6550

 Free energy of the ion-electron system (eV)
  ---------------------------------------------------
  alpha Z        PSCENC =       797.67744162
  Ewald energy   TEWEN  =    -12890.88470677
  -Hartree energ DENC   =     -1167.12905586
  -exchange      EXHF   =         0.00000000
  -V(xc)+E(xc)   XCENC  =      -290.34488366
  PAW double counting   =     16960.04486255   -15947.76660773
  entropy T*S    EENTRO =        -0.00000000
  eigenvalues    EBANDS =      -798.62133796
  atomic energy  EATOM  =     13036.45147835
  Solvation  Ediel_sol  =         0.00000000
  ---------------------------------------------------
  free energy    TOTEN  =      -300.57280946 eV

  energy without entropy =     -300.57280946  energy(sigma->0) =     -300.57280946


--------------------------------------------------------------------------------------------------------




--------------------------------------- Iteration      1(  13)  ---------------------------------------


    POTLOK:  cpu time      0.1390: real time      0.1397
    SETDIJ:  cpu time      0.5947: real time      0.5968
     EDDAV:  cpu time     11.1040: real time     11.1758
       DOS:  cpu time      0.0011: real time      0.0011
    CHARGE:  cpu time      0.4205: real time      0.4224
    MIXING:  cpu time      0.0082: real time      0.0082
    --------------------------------------------
      LOOP:  cpu time     12.2674: real time     12.3441

 eigenvalue-minimisations  :  9848
 total energy-change (2. order) :-0.9582892E-04  (-0.6121852E-04)
 number of electron     360.0000002 magnetization       0.0167000
 augmentation part      -66.2746045 magnetization       0.0175657

 Broyden mixing:
  rms(total) = 0.46253E-02    rms(broyden)= 0.46253E-02
  rms(prec ) = 0.48254E-02
  weight for this iteration     100.00

 eigenvalues of (default mixing * dielectric matrix)
  average eigenvalue GAMMA=   1.3481
  3.0542  2.4250  1.0890  1.0890  1.0094  0.8618  0.6487  0.6081

 Free energy of the ion-electron system (eV)
  ---------------------------------------------------
  alpha Z        PSCENC =       797.67744162
  Ewald energy   TEWEN  =    -12890.88470677
  -Hartree energ DENC   =     -1167.01948976
  -exchange      EXHF   =         0.00000000
  -V(xc)+E(xc)   XCENC  =      -290.35544825
  PAW double counting   =     16947.39561014   -15935.10681380
  entropy T*S    EENTRO =        -0.00000000
  eigenvalues    EBANDS =      -798.73097681
  atomic energy  EATOM  =     13036.45147835
  Solvation  Ediel_sol  =         0.00000000
  ---------------------------------------------------
  free energy    TOTEN  =      -300.57290529 eV

  energy without entropy =     -300.57290529  energy(sigma->0) =     -300.57290529


--------------------------------------------------------------------------------------------------------




--------------------------------------- Iteration      1(  14)  ---------------------------------------


    POTLOK:  cpu time      0.1390: real time      0.1398
    SETDIJ:  cpu time      0.5955: real time      0.5980
     EDDAV:  cpu time      9.6697: real time      9.7184
       DOS:  cpu time      0.0010: real time      0.0010
    CHARGE:  cpu time      0.4218: real time      0.4239
    MIXING:  cpu time      0.0081: real time      0.0081
    --------------------------------------------
      LOOP:  cpu time     10.8351: real time     10.8892

 eigenvalue-minimisations  :  8304
 total energy-change (2. order) :-0.1582851E-04  (-0.9478784E-05)
 number of electron     360.0000002 magnetization       0.0050456
 augmentation part      -66.2742694 magnetization       0.0054064

 Broyden mixing:
  rms(total) = 0.16662E-02    rms(broyden)= 0.16662E-02
  rms(prec ) = 0.17681E-02
  weight for this iteration     100.00

 eigenvalues of (default mixing * dielectric matrix)
  average eigenvalue GAMMA=   1.3330
  3.0831  2.4566  1.4537  1.2019  0.8845  0.8845  0.7800  0.6116  0.6415

 Free energy of the ion-electron system (eV)
  ---------------------------------------------------
  alpha Z        PSCENC =       797.67744162
  Ewald energy   TEWEN  =    -12890.88470677
  -Hartree energ DENC   =     -1167.02267041
  -exchange      EXHF   =         0.00000000
  -V(xc)+E(xc)   XCENC  =      -290.35616914
  PAW double counting   =     16942.83311894   -15930.54136733
  entropy T*S    EENTRO =        -0.00000000
  eigenvalues    EBANDS =      -798.73004637
  atomic energy  EATOM  =     13036.45147835
  Solvation  Ediel_sol  =         0.00000000
  ---------------------------------------------------
  free energy    TOTEN  =      -300.57292112 eV

  energy without entropy =     -300.57292112  energy(sigma->0) =     -300.57292112


--------------------------------------------------------------------------------------------------------




--------------------------------------- Iteration      1(  15)  ---------------------------------------


    POTLOK:  cpu time      0.1391: real time      0.1398
    SETDIJ:  cpu time      0.5950: real time      0.5969
     EDDAV:  cpu time      9.9125: real time      9.9631
       DOS:  cpu time      0.0008: real time      0.0008
    CHARGE:  cpu time      0.4274: real time      0.4294
    MIXING:  cpu time      0.0083: real time      0.0083
    --------------------------------------------
      LOOP:  cpu time     11.0830: real time     11.1382

 eigenvalue-minimisations  :  8600
 total energy-change (2. order) :-0.3115510E-05  (-0.1618005E-05)
 number of electron     360.0000002 magnetization       0.0018537
 augmentation part      -66.2744268 magnetization       0.0020534

 Broyden mixing:
  rms(total) = 0.73572E-03    rms(broyden)= 0.73572E-03
  rms(prec ) = 0.78337E-03
  weight for this iteration     100.00

 eigenvalues of (default mixing * dielectric matrix)
  average eigenvalue GAMMA=   1.2980
  3.0940  2.4291  1.6418  1.1015  0.9720  0.9720  0.8327  0.7014  0.6179  0.6179

 Free energy of the ion-electron system (eV)
  ---------------------------------------------------
  alpha Z        PSCENC =       797.67744162
  Ewald energy   TEWEN  =    -12890.88470677
  -Hartree energ DENC   =     -1167.00806536
  -exchange      EXHF   =         0.00000000
  -V(xc)+E(xc)   XCENC  =      -290.35671873
  PAW double counting   =     16942.28751698   -15929.99488491
  entropy T*S    EENTRO =        -0.00000000
  eigenvalues    EBANDS =      -798.74498541
  atomic energy  EATOM  =     13036.45147835
  Solvation  Ediel_sol  =         0.00000000
  ---------------------------------------------------
  free energy    TOTEN  =      -300.57292423 eV

  energy without entropy =     -300.57292423  energy(sigma->0) =     -300.57292423


--------------------------------------------------------------------------------------------------------




--------------------------------------- Iteration      1(  16)  ---------------------------------------


    POTLOK:  cpu time      0.1390: real time      0.1397
    SETDIJ:  cpu time      0.5941: real time      0.5964
     EDDAV:  cpu time      6.6465: real time      6.6884
       DOS:  cpu time      0.0009: real time      0.0009
    --------------------------------------------
      LOOP:  cpu time      7.3805: real time      7.4253

 eigenvalue-minimisations  :  4840
 total energy-change (2. order) :-0.4401079E-06  (-0.1315961E-06)
 number of electron     360.0000002 magnetization       0.0018537
 augmentation part      -66.2744268 magnetization       0.0020534

 Free energy of the ion-electron system (eV)
  ---------------------------------------------------
  alpha Z        PSCENC =       797.67744162
  Ewald energy   TEWEN  =    -12890.88470677
  -Hartree energ DENC   =     -1167.00052030
  -exchange      EXHF   =         0.00000000
  -V(xc)+E(xc)   XCENC  =      -290.35707526
  PAW double counting   =     16942.23278339   -15929.93986035
  entropy T*S    EENTRO =        -0.00000000
  eigenvalues    EBANDS =      -798.75246534
  atomic energy  EATOM  =     13036.45147835
  Solvation  Ediel_sol  =         0.00000000
  ---------------------------------------------------
  free energy    TOTEN  =      -300.57292467 eV

  energy without entropy =     -300.57292467  energy(sigma->0) =     -300.57292467


--------------------------------------------------------------------------------------------------------




 average (electrostatic) potential at core
  the test charge radii are     1.1631  1.0808
  (the norm of the test charge is              1.0000)
       1 -33.4904       2 -33.4699       3 -33.5299       4 -33.5854       5 -33.5639
       6 -33.4570       7 -33.6657       8 -33.5203       9 -33.6211      10 -33.2805
      11 -33.4682      12 -33.3536      13 -33.5029      14 -33.5559      15 -33.4061
      16 -33.6003      17 -33.3757      18 -33.4767      19 -33.5542      20 -33.5236
      21 -33.5313      22 -33.3175      23 -33.3951      24 -33.4469      25 -33.5360
      26 -33.3586      27 -33.5007      28 -33.3265      29 -33.4669      30 -33.4281
      31 -33.3638      32 -33.5437      33 -33.4156      34 -33.2817      35 -33.8101
      36 -33.3314      37 -54.7759      38 -54.7032      39 -54.6685      40 -54.9212
      41 -54.9040      42 -54.8311      43 -54.6554      44 -54.8466      45 -54.9981
      46 -54.6348      47 -54.8217      48 -54.5959      49 -54.7229      50 -54.8825
      51 -54.8703      52 -54.7255      53 -54.8244      54 -54.8708      55 -54.7601
      56 -55.2458      57 -54.8846      58 -54.7713      59 -54.7246      60 -54.7350
      61 -54.7009      62 -54.9308      63 -54.8374      64 -54.9946      65 -54.8142
      66 -54.8971      67 -54.9027      68 -54.7469      69 -54.8664      70 -54.7683
      71 -54.8920      72 -55.0034
 
 
 
 E-fermi :   3.5209     XC(G=0):  -9.3859     alpha+bet : -8.8296

 Fermi energy:         3.5208710703

 spin component 1

 k-point     1 :       0.0000    0.0000    0.0000
  band No.  band energies     occupation 
      1     -10.8856      1.00000
      2     -10.5607      1.00000
      3     -10.4441      1.00000
      4     -10.3577      1.00000
      5     -10.2447      1.00000
      6     -10.1940      1.00000
      7     -10.1246      1.00000
      8     -10.0468      1.00000
      9      -9.9730      1.00000
     10      -9.9114      1.00000
     11      -9.8448      1.00000
     12      -9.8221      1.00000
     13      -9.7512      1.00000
     14      -9.7149      1.00000
     15      -9.6736      1.00000
     16      -9.6075      1.00000
     17      -9.5928      1.00000
     18      -9.5455      1.00000
     19      -9.4864      1.00000
     20      -9.4290      1.00000
     21      -9.3925      1.00000
     22      -9.3740      1.00000
     23      -9.3321      1.00000
     24      -9.3093      1.00000
     25      -9.2886      1.00000
     26      -9.2521      1.00000
     27      -9.2049      1.00000
     28      -9.1618      1.00000
     29      -9.1116      1.00000
     30      -9.0696      1.00000
     31      -9.0317      1.00000
     32      -9.0248      1.00000
     33      -9.0086      1.00000
     34      -8.9308      1.00000
     35      -8.9269      1.00000
     36      -8.8705      1.00000
     37      -5.3534      1.00000
     38      -5.3429      1.00000
     39      -5.2657      1.00000
     40      -5.2630      1.00000
     41      -5.0725      1.00000
     42      -5.0403      1.00000
     43      -4.9848      1.00000
     44      -4.9306      1.00000
     45      -4.7943      1.00000
     46      -4.7330      1.00000
     47      -4.5513      1.00000
     48      -4.5060      1.00000
     49      -4.4663      1.00000
     50      -4.4481      1.00000
     51      -4.3731      1.00000
     52      -4.3701      1.00000
     53      -4.3461      1.00000
     54      -4.3375      1.00000
     55      -4.3064      1.00000
     56      -4.2780      1.00000
     57      -4.2685      1.00000
     58      -4.2206      1.00000
     59      -4.1969      1.00000
     60      -4.1772      1.00000
     61      -4.1175      1.00000
     62      -4.0296      1.00000
     63      -3.9595      1.00000
     64      -3.8799      1.00000
     65      -3.8639      1.00000
     66      -3.8549      1.00000
     67      -3.7362      1.00000
     68      -3.6591      1.00000
     69      -3.5172      1.00000
     70      -3.4615      1.00000
     71      -2.4870      1.00000
     72      -2.3541      1.00000
     73      -1.8457      1.00000
     74      -1.6450      1.00000
     75      -1.5468      1.00000
     76      -1.5148      1.00000
     77      -1.4802      1.00000
     78      -1.3993      1.00000
     79      -1.3492      1.00000
     80      -1.2707      1.00000
     81      -1.1839      1.00000
     82      -1.1348      1.00000
     83      -1.0885      1.00000
     84      -1.0602      1.00000
     85      -1.0099      1.00000
     86      -0.8294      1.00000
     87      -0.7993      1.00000
     88      -0.7725      1.00000
     89      -0.7333      1.00000
     90      -0.6501      1.00000
     91      -0.5117      1.00000
     92      -0.4723      1.00000
     93      -0.4429      1.00000
     94      -0.3538      1.00000
     95      -0.1075      1.00000
     96      -0.0782      1.00000
     97      -0.0542      1.00000
     98      -0.0150      1.00000
     99       0.0118      1.00000
    100       0.0849      1.00000
    101       0.1121      1.00000
    102       0.1885      1.00000
    103       0.2204      1.00000
    104       0.2510      1.00000
    105       0.2922      1.00000
    106       0.3209      1.00000
    107       0.3743      1.00000
    108       0.4025      1.00000
    109       0.4379      1.00000
    110       0.4725      1.00000
    111       0.4946      1.00000
    112       0.5285      1.00000
    113       0.5797      1.00000
    114       0.6375      1.00000
    115       0.6648      1.00000
    116       0.6865      1.00000
    117       0.7116      1.00000
    118       0.7441      1.00000
    119       0.7683      1.00000
    120       0.7847      1.00000
    121       0.8134      1.00000
    122       0.8386      1.00000
    123       0.8557      1.00000
    124       0.9069      1.00000
    125       0.9960      1.00000
    126       1.0069      1.00000
    127       1.0659      1.00000
    128       1.0826      1.00000
    129       1.1198      1.00000
    130       1.1423      1.00000
    131       1.1820      1.00000
    132       1.2250      1.00000
    133       1.2955      1.00000
    134       1.3391      1.00000
    135       1.3639      1.00000
    136       1.4041      1.00000
    137       1.4563      1.00000
    138       1.4956      1.00000
    139       1.5196      1.00000
    140       1.5416      1.00000
    141       1.5929      1.00000
    142       1.5990      1.00000
    143       1.6543      1.00000
    144       1.6766      1.00000
    145       1.7306      1.00000
    146       1.7736      1.00000
    147       1.8122      1.00000
    148       1.8339      1.00000
    149       1.8412      1.00000
    150       1.9068      1.00000
    151       1.9356      1.00000
    152       1.9511      1.00000
[...]
   -.434E+01 -.108E+02 -.190E+02   0.461E+01 0.122E+02 0.206E+02   -.286E+00 -.191E+01 -.246E+01   0.859E-04 0.780E-04 0.722E-04
   0.169E+01 0.923E+01 0.254E+02   -.157E+01 -.113E+02 -.287E+02   -.122E-02 0.224E+01 0.252E+01   -.308E-04 0.370E-04 0.107E-03
   0.311E+01 -.240E+01 0.210E+02   -.325E+01 0.212E+01 -.223E+02   -.648E-01 0.960E+00 0.195E+01   -.111E-03 0.261E-04 -.902E-04
   -.573E+01 0.906E+01 0.337E+02   0.613E+01 -.101E+02 -.354E+02   -.259E+00 0.896E+00 0.131E+01   -.146E-03 0.139E-03 -.111E-03
   0.260E+01 0.642E+01 0.221E+02   -.272E+01 -.713E+01 -.236E+02   -.848E-01 0.143E+01 0.158E+01   -.144E-03 -.151E-03 -.298E-03
   0.479E+01 0.115E+02 0.310E+02   -.502E+01 -.125E+02 -.328E+02   -.356E+00 0.237E+00 0.127E+01   -.281E-03 0.678E-04 0.166E-03
   0.375E+01 0.152E+02 0.216E+02   -.369E+01 -.165E+02 -.231E+02   0.700E-01 0.656E+00 0.161E+01   -.130E-03 -.312E-03 0.118E-03
   -.407E+00 0.207E+01 0.302E+02   0.554E+00 -.258E+01 -.321E+02   -.328E-02 0.525E+00 0.190E+01   -.145E-03 0.166E-03 0.132E-03
   -.240E+01 0.605E+01 0.153E+02   0.217E+01 -.655E+01 -.163E+02   0.433E+00 0.979E+00 0.190E+01   0.344E-03 0.299E-03 -.325E-03
   0.141E+01 -.185E+01 -.325E+02   -.125E+01 0.272E+01 0.344E+02   -.750E-02 -.113E+01 -.147E+01   -.957E-04 -.341E-04 -.253E-03
   -.880E+01 -.247E+02 -.313E+02   0.903E+01 0.263E+02 0.334E+02   -.202E+00 -.132E+01 -.177E+01   0.297E-03 -.389E-04 0.483E-04
   0.150E+01 0.492E+00 -.236E+02   -.183E+01 0.276E+00 0.251E+02   0.261E-01 -.119E+01 -.170E+01   0.409E-04 0.339E-03 -.271E-03
   0.135E+02 0.738E+01 -.317E+02   -.143E+02 -.745E+01 0.338E+02   0.587E+00 -.480E-01 -.202E+01   0.166E-03 -.258E-03 -.477E-04
   0.656E+01 0.122E+01 -.264E+02   -.699E+01 -.838E+00 0.280E+02   0.619E+00 -.924E+00 -.193E+01   -.162E-03 -.269E-03 -.212E-03
   0.162E+02 -.630E+01 -.287E+02   -.165E+02 0.742E+01 0.300E+02   -.449E-01 -.824E+00 -.142E+01   -.375E-03 0.123E-03 -.931E-04
   0.923E+00 -.140E+02 -.325E+02   -.559E+00 0.152E+02 0.343E+02   -.699E+00 -.120E+01 -.132E+01   -.526E-03 0.130E-03 -.207E-03
   0.871E+01 0.514E+01 0.445E+02   -.918E+01 -.619E+01 -.467E+02   0.167E+00 0.106E+01 0.137E+01   0.342E-03 0.115E-03 -.231E-04
   -.154E+01 0.125E+02 0.282E+02   0.117E+01 -.137E+02 -.299E+02   0.807E-01 0.124E+01 0.148E+01   0.140E-03 -.196E-03 -.205E-03
   -.449E+01 -.721E+01 0.242E+02   0.444E+01 0.797E+01 -.259E+02   0.161E-02 -.108E+01 0.192E+01   0.490E-04 -.287E-03 0.973E-04
   0.602E+01 -.182E+02 0.161E+02   -.607E+01 0.194E+02 -.177E+02   0.574E-01 -.128E+01 0.191E+01   0.789E-04 0.136E-03 -.746E-04
   -.178E+02 -.160E+02 0.266E+02   0.181E+02 0.169E+02 -.286E+02   0.154E-01 -.100E+01 0.162E+01   0.120E-04 0.275E-03 0.189E-03
   -.110E+02 -.126E+02 -.278E+02   0.111E+02 0.135E+02 0.294E+02   0.177E+00 -.429E+00 -.131E+01   0.350E-03 0.642E-04 -.198E-03
   0.904E+01 -.619E+00 -.212E+02   -.947E+01 -.545E-01 0.229E+02   0.101E+00 0.106E+01 -.176E+01   0.365E-03 0.243E-03 0.220E-03
   0.843E+01 -.844E-01 -.227E+02   -.893E+01 -.299E+00 0.241E+02   0.494E+00 0.551E+00 -.789E+00   0.195E-03 -.129E-03 -.144E-03
   -.851E-01 0.223E+02 -.253E+02   0.296E+00 -.240E+02 0.269E+02   -.111E+00 0.118E+01 -.134E+01   0.204E-03 -.113E-03 0.200E-03
   0.108E+02 0.377E+01 -.187E+02   -.114E+02 -.458E+01 0.206E+02   0.249E+00 0.562E+00 -.218E+01   -.323E-04 -.163E-03 0.379E-04
   0.751E+01 0.562E+01 -.102E+02   -.747E+01 -.646E+01 0.113E+02   0.675E-01 0.880E+00 -.189E+01   -.168E-03 -.191E-04 0.144E-03
   0.897E+01 0.174E+02 -.167E+02   -.955E+01 -.185E+02 0.180E+02   0.240E+00 0.750E+00 -.197E+01   0.155E-03 0.321E-03 0.300E-03
   -.919E+01 0.103E+02 -.232E+02   0.932E+01 -.116E+02 0.251E+02   -.119E-01 0.146E+01 -.141E+01   -.363E-03 -.764E-04 0.921E-04
   -.618E+01 0.130E+02 -.281E+02   0.586E+01 -.143E+02 0.297E+02   0.566E+00 0.115E+01 -.160E+01   0.224E-04 0.703E-04 0.366E-03
   -.130E+01 0.744E+01 -.203E+02   0.140E+01 -.813E+01 0.221E+02   0.161E+00 0.277E+00 -.227E+01   -.265E-03 0.231E-04 0.241E-03
   -.165E+01 -.552E+01 0.207E+02   0.226E+01 0.685E+01 -.222E+02   -.160E+00 -.109E+01 0.117E+01   -.368E-03 -.117E-03 0.203E-03
   0.866E+01 -.310E+01 0.237E+02   -.941E+01 0.324E+01 -.257E+02   0.898E+00 0.359E+00 0.238E+01   0.132E-03 -.613E-04 0.181E-03
   0.178E+02 0.151E+02 0.178E+02   -.189E+02 -.155E+02 -.189E+02   0.167E+01 0.617E+00 0.147E+01   -.118E-05 -.169E-03 -.291E-03
   -.739E+01 -.234E+02 0.207E+02   0.757E+01 0.249E+02 -.226E+02   0.184E-01 -.105E+01 0.244E+01   0.105E-03 -.139E-03 -.170E-03
   0.689E+01 -.147E+02 0.151E+02   -.687E+01 0.159E+02 -.165E+02   -.210E+00 -.575E+00 0.185E+01   -.124E-03 0.150E-03 -.162E-03
   0.108E+02 0.177E+02 0.279E+02   -.117E+02 -.183E+02 -.296E+02   0.127E+01 0.398E-01 0.181E+01   0.315E-03 -.231E-03 0.468E-05
   -.238E+01 -.209E+02 -.374E+02   0.198E+01 0.223E+02 0.396E+02   0.369E+00 -.109E+01 -.164E+01   0.359E-03 0.134E-03 -.246E-03
 -----------------------------------------------------------------------------------------------
   0.777E+01 0.140E+00 -.104E+01   0.533E-14 0.000E+00 0.128E-12   -.777E+01 -.141E+00 0.104E+01   -.335E-03 0.247E-03 0.112E-05
 
 
 POSITION                                       TOTAL-FORCE (eV/Angst)
 -----------------------------------------------------------------------------------
      0.78827      0.51647      1.44740        -0.213197      0.178871     -0.244810
      2.74042     10.87568      3.91381         0.107409     -0.093785      0.089757
      7.13330      2.73575      4.18420        -0.714241     -0.668330     -0.336243
      7.03169      6.59672      3.94558        -0.333344      0.128203     -0.369440
      7.05983     11.11203      4.22075        -0.272658      0.313687     -0.451849
     11.05583      2.72593      3.97500         0.639213     -0.107589      0.306902
     10.91769      6.72950      4.13218         0.345801     -0.017702     -0.138288
     11.19703     11.02410      4.10700        -0.237140      0.011965     -0.199624
      0.77728      1.82728      6.93134        -0.006041      0.002124      0.154944
      0.82184      5.88668      6.83788        -0.040739      0.011767     -0.318458
      0.93547     10.19752      6.80307         0.052415     -0.213648      0.319449
      5.05269      1.84384      7.09175         0.037111      0.503294      0.016868
      5.14531      5.91881      6.99636        -0.710875      0.418580      0.428522
      4.99647     10.27193      6.97822        -0.311512     -0.431108      0.275896
      9.10319      1.90137      7.02753         0.628002      0.150244     -0.391168
      9.16410      6.26722      6.91972         0.171629     -0.354122      0.072869
      3.11163      7.05120      4.18195        -0.164698     -0.296237      0.215411
      2.84007      2.74533      4.10831         0.026579      0.108613     -0.180239
      9.08202     10.38348      7.11018         0.169521     -0.278921      0.203835
     11.00305      8.23594      9.75196         0.230538      0.058527     -0.276220
     11.30657     12.21890      9.61476        -0.176846      0.227873     -0.466809
      0.84299      5.13148      1.38885        -0.255438     -0.585781      0.162720
      0.59122      8.73588      1.55493         0.009072      0.234169     -0.184757
      4.59746      0.40955      1.56473         0.244214      0.018716      0.109570
      4.80093      4.75299      1.25934        -0.052263     -0.116410      0.382914
      9.06885      0.43557      1.41603        -0.175169      0.250982     -0.215605
      8.76212      4.28081      1.37093        -0.240463     -0.004663     -0.446381
      4.94999      9.04180      1.39694         0.182855     -0.393189     -0.432933
      2.66919      3.95079      9.72577         0.256977      0.089655     -0.045287
      2.75301      8.01067      9.63186         0.279455      0.000438     -0.190389
      2.99421     12.46757      9.61804        -0.154702     -0.196704      0.581497
      7.15995      3.86951      9.74513         0.057387      0.062031     -0.350329
      6.96822      8.10910      9.55256        -0.179750      0.152224      0.287032
      6.82483     12.14987      9.69593         0.615172      0.786783      0.662392
     11.15939      4.07782      9.75758        -0.017897     -0.552793     -0.798105
      9.08418      8.83188      1.57776         0.115360      0.152208     -0.789736
     11.25878     12.46537      6.92150        -0.206211      0.678425      0.612049
      2.91663      4.29695      7.22797         0.141605     -0.127293     -0.344088
      3.09278      8.34083      7.08285        -0.199596      0.723416      0.047752
      7.19836      0.28620      7.26333        -0.585603     -0.776277     -0.522596
      7.23977      4.51088      7.13247         0.130933     -0.624715      0.168468
      7.01875      8.52810      7.05612         0.143037      0.012478     -0.035361
     11.16144      4.19081      6.90799         0.207041      0.476758      0.872058
      9.11608      0.28623      3.91876         0.152339     -0.263399      0.373971
      0.81238      0.10541      3.93083         0.030525      0.281250      0.266531
      0.90529      4.53785      3.90050        -0.300398     -0.420470     -0.114244
      1.01700      8.66872      4.06064        -0.250875     -0.114172      0.007562
      5.00722      0.39414      4.09858         0.182857     -0.537134     -0.290242
      5.04562      4.28192      3.93276        -0.316653      0.293918     -0.125757
      5.23299      8.55788      3.83799        -0.335480     -0.001820      0.512533
      3.13185      0.18216      7.20485        -0.300527      0.003147     -0.769766
     11.28374      8.61960      7.22391        -0.288785      0.084820     -0.122484
     11.13663     10.65042      1.52760        -0.051457     -0.316479      0.233855
      2.78330      2.25095      1.53808         0.001808     -0.066092      0.330807
     11.08557      2.24837      1.52122         0.326740     -0.130811     -0.364012
      9.10768      4.40203      3.85059         0.270109      0.478379      0.274511
      0.82490      2.12383      9.49960        -0.323980      0.388435     -0.109956
      0.76552      6.32777      9.32438        -0.010788      0.167063      0.636173
      1.00773     10.77057      9.31574         0.100315     -0.532068      0.286391
      5.11022      2.34937      9.64618        -0.282623     -0.253157     -0.259252
      4.93856      6.37827      9.66775         0.101305      0.047149     -0.737623
      4.96087     10.53755      9.60993        -0.347323     -0.376893     -0.626506
      9.22955      2.21597      9.47223         0.120749      0.191336      0.520857
      9.12084      6.50543      9.43280         0.242920     -0.177100      0.051128
      9.08448     10.66524      9.66344         0.260642     -0.412003     -0.403634
      2.88838      6.58785      1.66019         0.457860      0.249418     -0.388957
      2.85156     10.56451      1.37905         0.151916      0.504434      0.409364
      6.99625      2.21873      1.53801         0.533394      0.205697      0.397694
      6.95897      6.18503      1.34580         0.205053      0.419418      0.563519
      7.13798     10.51921      1.58627        -0.182381      0.642614      0.472576
     11.17883      6.75681      1.58788         0.334306     -0.534153      0.106639
      8.99165      8.38572      3.98497        -0.024509      0.265908      0.626135
 -----------------------------------------------------------------------------------
    total drift:                               -0.000615     -0.000616      0.000486


--------------------------------------------------------------------------------------------------------



  FREE ENERGIE OF THE ION-ELECTRON SYSTEM (eV)
  ---------------------------------------------------
  free  energy   TOTEN  =      -300.57292467 eV

  energy  without entropy=     -300.57292467  energy(sigma->0) =     -300.57292467
 


--------------------------------------------------------------------------------------------------------


    POTLOK:  cpu time      0.7337: real time      0.7364


--------------------------------------------------------------------------------------------------------


     LOOP+:  cpu time    181.9844: real time    182.9690
    4ORBIT:  cpu time      0.0000: real time      0.0000



 total charge

# of ion       s       p       d       tot
------------------------------------------
    1        1.323   0.762   0.057   2.142
    2        1.330   0.753   0.055   2.138
    3        1.330   0.740   0.056   2.126
    4        1.327   0.749   0.056   2.132
    5        1.330   0.718   0.045   2.093
    6        1.328   0.762   0.056   2.146
    7        1.328   0.744   0.054   2.126
    8        1.326   0.749   0.054   2.130
    9        1.335   0.709   0.047   2.091
   10        1.326   0.759   0.055   2.141
   11        1.325   0.740   0.053   2.118
   12        1.322   0.778   0.056   2.156
   13        1.331   0.732   0.052   2.114
   14        1.332   0.724   0.050   2.106
   15        1.319   0.789   0.062   2.170
   16        1.318   0.757   0.055   2.130
   17        1.330   0.757   0.056   2.143
   18        1.326   0.738   0.050   2.114
   19        1.331   0.724   0.050   2.104
   20        1.325   0.746   0.052   2.123
   21        1.330   0.732   0.052   2.114
   22        1.307   0.806   0.057   2.170
   23        1.324   0.767   0.060   2.151
   24        1.325   0.750   0.051   2.127
   25        1.335   0.725   0.053   2.114
   26        1.330   0.750   0.057   2.137
   27        1.315   0.784   0.061   2.160
   28        1.321   0.791   0.060   2.173
   29        1.323   0.748   0.054   2.126
   30        1.328   0.741   0.050   2.119
   31        1.314   0.800   0.064   2.178
   32        1.318   0.762   0.055   2.135
   33        1.327   0.758   0.055   2.140
   34        1.324   0.799   0.061   2.185
   35        1.346   0.659   0.042   2.047
   36        1.314   0.808   0.064   2.187
   37        1.478   2.267   0.027   3.773
   38        1.474   2.297   0.029   3.800
   39        1.476   2.277   0.026   3.780
   40        1.473   2.330   0.036   3.839
   41        1.474   2.309   0.031   3.814
   42        1.477   2.294   0.030   3.802
   43        1.479   2.256   0.023   3.759
   44        1.476   2.301   0.032   3.810
   45        1.475   2.317   0.035   3.827
   46        1.476   2.284   0.026   3.786
   47        1.477   2.293   0.032   3.802
   48        1.478   2.271   0.025   3.773
   49        1.474   2.290   0.027   3.791
   50        1.476   2.312   0.033   3.821
   51        1.477   2.322   0.036   3.834
   52        1.474   2.290   0.027   3.791
   53        1.477   2.286   0.031   3.794
   54        1.478   2.295   0.032   3.805
   55        1.476   2.302   0.030   3.808
   56        1.475   2.327   0.041   3.844
   57        1.477   2.288   0.030   3.795
   58        1.474   2.306   0.031   3.811
   59        1.473   2.314   0.031   3.818
   60        1.479   2.283   0.029   3.792
   61        1.478   2.274   0.027   3.779
   62        1.479   2.304   0.035   3.817
   63        1.476   2.308   0.033   3.816
   64        1.477   2.305   0.033   3.816
   65        1.481   2.280   0.031   3.792
   66        1.473   2.319   0.035   3.826
   67        1.484   2.281   0.034   3.798
   68        1.480   2.267   0.028   3.775
   69        1.479   2.292   0.032   3.803
   70        1.476   2.296   0.030   3.802
   71        1.480   2.298   0.035   3.813
   72        1.477   2.329   0.037   3.843
--------------------------------------------------
tot        100.888 109.779   3.084 213.752



 magnetization (x)

# of ion       s       p       d       tot
------------------------------------------
    1       -0.000  -0.000  -0.000  -0.000
    2       -0.000   0.000  -0.000   0.000
    3       -0.000   0.000   0.000   0.000
    4       -0.000   0.000   0.000   0.000
    5       -0.000   0.000   0.000   0.000
    6       -0.000   0.000   0.000   0.000
    7       -0.000   0.000   0.000   0.000
    8       -0.000   0.000   0.000   0.000
    9       -0.000   0.000   0.000   0.000
   10       -0.000   0.000   0.000   0.000
   11       -0.000   0.000   0.000   0.000
   12       -0.000   0.000  -0.000   0.000
   13       -0.000   0.000   0.000   0.000
   14       -0.000   0.000   0.000   0.000
   15       -0.000   0.000   0.000   0.000
   16       -0.000   0.000   0.000   0.000
   17       -0.000   0.000   0.000   0.000
   18       -0.000   0.000  -0.000  -0.000
   19       -0.000   0.000   0.000   0.000
   20       -0.000   0.000   0.000   0.000
   21       -0.000   0.000   0.000   0.000
   22       -0.000   0.000  -0.000  -0.000
   23       -0.000   0.000  -0.000   0.000
   24       -0.000  -0.000  -0.000  -0.000
   25       -0.000   0.000  -0.000  -0.000
   26       -0.000   0.000   0.000   0.000
   27       -0.000   0.000   0.000   0.000
   28       -0.000   0.000  -0.000  -0.000
   29       -0.000  -0.000  -0.000  -0.000
   30       -0.000  -0.000  -0.000  -0.000
   31       -0.000  -0.000  -0.000  -0.000
   32       -0.000   0.000   0.000   0.000
   33       -0.000   0.000   0.000   0.000
   34       -0.000   0.000  -0.000   0.000
   35       -0.000   0.000   0.000   0.000
   36       -0.000   0.000   0.000   0.000
   37       -0.000  -0.000   0.000  -0.000
   38       -0.000  -0.000  -0.000  -0.000
   39       -0.000  -0.000   0.000  -0.000
   40       -0.000  -0.000   0.000  -0.000
   41       -0.000  -0.000   0.000  -0.000
   42       -0.000  -0.000   0.000  -0.000
   43       -0.000  -0.000   0.000  -0.000
   44       -0.000  -0.000   0.000  -0.000
   45       -0.000  -0.000   0.000  -0.000
   46       -0.000  -0.000   0.000  -0.000
   47       -0.000  -0.000   0.000  -0.000
   48       -0.000  -0.000  -0.000  -0.000
   49       -0.000  -0.000   0.000  -0.000
   50       -0.000  -0.000   0.000  -0.000
   51       -0.000  -0.000  -0.000  -0.000
   52       -0.000  -0.000   0.000  -0.000
   53       -0.000  -0.000   0.000  -0.000
   54       -0.000  -0.000  -0.000  -0.000
   55       -0.000  -0.000   0.000  -0.000
   56       -0.000  -0.000   0.000  -0.000
   57       -0.000  -0.000  -0.000  -0.000
   58       -0.000  -0.000  -0.000  -0.000
   59       -0.000  -0.000  -0.000  -0.000
   60       -0.000  -0.000  -0.000  -0.000
   61       -0.000  -0.000   0.000  -0.000
   62       -0.000  -0.000  -0.000  -0.000
   63       -0.000  -0.000   0.000  -0.000
   64       -0.000  -0.000   0.000  -0.000
   65       -0.000  -0.000   0.000  -0.000
   66       -0.000  -0.000  -0.000  -0.000
   67       -0.000  -0.000  -0.000  -0.000
   68       -0.000  -0.000   0.000  -0.000
   69       -0.000  -0.000   0.000  -0.000
   70       -0.000  -0.000   0.000  -0.000
   71       -0.000  -0.000   0.000  -0.000
   72       -0.000  -0.000   0.000  -0.000
--------------------------------------------------
tot         -0.000  -0.000   0.000  -0.000
 

 total amount of memory used by VASP MPI-rank0   110684. kBytes
=======================================================================

   base      :      30000. kBytes
   nonl-proj :      16332. kBytes
   fftplans  :       6179. kBytes
   grid      :      15593. kBytes
   one-center:        146. kBytes
   wavefun   :      42434. kBytes
 
  
  
 General timing and accounting informations for this job:
 ========================================================
  
                  Total CPU time used (sec):      193.741
                            User time (sec):      187.553
                          System time (sec):        6.188
                         Elapsed time (sec):      196.681
  
                   Maximum memory used (kb):      310744.
                   Average memory used (kb):          N/A
  
                          Minor page faults:        96146
                          Major page faults:           41
                 Voluntary context switches:         8408
