 vasp.6.4.2 20Jul23 (build Oct 12 2023 10:31:02) complex                         
 executed on              LinuxNV date 2024.11.01  23:05:20
 running  128 mpi-ranks, with    1 threads/rank, on    2 nodes
 distrk:  each k-point on   64 cores,    2 groups
 distr:  one band on NCORE=   8 cores,    8 groups


--------------------------------------------------------------------------------------------------------


 INCAR:
   ENCUT = 520.000000
   SIGMA = 0.050000
   EDIFF = 1.00e-06
   ALGO = N
   GGA = PE
   PREC = Accurate
   SYSTEM = 01_AOPT
   ICHARG = 0
   ISMEAR = 0
   ISPIN = 2
   ISTART = 1
   ISYM = -1
   KPAR = 2
   LORBIT = 11
   NBANDS = 220
   NELM = 100
   NELMIN = 5
   NPAR = 8
   LASPH = .TRUE.
   LCHARG = .FALSE.
   LWAVE = .FALSE.
   LREAL = .FALSE.

 POTCAR:    PAW_PBE Ge 05Jan2001                  
 POTCAR:    PAW_PBE Se 06Sep2000                  
 -----------------------------------------------------------------------------
|                                                                             |
|           W    W    AA    RRRRR   N    N  II  N    N   GGGG   !!!           |
|           W    W   A  A   R    R  NN   N  II  NN   N  G    G  !!!           |
|           W    W  A    A  R    R  N N  N  II  N N  N  G       !!!           |
|           W WW W  AAAAAA  RRRRR   N  N N  II  N  N N  G  GGG   !            |
|           WW  WW  A    A  R   R   N   NN  II  N   NN  G    G                |
|           W    W  A    A  R    R  N    N  II  N    N   GGGG   !!!           |
|                                                                             |
|     You use a magnetic or noncollinear calculation, but did not specify     |
|     the initial magnetic moment with the MAGMOM tag. Note that a            |
|     default of 1 will be used for all atoms. This ferromagnetic setup       |
|     may break the symmetry of the crystal, in particular it may rule        |
|     out finding an antiferromagnetic solution. Thence, we recommend         |
|     setting the initial magnetic moment manually or verifying carefully     |
|     that this magnetic setup is desired.                                    |
|                                                                             |
 -----------------------------------------------------------------------------

 POTCAR:    PAW_PBE Ge 05Jan2001                  
   VRHFIN =Ge: s2p2                                                                                 
   LEXCH  = PE                                                                                      
   EATOM  =   104.9960 eV,    7.7170 Ry                                                             
                                                                                                    
   TITEL  = PAW_PBE Ge 05Jan2001                                                                    
   LULTRA =        F    use ultrasoft PP ?                                                          
   IUNSCR =        1    unscreen: 0-lin 1-nonlin 2-no                                               
   RPACOR =    2.170    partial core radius                                                         
   POMASS =   72.610; ZVAL   =    4.000    mass and valenz                                          
   RCORE  =    2.300    outmost cutoff radius                                                       
   RWIGS  =    2.300; RWIGS  =    1.217    wigner-seitz radius (au A)                               
   ENMAX  =  173.807; ENMIN  =  130.355 eV                                                          
   ICORE  =        3    local potential                                                             
   LCOR   =        T    correct aug charges                                                         
   LPAW   =        T    paw PP                                                                      
   EAUG   =  385.843                                                                                
   DEXC   =    0.000                                                                                
   RMAX   =    2.342    core radius for proj-oper                                                   
   RAUG   =    1.300    factor for augmentation sphere                                              
   RDEP   =    2.318    radius for radial grids                                                     
   RDEPT  =    2.103    core radius for aug-charge                                                  
                                                                                                    
   Atomic configuration                                                                             
   10 entries                                                                                       
     n  l   j            E        occ.                                                              
     1  0  0.50    -10959.8463   2.0000                                                             
     2  0  0.50     -1371.6056   2.0000                                                             
     2  1  1.50     -1198.4791   6.0000                                                             
     3  0  0.50      -168.4733   2.0000                                                             
     3  1  1.50      -115.6019   6.0000                                                             
     3  2  2.50       -29.3106  10.0000                                                             
     4  0  0.50       -11.7309   2.0000                                                             
     4  1  0.50        -3.8952   2.0000                                                             
     4  2  1.50        -4.0817   0.0000                                                             
     4  3  2.50        -4.0817   0.0000                                                             
   Description                                                                                      
     l       E           TYP  RCUT    TYP  RCUT                                                     
     0    -11.7309493     23  2.300                                                                 
     0     -7.4578696     23  2.300                                                                 
     1     -3.8952261     23  2.300                                                                 
     1      6.1178114     23  2.300                                                                 
     2     -4.0817478     23  2.300                                                                 
     3     -1.3605826      7  2.300                                                                 
  local pseudopotential read in
  partial core-charges read in
  partial kinetic energy density read in
  atomic valenz-charges read in
  non local Contribution for L=            0  read in
    real space projection operators read in
  non local Contribution for L=            0  read in
    real space projection operators read in
  non local Contribution for L=            1  read in
    real space projection operators read in
  non local Contribution for L=            1  read in
    real space projection operators read in
  non local Contribution for L=            2  read in
    real space projection operators read in
    PAW grid and wavefunctions read in
 
   number of l-projection  operators is LMAX  =            5
   number of lm-projection operators is LMMAX =           13
 
 POTCAR:    PAW_PBE Se 06Sep2000                  
   VRHFIN =Se: s2p4                                                                                 
   LEXCH  = PE                                                                                      
   EATOM  =   257.1286 eV,   18.8984 Ry                                                             
                                                                                                    
   TITEL  = PAW_PBE Se 06Sep2000                                                                    
   LULTRA =        F    use ultrasoft PP ?                                                          
   IUNSCR =        1    unscreen: 0-lin 1-nonlin 2-no                                               
   RPACOR =    1.900    partial core radius                                                         
   POMASS =   78.960; ZVAL   =    6.000    mass and valenz                                          
   RCORE  =    2.100    outmost cutoff radius                                                       
   RWIGS  =    2.200; RWIGS  =    1.164    wigner-seitz radius (au A)                               
   ENMAX  =  211.555; ENMIN  =  158.666 eV                                                          
   ICORE  =        3    local potential                                                             
   LCOR   =        T    correct aug charges                                                         
   LPAW   =        T    paw PP                                                                      
   EAUG   =  446.842                                                                                
   DEXC   =    0.000                                                                                
   RMAX   =    2.147    core radius for proj-oper                                                   
   RAUG   =    1.300    factor for augmentation sphere                                              
   RDEP   =    2.177    radius for radial grids                                                     
   RDEPT  =    1.928    core radius for aug-charge                                                  
                                                                                                    
   Atomic configuration                                                                             
   10 entries                                                                                       
     n  l   j            E        occ.                                                              
     1  0  0.50    -12503.4787   2.0000                                                             
     2  0  0.50     -1606.9547   2.0000                                                             
     2  1  1.50     -1413.3140   6.0000                                                             
     3  0  0.50      -213.4885   2.0000                                                             
     3  1  1.50      -152.9538   6.0000                                                             
     3  2  2.50       -53.1221  10.0000                                                             
     4  0  0.50       -17.2865   2.0000                                                             
     4  1  0.50        -6.5110   4.0000                                                             
     4  2  2.50        -6.8029   0.0000                                                             
     4  3  2.50        -6.8029   0.0000                                                             
   Description                                                                                      
     l       E           TYP  RCUT    TYP  RCUT                                                     
     0    -17.2865377     23  2.100                                                                 
     0    -15.3094411     23  2.100                                                                 
     1     -6.5110275     23  2.100                                                                 
     1     -0.0695192     23  2.100                                                                 
     2     -6.8029130     23  2.100                                                                 
     3     -1.3605826      7  2.100                                                                 
  local pseudopotential read in
  partial core-charges read in
  partial kinetic energy density read in
  atomic valenz-charges read in
  non local Contribution for L=            0  read in
    real space projection operators read in
  non local Contribution for L=            0  read in
    real space projection operators read in
  non local Contribution for L=            1  read in
    real space projection operators read in
  non local Contribution for L=            1  read in
    real space projection operators read in
  non local Contribution for L=            2  read in
    real space projection operators read in
    PAW grid and wavefunctions read in
 
   number of l-projection  operators is LMAX  =            5
   number of lm-projection operators is LMMAX =           13
 
 -----------------------------------------------------------------------------
|                                                                             |
|               ----> ADVICE to this user running VASP <----                  |
|                                                                             |
|     You have a (more or less) 'large supercell' and for larger cells it     |
|     might be more efficient to use real-space projection operators.         |
|     Therefore, try LREAL= Auto in the INCAR file.                           |
|     Mind: For very accurate calculation, you might also keep the            |
|     reciprocal projection scheme (i.e. LREAL=.FALSE.).                      |
|                                                                             |
 -----------------------------------------------------------------------------

  PAW_PBE Ge 05Jan2001                  :
 energy of atom  1       EATOM= -104.9960
 kinetic energy error for atom=    0.0002 (will be added to EATOM!!)
  PAW_PBE Se 06Sep2000                  :
 energy of atom  2       EATOM= -257.1286
 kinetic energy error for atom=    0.0007 (will be added to EATOM!!)
 
 
 POSCAR: Ge Se
  positions in cartesian coordinates
  No initial velocities read in
 exchange correlation table for  LEXCH =        8
   RHO(1)=    0.500       N(1)  =     2000
   RHO(2)=  100.500       N(2)  =     4000
 


--------------------------------------------------------------------------------------------------------


 ion  position               nearest neighbor table
   1  0.041  0.029  0.140-  55 2.47  45 2.60  53 2.69
   2  0.231  0.866  0.372-  67 2.47  45 2.73  47 2.82
   3  0.559  0.203  0.380-  49 2.58  68 2.60
   4  0.571  0.533  0.362-  69 2.46  72 2.68  50 2.69
   5  0.564  0.888  0.355-  48 2.56  70 2.58  44 2.66
   6  0.917  0.229  0.400-  46 2.55  56 2.63  55 2.70
   7  0.871  0.523  0.383-  72 2.49  71 2.58  56 2.63
   8  0.900  0.863  0.368-  53 2.58  44 2.76  45 2.80
   9  0.073  0.146  0.641-  57 2.55  37 2.66  51 2.66
  10  0.067  0.489  0.636-  58 2.44  38 2.63  43 2.70
  11  0.075  0.819  0.637-  59 2.45  39 2.70  52 2.78
  12  0.392  0.164  0.645-  60 2.61  51 2.72  40 2.78
  13  0.391  0.490  0.633-  61 2.62  38 2.72  41 2.81
  14  0.390  0.824  0.624-  62 2.51  39 2.60
  15  0.754  0.153  0.616-  37 2.69  63 2.70  40 2.75
  16  0.719  0.487  0.641-  41 2.56  64 2.56  43 2.84
  17  0.256  0.561  0.390-  66 2.54  50 2.60  47 2.68
  18  0.247  0.214  0.349-  54 2.44  49 2.67  46 2.71
  19  0.717  0.820  0.648-  65 2.55  42 2.56  52 2.80
  20  0.910  0.668  0.850-  52 2.47  58 2.76  64 2.80
  21  0.884  0.994  0.867-  65 2.55  37 2.57
  22  0.068  0.385  0.125-  71 2.57  46 2.61
  23  0.061  0.709  0.129-  53 2.51  47 2.59  71 2.83
  24  0.389  0.057  0.126-  54 2.45  48 2.71
  25  0.387  0.375  0.123-  66 2.50  49 2.65  54 2.77
  26  0.730  0.063  0.139-  44 2.48  68 2.50
  27  0.743  0.393  0.121-  56 2.63  69 2.66  71 2.86
  28  0.397  0.712  0.119-  50 2.59  67 2.60  70 2.73
  29  0.222  0.313  0.865-  57 2.53  38 2.62  60 2.70
  30  0.240  0.662  0.869-  39 2.47  58 2.74  61 2.85
  31  0.252  0.989  0.869-  51 2.48  62 2.69
  32  0.573  0.322  0.879-  41 2.42  63 2.76  60 2.81
  33  0.561  0.635  0.872-  42 2.55  61 2.55  64 2.61
  34  0.571  0.988  0.868-  40 2.61  65 2.63  62 2.69
  35  0.904  0.308  0.894-  43 2.65  63 2.72  57 2.75
  36  0.709  0.691  0.137-  72 2.46  70 2.58  69 2.81
  37  0.912  0.006  0.636-  21 2.57   9 2.66  15 2.69
  38  0.224  0.349  0.631-  29 2.62  10 2.63  13 2.72
  39  0.241  0.680  0.647-  30 2.47  14 2.60  11 2.70
  40  0.571  0.031  0.637-  34 2.61  15 2.75  12 2.78
  41  0.567  0.350  0.662-  32 2.42  16 2.56  13 2.81
  42  0.568  0.678  0.647-  33 2.55  19 2.56
  43  0.901  0.351  0.660-  35 2.65  10 2.70  16 2.84
  44  0.737  0.013  0.356-  26 2.48   5 2.66   8 2.76
  45  0.068  0.012  0.372-   1 2.60   2 2.73   8 2.80
  46  0.078  0.351  0.358-   6 2.55  22 2.61  18 2.71
  47  0.087  0.693  0.361-  23 2.59  17 2.68   2 2.82
  48  0.408  0.021  0.367-   5 2.56  24 2.71
  49  0.414  0.349  0.359-   3 2.58  25 2.65  18 2.67
  50  0.419  0.686  0.351-  28 2.59  17 2.60   4 2.69
  51  0.237  0.010  0.646-  31 2.48   9 2.66  12 2.72
  52  0.896  0.685  0.628-  20 2.47  11 2.78  19 2.80
  53  0.919  0.851  0.136-  23 2.51   8 2.58   1 2.69
  54  0.252  0.199  0.129-  18 2.44  24 2.45  25 2.77
  55  0.923  0.187  0.160-   1 2.47   6 2.70
  56  0.750  0.352  0.354-  27 2.63   6 2.63   7 2.63
  57  0.077  0.172  0.870-  29 2.53   9 2.55  35 2.75
  58  0.074  0.519  0.854-  10 2.44  30 2.74  20 2.76
  59  0.071  0.844  0.857-  11 2.45
  60  0.396  0.183  0.880-  12 2.61  29 2.70  32 2.81
  61  0.405  0.503  0.869-  33 2.55  13 2.62  30 2.85
  62  0.411  0.844  0.849-  14 2.51  31 2.69  34 2.69
  63  0.736  0.173  0.858-  15 2.70  35 2.72  32 2.76
  64  0.738  0.524  0.867-  16 2.56  33 2.61  20 2.80
  65  0.735  0.854  0.874-  19 2.55  21 2.55  34 2.63
  66  0.254  0.522  0.164-  25 2.50  17 2.54
  67  0.256  0.863  0.151-   2 2.47  28 2.60
  68  0.581  0.197  0.146-  26 2.50   3 2.60
  69  0.569  0.516  0.141-   4 2.46  27 2.66  36 2.81
  70  0.571  0.845  0.127-  36 2.58   5 2.58  28 2.73
  71  0.924  0.530  0.157-  22 2.57   7 2.58  23 2.83  27 2.86
  72  0.737  0.669  0.356-  36 2.46   7 2.49   4 2.68
 

IMPORTANT INFORMATION: All symmetrisations will be switched off!
NOSYMM: (Re-)initialisation of all symmetry stuff for point group C_1.


----------------------------------------------------------------------------------------

                                     Primitive cell                                     

  volume of cell :    1717.5926

  direct lattice vectors                    reciprocal lattice vectors
    12.430525139 -0.000008144  0.000003062     0.080447124  0.000000053 -0.000000026
    -0.000008189 12.498827367  0.000000082     0.000000052  0.080007506 -0.000000001
     0.000003505  0.000000093 11.055067998    -0.000000022 -0.000000001  0.090456250

  length of vectors
    12.430525139 12.498827367 11.055067998     0.080447124  0.080007506  0.090456250

  position of ions in fractional coordinates (direct lattice)
     0.041369226  0.029200439  0.140016191
     0.231272540  0.866368922  0.372209228
     0.559355378  0.203167413  0.380137461
     0.570563275  0.532964484  0.362281308
     0.563907072  0.887827457  0.355358335
     0.917046883  0.229207487  0.399970444
     0.871262093  0.523365249  0.383015863
     0.899907311  0.863069064  0.368452026
     0.073080712  0.146457841  0.641137524
     0.066902458  0.489213598  0.636134207
     0.074601294  0.818748160  0.636874987
     0.391576826  0.163637638  0.644964985
     0.391474424  0.489627248  0.632905819
     0.390311539  0.824073897  0.624178251
     0.754331621  0.152648172  0.615557517
     0.718638635  0.486613337  0.640533751
     0.255555701  0.561116914  0.389918779
     0.246713382  0.214191160  0.348997274
     0.717023974  0.819560146  0.647688643
     0.909892998  0.667861020  0.850266923
     0.884203407  0.994211855  0.866546277
     0.067638582  0.385119747  0.124801926
     0.061345342  0.709176319  0.129255935
     0.388706514  0.057468876  0.126348699
     0.386586628  0.375295806  0.123054807
     0.730099099  0.062656283  0.138877612
     0.742811182  0.392881873  0.120928346
     0.397285871  0.712332496  0.119060026
     0.222498544  0.313377066  0.864827725
     0.240473658  0.661943533  0.868972435
     0.251517015  0.988760983  0.868657232
     0.573248341  0.322443094  0.878615013
     0.561325331  0.635483421  0.872075815
     0.571468520  0.987990781  0.868131292
     0.904323527  0.308268730  0.893770560
     0.709006312  0.691377914  0.136885087
     0.912428635  0.006425010  0.636326856
     0.224378522  0.349180911  0.630903315
     0.240748881  0.679509544  0.646743761
     0.570986176  0.030569757  0.637458727
     0.566528519  0.349751717  0.661712768
     0.568301886  0.678099499  0.646749889
     0.901424721  0.351421576  0.659533788
     0.737142595  0.012695265  0.355929026
     0.067637837  0.012354869  0.372180831
     0.077530383  0.350532459  0.357699643
     0.086938986  0.692527458  0.361348751
     0.408131085  0.020912884  0.366843607
     0.413521896  0.348983606  0.358903330
     0.419145977  0.686498720  0.350628787
     0.236567989  0.009711966  0.646356772
     0.896385197  0.684914331  0.628175134
     0.919341432  0.851282300  0.136118738
     0.252167142  0.198694799  0.128704470
     0.922988168  0.186997614  0.160141102
     0.750467179  0.352309498  0.354032224
     0.076556339  0.171960954  0.869718684
     0.074156370  0.518837483  0.853821621
     0.071441730  0.844414861  0.856804990
     0.395830665  0.183354717  0.879566142
     0.404741378  0.503163689  0.868504520
     0.410847155  0.844345103  0.848582554
     0.736086218  0.173186631  0.858186642
     0.738186286  0.523753498  0.867390095
     0.734656318  0.854189930  0.873856423
     0.254419021  0.521592718  0.164487452
     0.255949451  0.862737610  0.150565542
     0.580816299  0.196879214  0.145861122
     0.568741652  0.515580526  0.140582710
     0.571206025  0.845006622  0.126955413
     0.923780239  0.530068174  0.157003417
     0.737138307  0.668872768  0.355989556

  ion indices of the primitive-cell ions
   primitive index   ion index
                 1           1
                 2           2
                 3           3
                 4           4
                 5           5
                 6           6
                 7           7
                 8           8
                 9           9
                10          10
                11          11
                12          12
                13          13
                14          14
                15          15
                16          16
                17          17
                18          18
                19          19
                20          20
                21          21
                22          22
                23          23
                24          24
                25          25
                26          26
                27          27
                28          28
                29          29
                30          30
                31          31
                32          32
                33          33
                34          34
                35          35
                36          36
                37          37
                38          38
                39          39
                40          40
                41          41
                42          42
                43          43
                44          44
                45          45
                46          46
                47          47
                48          48
                49          49
                50          50
                51          51
                52          52
                53          53
                54          54
                55          55
                56          56
                57          57
                58          58
                59          59
                60          60
                61          61
                62          62
                63          63
                64          64
                65          65
                66          66
                67          67
                68          68
                69          69
                70          70
                71          71
                72          72

----------------------------------------------------------------------------------------

 
 
 KPOINTS: KPOINTS created by Atomic Simulation Env

Automatic generation of k-mesh.
 Grid dimensions read from file:
 generate k-points for:    2    2    2

 Generating k-lattice:

  Cartesian coordinates                     Fractional coordinates (reciprocal lattice)
     0.040223562  0.000000026 -0.000000013     0.500000000  0.000000000  0.000000000
     0.000000026  0.040003753 -0.000000000     0.000000000  0.500000000  0.000000000
    -0.000000011 -0.000000000  0.045228125     0.000000000  0.000000000  0.500000000

  Length of vectors
     0.040223562  0.040003753  0.045228125

  Shift w.r.t. Gamma in fractional coordinates (k-lattice)
     0.000000000  0.000000000  0.000000000

 
 Subroutine IBZKPT returns following result:
 ===========================================
 
 Found      8 irreducible k-points:
 
 Following reciprocal coordinates:
            Coordinates               Weight
  0.000000  0.000000  0.000000      1.000000
  0.500000  0.000000  0.000000      1.000000
  0.000000  0.500000  0.000000      1.000000
  0.500000  0.500000  0.000000      1.000000
  0.000000  0.000000  0.500000      1.000000
  0.500000  0.000000  0.500000      1.000000
  0.000000  0.500000  0.500000      1.000000
  0.500000  0.500000  0.500000      1.000000
 
 Following cartesian coordinates:
            Coordinates               Weight
  0.000000  0.000000  0.000000      1.000000
  0.040224  0.000000 -0.000000      1.000000
  0.000000  0.040004 -0.000000      1.000000
  0.040224  0.040004 -0.000000      1.000000
 -0.000000 -0.000000  0.045228      1.000000
  0.040224  0.000000  0.045228      1.000000
  0.000000  0.040004  0.045228      1.000000
  0.040224  0.040004  0.045228      1.000000
 
 -----------------------------------------------------------------------------
|                                                                             |
|           W    W    AA    RRRRR   N    N  II  N    N   GGGG   !!!           |
|           W    W   A  A   R    R  NN   N  II  NN   N  G    G  !!!           |
|           W    W  A    A  R    R  N N  N  II  N N  N  G       !!!           |
|           W WW W  AAAAAA  RRRRR   N  N N  II  N  N N  G  GGG   !            |
|           WW  WW  A    A  R   R   N   NN  II  N   NN  G    G                |
|           W    W  A    A  R    R  N    N  II  N    N   GGGG   !!!           |
|                                                                             |
|     The number of bands has been changed from the values supplied in        |
|     the INCAR file. This is a result of running the parallel version.       |
|     The orbitals not found in the WAVECAR file will be initialized with     |
|     random numbers, which is usually adequate. For correlated               |
|     calculations, however, you should redo the groundstate calculation.     |
|     I found NBANDS = 220. Now, NBANDS = 224.                                |
|                                                                             |
 -----------------------------------------------------------------------------



--------------------------------------------------------------------------------------------------------




 Dimension of arrays:
   k-points           NKPTS =      8   k-points in BZ     NKDIM =      8   number of bands    NBANDS=    224
   number of dos      NEDOS =    301   number of ions     NIONS =     72
   non local maximal  LDIM  =      5   non local SUM 2l+1 LMDIM =     13
   total plane-waves  NPLWV = 774144
   max r-space proj   IRMAX =      1   max aug-charges    IRDMAX=  24693
   dimension x,y,z NGX =    96 NGY =   96 NGZ =   84
   dimension x,y,z NGXF=   192 NGYF=  192 NGZF=  168
   support grid    NGXF=   192 NGYF=  192 NGZF=  168
   ions per type =              36  36
   NGX,Y,Z   is equivalent  to a cutoff of  12.84, 12.77, 12.63 a.u.
   NGXF,Y,Z  is equivalent  to a cutoff of  25.68, 25.54, 25.26 a.u.

 SYSTEM =  01_AOPT                                 
 POSCAR =  Ge Se                                   

 Startparameter for this run:
   NWRITE =      2    write-flag & timer
   PREC   = accura    normal or accurate (medium, high low for compatibility)
   ISTART =      0    job   : 0-new  1-cont  2-samecut
   ICHARG =      2    charge: 1-file 2-atom 10-const
   ISPIN  =      2    spin polarized calculation?
   LNONCOLLINEAR =      F non collinear calculations
   LSORBIT =      F    spin-orbit coupling
   INIWAV =      1    electr: 0-lowe 1-rand  2-diag
   LASPH  =      T    aspherical Exc in radial PAW
 Electronic Relaxation 1
   ENCUT  =  520.0 eV  38.22 Ry    6.18 a.u.  23.11 23.24 20.56*2*pi/ulx,y,z
   ENINI  =  520.0     initial cutoff
   ENAUG  =  446.8 eV  augmentation charge cutoff
   NELM   =    100;   NELMIN=  5; NELMDL=  0     # of ELM steps 
   EDIFF  = 0.1E-05   stopping-criterion for ELM
   LREAL  =      F    real-space projection
   NLSPLINE    = F    spline interpolate recip. space projectors
   LCOMPAT=      F    compatible to vasp.4.4
   GGA_COMPAT  = T    GGA compatible to vasp.4.4-vasp.4.6
   LMAXPAW     = -100 max onsite density
   LMAXMIX     =    2 max onsite mixed and CHGCAR
   VOSKOWN=      0    Vosko Wilk Nusair interpolation
   ROPT   =    0.00000   0.00000
 Ionic relaxation
   EDIFFG = 0.1E-04   stopping-criterion for IOM
   NSW    =      0    number of steps for IOM
   NBLOCK =      1;   KBLOCK =      1    inner block; outer block 
   IBRION =     -1    ionic relax: 0-MD 1-quasi-New 2-CG
   NFREE  =      0    steps in history (QN), initial steepest desc. (CG)
   ISIF   =      2    stress and relaxation
   IWAVPR =     10    prediction:  0-non 1-charg 2-wave 3-comb
   ISYM   =     -1    0-nonsym 1-usesym 2-fastsym
   LCORR  =      T    Harris-Foulkes like correction to forces

   POTIM  = 0.5000    time-step for ionic-motion
   TEIN   =    0.0    initial temperature
   TEBEG  =    0.0;   TEEND  =   0.0 temperature during run
   SMASS  =  -3.00    Nose mass-parameter (am)
   estimated Nose-frequenzy (Omega)   =  0.10E-29 period in steps = 0.13E+47 mass=  -0.353E-26a.u.
   SCALEE = 1.0000    scale energy and forces
   NPACO  =    256;   APACO  = 10.0  distance and # of slots for P.C.
   PSTRESS=    0.0 pullay stress

  Mass of Ions in am
   POMASS =  72.61 78.96
  Ionic Valenz
   ZVAL   =   4.00  6.00
  Atomic Wigner-Seitz radii
   RWIGS  =  -1.00 -1.00
  virtual crystal weights 
   VCA    =   1.00  1.00
   NELECT =     360.0000    total number of electrons
   NUPDOWN=      -1.0000    fix difference up-down

 DOS related values:
   EMIN   =  10.00;   EMAX   =-10.00  energy-range for DOS
   EFERMI =   0.00;   METHOD = LEGACY      
   ISMEAR =     0;   SIGMA  =   0.05  broadening in eV -4-tet -1-fermi 0-gaus

 Electronic relaxation 2 (details)
   IALGO  =     38    algorithm
   LDIAG  =      T    sub-space diagonalisation (order eigenvalues)
   LSUBROT=      F    optimize rotation matrix (better conditioning)
   TURBO    =      0    0=normal 1=particle mesh
   IRESTART =      0    0=no restart 2=restart with 2 vectors
   NREBOOT  =      0    no. of reboots
   NMIN     =      0    reboot dimension
   EREF     =   0.00    reference energy to select bands
   IMIX   =      4    mixing-type and parameters
     AMIX     =   0.40;   BMIX     =  1.00
     AMIX_MAG =   1.60;   BMIX_MAG =  1.00
     AMIN     =   0.10
     WC   =   100.;   INIMIX=   1;  MIXPRE=   1;  MAXMIX= -45

 Intra band minimization:
   WEIMIN = 0.0000     energy-eigenvalue tresh-hold
   EBREAK =  0.11E-08  absolut break condition
   DEPER  =   0.30     relativ break condition  

   TIME   =   0.40     timestep for ELM

  volume/ion in A,a.u.               =      23.86       160.98
  Fermi-wavevector in a.u.,A,eV,Ry     =   0.972454  1.837671 12.866570  0.945666
  Thomas-Fermi vector in A             =   2.102754
 
 Write flags
   LWAVE        =      F    write WAVECAR
   LDOWNSAMPLE  =      F    k-point downsampling of WAVECAR
   LCHARG       =      F    write CHGCAR
   LVTOT        =      F    write LOCPOT, total local potential
   LVHAR        =      F    write LOCPOT, Hartree potential only
   LELF         =      F    write electronic localiz. function (ELF)
   LORBIT       =     11    0 simple, 1 ext, 2 COOP (PROOUT), +10 PAW based schemes


 Dipole corrections
   LMONO  =      F    monopole corrections only (constant potential shift)
   LDIPOL =      F    correct potential (dipole corrections)
   IDIPOL =      0    1-x, 2-y, 3-z, 4-all directions 
   EPSILON=  1.0000000 bulk dielectric constant

 Exchange correlation treatment:
   GGA     =    PE    GGA type
   LEXCH   =     8    internal setting for exchange type
   LIBXC   =     F    Libxc                    
   VOSKOWN =     0    Vosko Wilk Nusair interpolation
   LHFCALC =     F    Hartree Fock is set to
   LHFONE  =     F    Hartree Fock one center treatment
   AEXX    =    0.0000 exact exchange contribution

 Linear response parameters
   LEPSILON=     F    determine dielectric tensor
   LRPA    =     F    only Hartree local field effects (RPA)
   LNABLA  =     F    use nabla operator in PAW spheres
   LVEL    =     F    velocity operator in full k-point grid
   CSHIFT  =0.1000    complex shift for real part using Kramers Kronig
   OMEGAMAX=  -1.0    maximum frequency
   DEG_THRESHOLD= 0.2000000E-02 threshold for treating states as degnerate
   RTIME   =   -0.100 relaxation time in fs
  (WPLASMAI=    0.000 imaginary part of plasma frequency in eV, 0.658/RTIME)
   DFIELD  = 0.0000000 0.0000000 0.0000000 field for delta impulse in time
 
  Optional k-point grid parameters
   LKPOINTS_OPT  =     F    use optional k-point grid
   KPOINTS_OPT_MODE=     1    mode for optional k-point grid
 
 Orbital magnetization related:
   ORBITALMAG=     F  switch on orbital magnetization
   LCHIMAG   =     F  perturbation theory with respect to B field
   DQ        =  0.001000  dq finite difference perturbation B field
   LLRAUG    =     F  two centre corrections for induced B field
   LBONE     =     F  B-component reconstruction in AE one-centre
   LVGVCALC  =     T  calculate vGv susceptibility
   LVGVAPPL  =     F  apply vGv susceptibility instead of pGv for G=0

 Random number generation:
   RANDOM_GENERATOR = DEFAULT
   PCG_SEED         = not used


--------------------------------------------------------------------------------------------------------


 Static calculation
 charge density and potential will be updated during run
 spin polarized calculation
 Variant of blocked Davidson
 Davidson routine will perform the subspace rotation
 perform sub-space diagonalisation
    after iterative eigenvector-optimisation
 modified Broyden-mixing scheme, WC =      100.0
 initial mixing is a Kerker type mixing with AMIX =  0.4000 and BMIX =      1.0000
 Hartree-type preconditioning will be used
 using additional bands            44
 reciprocal scheme for non local part
 use partial core corrections
 calculate Harris-corrections to forces 
   (improved forces if not selfconsistent)
 use gradient corrections 
 use of overlap-Matrix (Vanderbilt PP)
 Gauss-broadening in eV      SIGMA  =   0.05


--------------------------------------------------------------------------------------------------------


  energy-cutoff  :      520.00
  volume of cell :     1717.59
      direct lattice vectors                 reciprocal lattice vectors
    12.430525139 -0.000008144  0.000003062     0.080447124  0.000000053 -0.000000026
    -0.000008189 12.498827367  0.000000082     0.000000052  0.080007506 -0.000000001
     0.000003505  0.000000093 11.055067998    -0.000000022 -0.000000001  0.090456250

  length of vectors
    12.430525139 12.498827367 11.055067998     0.080447124  0.080007506  0.090456250


 
 k-points in units of 2pi/SCALE and weight: KPOINTS created by Atomic Simulation Env
   0.00000000  0.00000000  0.00000000       0.125
   0.04022356  0.00000003 -0.00000001       0.125
   0.00000003  0.04000375 -0.00000000       0.125
   0.04022359  0.04000378 -0.00000001       0.125
  -0.00000001 -0.00000000  0.04522813       0.125
   0.04022355  0.00000003  0.04522811       0.125
   0.00000002  0.04000375  0.04522812       0.125
   0.04022358  0.04000378  0.04522811       0.125
 
 k-points in reciprocal lattice and weights: KPOINTS created by Atomic Simulation Env
   0.00000000  0.00000000  0.00000000       0.125
   0.50000000  0.00000000  0.00000000       0.125
   0.00000000  0.50000000  0.00000000       0.125
   0.50000000  0.50000000  0.00000000       0.125
   0.00000000  0.00000000  0.50000000       0.125
   0.50000000  0.00000000  0.50000000       0.125
   0.00000000  0.50000000  0.50000000       0.125
   0.50000000  0.50000000  0.50000000       0.125
 
 position of ions in fractional coordinates (direct lattice) 
   0.04136923  0.02920044  0.14001619
   0.23127254  0.86636892  0.37220923
   0.55935538  0.20316741  0.38013746
   0.57056327  0.53296448  0.36228131
   0.56390707  0.88782746  0.35535833
   0.91704688  0.22920749  0.39997044
   0.87126209  0.52336525  0.38301586
   0.89990731  0.86306906  0.36845203
   0.07308071  0.14645784  0.64113752
   0.06690246  0.48921360  0.63613421
   0.07460129  0.81874816  0.63687499
   0.39157683  0.16363764  0.64496499
   0.39147442  0.48962725  0.63290582
   0.39031154  0.82407390  0.62417825
   0.75433162  0.15264817  0.61555752
   0.71863863  0.48661334  0.64053375
   0.25555570  0.56111691  0.38991878
   0.24671338  0.21419116  0.34899727
   0.71702397  0.81956015  0.64768864
   0.90989300  0.66786102  0.85026692
   0.88420341  0.99421185  0.86654628
   0.06763858  0.38511975  0.12480193
   0.06134534  0.70917632  0.12925594
   0.38870651  0.05746888  0.12634870
   0.38658663  0.37529581  0.12305481
   0.73009910  0.06265628  0.13887761
   0.74281118  0.39288187  0.12092835
   0.39728587  0.71233250  0.11906003
   0.22249854  0.31337707  0.86482772
   0.24047366  0.66194353  0.86897243
   0.25151701  0.98876098  0.86865723
   0.57324834  0.32244309  0.87861501
   0.56132533  0.63548342  0.87207582
   0.57146852  0.98799078  0.86813129
   0.90432353  0.30826873  0.89377056
   0.70900631  0.69137791  0.13688509
   0.91242863  0.00642501  0.63632686
   0.22437852  0.34918091  0.63090331
   0.24074888  0.67950954  0.64674376
   0.57098618  0.03056976  0.63745873
   0.56652852  0.34975172  0.66171277
   0.56830189  0.67809950  0.64674989
   0.90142472  0.35142158  0.65953379
   0.73714259  0.01269527  0.35592903
   0.06763784  0.01235487  0.37218083
   0.07753038  0.35053246  0.35769964
   0.08693899  0.69252746  0.36134875
   0.40813109  0.02091288  0.36684361
   0.41352190  0.34898361  0.35890333
   0.41914598  0.68649872  0.35062879
   0.23656799  0.00971197  0.64635677
   0.89638520  0.68491433  0.62817513
   0.91934143  0.85128230  0.13611874
   0.25216714  0.19869480  0.12870447
   0.92298817  0.18699761  0.16014110
   0.75046718  0.35230950  0.35403222
   0.07655634  0.17196095  0.86971868
   0.07415637  0.51883748  0.85382162
   0.07144173  0.84441486  0.85680499
   0.39583066  0.18335472  0.87956614
   0.40474138  0.50316369  0.86850452
   0.41084716  0.84434510  0.84858255
   0.73608622  0.17318663  0.85818664
   0.73818629  0.52375350  0.86739009
   0.73465632  0.85418993  0.87385642
   0.25441902  0.52159272  0.16448745
   0.25594945  0.86273761  0.15056554
   0.58081630  0.19687921  0.14586112
   0.56874165  0.51558053  0.14058271
   0.57120603  0.84500662  0.12695541
   0.92378024  0.53006817  0.15700342
   0.73713831  0.66887277  0.35598956
 
 position of ions in cartesian coordinates  (Angst):
   0.51424146  0.36497093  1.54788864
   2.87483334 10.82859375  4.11479911
   6.95308075  2.53934990  4.20244720
   7.09239803  6.66142646  4.00504628
   7.00965501 11.09679756  3.92851235
  11.39937386  2.86481738  4.42170328
  10.83024241  6.54144483  4.23426912
  11.18631467 10.78734394  4.07326502
   0.90843267  1.83055074  7.08781916
   0.83163090  6.11459582  7.03250715
   0.92732879 10.23339136  7.04069658
   4.86750649  2.04527546  7.13013298
   4.86623088  6.11976332  6.99681811
   4.85177284 10.29995426  6.90033427
   9.37673909  1.90791707  6.80503253
   8.93305388  6.08209030  7.08114641
   3.17668834  7.01330139  4.31057944
   3.06677636  2.67713635  3.85818937
   8.91298010 10.24353501  7.16024426
  11.31044530  8.34747226  9.39976150
  10.99110757 12.42647522  9.57973080
   0.84078038  4.81354470  1.37969401
   0.76254946  8.86387190  1.42893340
   4.83182607  0.71829041  1.39679466
   4.80547215  4.69075435  1.36038048
   9.07551517  0.78312413  1.53530369
   9.23353027  4.91055667  1.33687339
   4.93846660  8.90331767  1.31621795
   2.76577421  3.91684411  9.56073001
   2.98921148  8.27351607  9.60655015
   3.12648352 12.35835087  9.60306562
   7.12577836  4.03015599  9.71315049
   6.97756648  7.94279308  9.64085921
   7.10364876 12.34872163  9.59725229
  11.24121695  3.85299035  9.88069711
   8.81331560  8.64140743  1.51327617
  11.34196926  0.08029772  7.03463945
   2.78914221  4.36435016  6.97467976
   2.99263172  8.49307058  7.14979705
   7.09766000  0.38208152  7.04715132
   7.04224645  4.37148178  7.31528141
   7.06428760  8.47544401  7.14986579
  11.20518209  4.39235034  7.29119366
   9.16307070  0.15866996  3.93482185
   0.84077504  0.15442085  4.11448461
   0.96374176  4.38124409  3.95439414
   1.08069284  8.65578047  3.99473534
   5.07328483  0.26138324  4.05548227
   5.14029272  4.36188251  3.96770201
   5.21020021  8.58042560  3.87622642
   2.94066652  0.12138632  7.14551879
  11.14253532  8.56061874  6.94452162
  11.42789029 10.64002303  1.50480479
   3.13456882  2.48344995  1.42283746
  11.47322666  2.33724339  1.77037361
   9.32869949  4.40344951  3.91385263
   0.95163714  2.14930974  9.61479943
   0.92180137  6.48485960  9.43905635
   0.88805431 10.55419507  9.47203771
   4.92038461  2.29171581  9.72366474
   5.03114679  6.28895286  9.60137780
   5.10704195 10.55332041  9.38113916
   9.14993982  2.16462389  9.48731395
   9.17604194  6.54629862  9.58905878
   9.13215990 10.67636657  9.66054450
   3.16255835  6.51929529  1.81842078
   3.18157955 10.78320638  1.66451315
   7.21985050  2.46075460  1.61250641
   7.06975367  6.44414737  1.55415320
   7.10038438 10.56158726  1.40350254
  11.48306970  6.62522310  1.73568632
   9.16301202  8.36011929  3.93549106
 


--------------------------------------------------------------------------------------------------------


 k-point   1 :   0.0000 0.0000 0.0000  plane waves:   46205
 k-point   2 :   0.5000 0.0000 0.0000  plane waves:   46262
 k-point   3 :   0.0000 0.5000 0.0000  plane waves:   46246
 k-point   4 :   0.5000 0.5000 0.0000  plane waves:   46344
 k-point   5 :   0.0000 0.0000 0.5000  plane waves:   46258
 k-point   6 :   0.5000 0.0000 0.5000  plane waves:   46224
 k-point   7 :   0.0000 0.5000 0.5000  plane waves:   46240
 k-point   8 :   0.5000 0.5000 0.5000  plane waves:   46264

 maximum and minimum number of plane-waves per node :      5855     5735

 maximum number of plane-waves:     46344
 maximum index in each direction: 
   IXMAX=   23   IYMAX=   23   IZMAX=   20
   IXMIN=  -23   IYMIN=  -23   IZMIN=  -21


 parallel 3D FFT for wavefunctions:
    minimum data exchange during FFTs selected (reduces bandwidth)
 parallel 3D FFT for charge:
    minimum data exchange during FFTs selected (reduces bandwidth)


 total amount of memory used by VASP MPI-rank0   110524. kBytes
=======================================================================

   base      :      30000. kBytes
   nonl-proj :      16287. kBytes
   fftplans  :       6179. kBytes
   grid      :      15593. kBytes
   one-center:        146. kBytes
   wavefun   :      42319. kBytes
 
     INWAV:  cpu time      0.0000: real time      0.0001
 Broyden mixing: mesh for mixing (old mesh)
   NGX = 47   NGY = 47   NGZ = 41
  (NGX  =192   NGY  =192   NGZ  =168)
  gives a total of  90569 points

 initial charge density was supplied:
 charge density of overlapping atoms calculated
 number of electron     360.0000000 magnetization      72.0000000
 keeping initial charge density in first step


--------------------------------------------------------------------------------------------------------


 Maximum index for augmentation-charges           802 (set IRDMAX)


--------------------------------------------------------------------------------------------------------


 First call to EWALD:  gamma=   0.148
 Maximum number of real-space cells 3x 3x 3
 Maximum number of reciprocal cells 3x 3x 3

    FEWALD:  cpu time      0.0122: real time      0.0123


--------------------------------------- Ionic step        1  -------------------------------------------




--------------------------------------- Iteration      1(   1)  ---------------------------------------


    POTLOK:  cpu time      0.1410: real time      0.1419
    SETDIJ:  cpu time      0.5946: real time      0.5961
     EDDAV:  cpu time      8.5708: real time      8.6170
       DOS:  cpu time      0.0020: real time      0.0020
    --------------------------------------------
      LOOP:  cpu time      9.3084: real time      9.3570

 eigenvalue-minimisations  :  7168
 total energy-change (2. order) : 0.1818380E+04  (-0.1419806E+05)
 number of electron     360.0000000 magnetization      72.0000000
 augmentation part      360.0000000 magnetization      72.0000000

 Free energy of the ion-electron system (eV)
  ---------------------------------------------------
  alpha Z        PSCENC =       799.08359468
  Ewald energy   TEWEN  =    -12881.08386135
  -Hartree energ DENC   =     -1104.52495419
  -exchange      EXHF   =         0.00000000
  -V(xc)+E(xc)   XCENC  =      -293.55042751
  PAW double counting   =     10738.42099860    -9719.93139476
  entropy T*S    EENTRO =        -0.01746457
  eigenvalues    EBANDS =      1243.53153359
  atomic energy  EATOM  =     13036.45147835
  Solvation  Ediel_sol  =         0.00000000
  ---------------------------------------------------
  free energy    TOTEN  =      1818.37950285 eV

  energy without entropy =     1818.39696742  energy(sigma->0) =     1818.38823513


--------------------------------------------------------------------------------------------------------




--------------------------------------- Iteration      1(   2)  ---------------------------------------


     EDDAV:  cpu time      9.6998: real time      9.7585
       DOS:  cpu time      0.0015: real time      0.0016
    --------------------------------------------
      LOOP:  cpu time      9.7013: real time      9.7600

 eigenvalue-minimisations  :  8480
 total energy-change (2. order) :-0.1881753E+04  (-0.1806912E+04)
 number of electron     360.0000000 magnetization      72.0000000
 augmentation part      360.0000000 magnetization      72.0000000

 Free energy of the ion-electron system (eV)
  ---------------------------------------------------
  alpha Z        PSCENC =       799.08359468
  Ewald energy   TEWEN  =    -12881.08386135
  -Hartree energ DENC   =     -1104.52495419
  -exchange      EXHF   =         0.00000000
  -V(xc)+E(xc)   XCENC  =      -293.55042751
  PAW double counting   =     10738.42099860    -9719.93139476
  entropy T*S    EENTRO =        -0.01956500
  eigenvalues    EBANDS =      -638.21951158
  atomic energy  EATOM  =     13036.45147835
  Solvation  Ediel_sol  =         0.00000000
  ---------------------------------------------------
  free energy    TOTEN  =       -63.37364276 eV

  energy without entropy =      -63.35407775  energy(sigma->0) =      -63.36386026


--------------------------------------------------------------------------------------------------------




--------------------------------------- Iteration      1(   3)  ---------------------------------------


     EDDAV:  cpu time      9.8280: real time      9.8831
       DOS:  cpu time      0.0012: real time      0.0012
    --------------------------------------------
      LOOP:  cpu time      9.8291: real time      9.8843

 eigenvalue-minimisations  :  8592
 total energy-change (2. order) :-0.2183882E+03  (-0.2124753E+03)
 number of electron     360.0000000 magnetization      72.0000000
 augmentation part      360.0000000 magnetization      72.0000000

 Free energy of the ion-electron system (eV)
  ---------------------------------------------------
  alpha Z        PSCENC =       799.08359468
  Ewald energy   TEWEN  =    -12881.08386135
  -Hartree energ DENC   =     -1104.52495419
  -exchange      EXHF   =         0.00000000
  -V(xc)+E(xc)   XCENC  =      -293.55042751
  PAW double counting   =     10738.42099860    -9719.93139476
  entropy T*S    EENTRO =        -0.00013748
  eigenvalues    EBANDS =      -856.62717792
  atomic energy  EATOM  =     13036.45147835
  Solvation  Ediel_sol  =         0.00000000
  ---------------------------------------------------
  free energy    TOTEN  =      -281.76188157 eV

  energy without entropy =     -281.76174410  energy(sigma->0) =     -281.76181283


--------------------------------------------------------------------------------------------------------




--------------------------------------- Iteration      1(   4)  ---------------------------------------


     EDDAV:  cpu time      9.8844: real time      9.9463
       DOS:  cpu time      0.0009: real time      0.0009
    --------------------------------------------
      LOOP:  cpu time      9.8853: real time      9.9472

 eigenvalue-minimisations  :  8696
 total energy-change (2. order) :-0.7826830E+01  (-0.7731486E+01)
 number of electron     360.0000000 magnetization      72.0000000
 augmentation part      360.0000000 magnetization      72.0000000

 Free energy of the ion-electron system (eV)
  ---------------------------------------------------
  alpha Z        PSCENC =       799.08359468
  Ewald energy   TEWEN  =    -12881.08386135
  -Hartree energ DENC   =     -1104.52495419
  -exchange      EXHF   =         0.00000000
  -V(xc)+E(xc)   XCENC  =      -293.55042751
  PAW double counting   =     10738.42099860    -9719.93139476
  entropy T*S    EENTRO =        -0.00000424
  eigenvalues    EBANDS =      -864.45414098
  atomic energy  EATOM  =     13036.45147835
  Solvation  Ediel_sol  =         0.00000000
  ---------------------------------------------------
  free energy    TOTEN  =      -289.58871139 eV

  energy without entropy =     -289.58870715  energy(sigma->0) =     -289.58870927


--------------------------------------------------------------------------------------------------------




--------------------------------------- Iteration      1(   5)  ---------------------------------------


     EDDAV:  cpu time     10.3127: real time     10.3684
       DOS:  cpu time      0.0013: real time      0.0013
    CHARGE:  cpu time      0.4281: real time      0.4298
    MIXING:  cpu time      0.0070: real time      0.0071
    --------------------------------------------
      LOOP:  cpu time     10.7491: real time     10.8066

 eigenvalue-minimisations  :  9096
 total energy-change (2. order) :-0.3064206E+00  (-0.3056129E+00)
 number of electron     360.0000000 magnetization      48.7606896
 augmentation part      -66.8665142 magnetization      48.9741466

 Broyden mixing:
  rms(total) = 0.29218E+01    rms(broyden)= 0.29218E+01
  rms(prec ) = 0.30762E+01
  weight for this iteration     100.00

 Free energy of the ion-electron system (eV)
  ---------------------------------------------------
  alpha Z        PSCENC =       799.08359468
  Ewald energy   TEWEN  =    -12881.08386135
  -Hartree energ DENC   =     -1104.52495419
  -exchange      EXHF   =         0.00000000
  -V(xc)+E(xc)   XCENC  =      -293.55042751
  PAW double counting   =     10738.42099860    -9719.93139476
  entropy T*S    EENTRO =        -0.00000338
  eigenvalues    EBANDS =      -864.76056247
  atomic energy  EATOM  =     13036.45147835
  Solvation  Ediel_sol  =         0.00000000
  ---------------------------------------------------
  free energy    TOTEN  =      -289.89513202 eV

  energy without entropy =     -289.89512864  energy(sigma->0) =     -289.89513033


--------------------------------------------------------------------------------------------------------




--------------------------------------- Iteration      1(   6)  ---------------------------------------


    POTLOK:  cpu time      0.1364: real time      0.1378
    SETDIJ:  cpu time      0.5984: real time      0.6009
     EDDAV:  cpu time      9.2670: real time      9.3171
       DOS:  cpu time      0.0009: real time      0.0009
    CHARGE:  cpu time      0.4290: real time      0.4309
    MIXING:  cpu time      0.0084: real time      0.0084
    --------------------------------------------
      LOOP:  cpu time     10.4400: real time     10.4960

 eigenvalue-minimisations  :  7936
 total energy-change (2. order) : 0.3349532E+00  (-0.2662501E+01)
 number of electron     360.0000000 magnetization      27.7969831
 augmentation part      -66.2571212 magnetization      28.9771262

 Broyden mixing:
  rms(total) = 0.17324E+01    rms(broyden)= 0.17324E+01
  rms(prec ) = 0.17689E+01
  weight for this iteration     100.00

 eigenvalues of (default mixing * dielectric matrix)
  average eigenvalue GAMMA=   1.0096
  1.0096

 Free energy of the ion-electron system (eV)
  ---------------------------------------------------
  alpha Z        PSCENC =       799.08359468
  Ewald energy   TEWEN  =    -12881.08386135
  -Hartree energ DENC   =     -1157.56708053
  -exchange      EXHF   =         0.00000000
  -V(xc)+E(xc)   XCENC  =      -287.11841476
  PAW double counting   =     13023.16682218   -12008.17627685
  entropy T*S    EENTRO =        -0.00000083
  eigenvalues    EBANDS =      -814.31643974
  atomic energy  EATOM  =     13036.45147835
  Solvation  Ediel_sol  =         0.00000000
  ---------------------------------------------------
  free energy    TOTEN  =      -289.56017885 eV

  energy without entropy =     -289.56017802  energy(sigma->0) =     -289.56017844


--------------------------------------------------------------------------------------------------------




--------------------------------------- Iteration      1(   7)  ---------------------------------------


    POTLOK:  cpu time      0.1330: real time      0.1337
    SETDIJ:  cpu time      0.5953: real time      0.5970
     EDDAV:  cpu time      9.3254: real time      9.3765
       DOS:  cpu time      0.0008: real time      0.0008
    CHARGE:  cpu time      0.4237: real time      0.4255
    MIXING:  cpu time      0.0074: real time      0.0074
    --------------------------------------------
      LOOP:  cpu time     10.4856: real time     10.5409

 eigenvalue-minimisations  :  8064
 total energy-change (2. order) :-0.7321745E+01  (-0.8685935E+00)
 number of electron     360.0000000 magnetization       9.1533056
 augmentation part      -66.2412312 magnetization       9.8255252

 Broyden mixing:
  rms(total) = 0.90800E+00    rms(broyden)= 0.90800E+00
  rms(prec ) = 0.92370E+00
  weight for this iteration     100.00

 eigenvalues of (default mixing * dielectric matrix)
  average eigenvalue GAMMA=   1.4531
  0.8620  2.0443

 Free energy of the ion-electron system (eV)
  ---------------------------------------------------
  alpha Z        PSCENC =       799.08359468
  Ewald energy   TEWEN  =    -12881.08386135
  -Hartree energ DENC   =     -1174.47119731
  -exchange      EXHF   =         0.00000000
  -V(xc)+E(xc)   XCENC  =      -290.04754208
  PAW double counting   =     15123.45898751   -14110.08310730
  entropy T*S    EENTRO =        -0.00000000
  eigenvalues    EBANDS =      -800.19027674
  atomic energy  EATOM  =     13036.45147835
  Solvation  Ediel_sol  =         0.00000000
  ---------------------------------------------------
  free energy    TOTEN  =      -296.88192425 eV

  energy without entropy =     -296.88192425  energy(sigma->0) =     -296.88192425


--------------------------------------------------------------------------------------------------------




--------------------------------------- Iteration      1(   8)  ---------------------------------------


    POTLOK:  cpu time      0.1325: real time      0.1334
    SETDIJ:  cpu time      0.5955: real time      0.5976
     EDDAV:  cpu time      9.5512: real time      9.6049
       DOS:  cpu time      0.0010: real time      0.0010
    CHARGE:  cpu time      0.4220: real time      0.4237
    MIXING:  cpu time      0.0076: real time      0.0076
    --------------------------------------------
      LOOP:  cpu time     10.7098: real time     10.7682

 eigenvalue-minimisations  :  8200
 total energy-change (2. order) :-0.3196637E+01  (-0.1732865E+00)
 number of electron     360.0000000 magnetization       4.3830761
 augmentation part      -66.2505658 magnetization       4.6880373

 Broyden mixing:
  rms(total) = 0.33134E+00    rms(broyden)= 0.33134E+00
  rms(prec ) = 0.33681E+00
  weight for this iteration     100.00

 eigenvalues of (default mixing * dielectric matrix)
  average eigenvalue GAMMA=   1.3574
  2.4972  0.9243  0.6507

 Free energy of the ion-electron system (eV)
  ---------------------------------------------------
  alpha Z        PSCENC =       799.08359468
  Ewald energy   TEWEN  =    -12881.08386135
  -Hartree energ DENC   =     -1178.91498268
  -exchange      EXHF   =         0.00000000
  -V(xc)+E(xc)   XCENC  =      -289.76049565
  PAW double counting   =     16891.97041456   -15879.52497196
  entropy T*S    EENTRO =        -0.00000000
  eigenvalues    EBANDS =      -798.29973720
  atomic energy  EATOM  =     13036.45147835
  Solvation  Ediel_sol  =         0.00000000
  ---------------------------------------------------
  free energy    TOTEN  =      -300.07856124 eV

  energy without entropy =     -300.07856124  energy(sigma->0) =     -300.07856124


--------------------------------------------------------------------------------------------------------




--------------------------------------- Iteration      1(   9)  ---------------------------------------


    POTLOK:  cpu time      0.1324: real time      0.1331
    SETDIJ:  cpu time      0.5946: real time      0.5970
     EDDAV:  cpu time     10.2179: real time     10.2725
       DOS:  cpu time      0.0009: real time      0.0009
    CHARGE:  cpu time      0.4281: real time      0.4303
    MIXING:  cpu time      0.0079: real time      0.0079
    --------------------------------------------
      LOOP:  cpu time     11.3819: real time     11.4418

 eigenvalue-minimisations  :  9072
 total energy-change (2. order) :-0.3705217E+00  (-0.4195737E-01)
 number of electron     360.0000000 magnetization       2.2610282
 augmentation part      -66.2902663 magnetization       2.4139301

 Broyden mixing:
  rms(total) = 0.14770E+00    rms(broyden)= 0.14770E+00
  rms(prec ) = 0.14929E+00
  weight for this iteration     100.00

 eigenvalues of (default mixing * dielectric matrix)
  average eigenvalue GAMMA=   1.3295
  2.6303  1.2357  0.8330  0.6191

 Free energy of the ion-electron system (eV)
  ---------------------------------------------------
  alpha Z        PSCENC =       799.08359468
  Ewald energy   TEWEN  =    -12881.08386135
  -Hartree energ DENC   =     -1177.76527712
  -exchange      EXHF   =         0.00000000
  -V(xc)+E(xc)   XCENC  =      -289.81049387
  PAW double counting   =     17175.34251596   -16163.23100741
  entropy T*S    EENTRO =        -0.00000000
  eigenvalues    EBANDS =      -799.43603216
  atomic energy  EATOM  =     13036.45147835
  Solvation  Ediel_sol  =         0.00000000
  ---------------------------------------------------
  free energy    TOTEN  =      -300.44908292 eV

  energy without entropy =     -300.44908292  energy(sigma->0) =     -300.44908292


--------------------------------------------------------------------------------------------------------




--------------------------------------- Iteration      1(  10)  ---------------------------------------


    POTLOK:  cpu time      0.1311: real time      0.1318
    SETDIJ:  cpu time      0.5991: real time      0.6012
     EDDAV:  cpu time      9.3967: real time      9.4468
       DOS:  cpu time      0.0007: real time      0.0007
    CHARGE:  cpu time      0.4274: real time      0.4291
    MIXING:  cpu time      0.0081: real time      0.0081
    --------------------------------------------
      LOOP:  cpu time     10.5631: real time     10.6178

 eigenvalue-minimisations  :  8120
 total energy-change (2. order) :-0.1070353E+00  (-0.9873268E-02)
 number of electron     360.0000000 magnetization       0.7390328
 augmentation part      -66.2931552 magnetization       0.8058331

 Broyden mixing:
  rms(total) = 0.72588E-01    rms(broyden)= 0.72588E-01
  rms(prec ) = 0.73683E-01
  weight for this iteration     100.00

 eigenvalues of (default mixing * dielectric matrix)
  average eigenvalue GAMMA=   1.3737
  2.6995  1.7529  0.9686  0.8218  0.6259

 Free energy of the ion-electron system (eV)
  ---------------------------------------------------
  alpha Z        PSCENC =       799.08359468
  Ewald energy   TEWEN  =    -12881.08386135
  -Hartree energ DENC   =     -1177.88703866
  -exchange      EXHF   =         0.00000000
  -V(xc)+E(xc)   XCENC  =      -289.81023639
  PAW double counting   =     17186.66985925   -16174.56910937
  entropy T*S    EENTRO =        -0.00000000
  eigenvalues    EBANDS =      -799.41080469
  atomic energy  EATOM  =     13036.45147835
  Solvation  Ediel_sol  =         0.00000000
  ---------------------------------------------------
  free energy    TOTEN  =      -300.55611818 eV

  energy without entropy =     -300.55611818  energy(sigma->0) =     -300.55611818


--------------------------------------------------------------------------------------------------------




--------------------------------------- Iteration      1(  11)  ---------------------------------------


    POTLOK:  cpu time      0.1366: real time      0.1373
    SETDIJ:  cpu time      0.5911: real time      0.5929
     EDDAV:  cpu time     10.1255: real time     10.1821
       DOS:  cpu time      0.0006: real time      0.0006
    CHARGE:  cpu time      0.4248: real time      0.4267
    MIXING:  cpu time      0.0078: real time      0.0078
    --------------------------------------------
      LOOP:  cpu time     11.2864: real time     11.3476

 eigenvalue-minimisations  :  8944
 total energy-change (2. order) :-0.3032430E-01  (-0.3428523E-02)
 number of electron     360.0000000 magnetization       0.1770744
 augmentation part      -66.2784326 magnetization       0.1961512

 Broyden mixing:
  rms(total) = 0.28489E-01    rms(broyden)= 0.28489E-01
  rms(prec ) = 0.28866E-01
  weight for this iteration     100.00

 eigenvalues of (default mixing * dielectric matrix)
  average eigenvalue GAMMA=   1.4041
  2.9028  2.1672  1.1767  0.8564  0.6966  0.6251

 Free energy of the ion-electron system (eV)
  ---------------------------------------------------
  alpha Z        PSCENC =       799.08359468
  Ewald energy   TEWEN  =    -12881.08386135
  -Hartree energ DENC   =     -1178.99704078
  -exchange      EXHF   =         0.00000000
  -V(xc)+E(xc)   XCENC  =      -289.76741416
  PAW double counting   =     17112.31754650   -16100.19107744
  entropy T*S    EENTRO =        -0.00000000
  eigenvalues    EBANDS =      -798.39966828
  atomic energy  EATOM  =     13036.45147835
  Solvation  Ediel_sol  =         0.00000000
  ---------------------------------------------------
  free energy    TOTEN  =      -300.58644248 eV

  energy without entropy =     -300.58644248  energy(sigma->0) =     -300.58644248


--------------------------------------------------------------------------------------------------------




--------------------------------------- Iteration      1(  12)  ---------------------------------------


    POTLOK:  cpu time      0.1322: real time      0.1344
    SETDIJ:  cpu time      0.5979: real time      0.6001
     EDDAV:  cpu time      9.8577: real time      9.9116
       DOS:  cpu time      0.0008: real time      0.0008
    CHARGE:  cpu time      0.4239: real time      0.4258
    MIXING:  cpu time      0.0079: real time      0.0079
    --------------------------------------------
      LOOP:  cpu time     11.0205: real time     11.0807

 eigenvalue-minimisations  :  8552
 total energy-change (2. order) :-0.3325463E-02  (-0.4565129E-03)
 number of electron     360.0000000 magnetization       0.0603349
 augmentation part      -66.2778041 magnetization       0.0646252

 Broyden mixing:
  rms(total) = 0.10516E-01    rms(broyden)= 0.10516E-01
  rms(prec ) = 0.11081E-01
  weight for this iteration     100.00

 eigenvalues of (default mixing * dielectric matrix)
  average eigenvalue GAMMA=   1.3678
  3.0007  2.3265  1.2091  0.8873  0.8873  0.6101  0.6532

 Free energy of the ion-electron system (eV)
  ---------------------------------------------------
  alpha Z        PSCENC =       799.08359468
  Ewald energy   TEWEN  =    -12881.08386135
  -Hartree energ DENC   =     -1179.10595813
  -exchange      EXHF   =         0.00000000
  -V(xc)+E(xc)   XCENC  =      -289.76899562
  PAW double counting   =     17076.65771106   -16064.50883308
  entropy T*S    EENTRO =        -0.00000000
  eigenvalues    EBANDS =      -798.31490386
  atomic energy  EATOM  =     13036.45147835
  Solvation  Ediel_sol  =         0.00000000
  ---------------------------------------------------
  free energy    TOTEN  =      -300.58976794 eV

  energy without entropy =     -300.58976794  energy(sigma->0) =     -300.58976794


--------------------------------------------------------------------------------------------------------




--------------------------------------- Iteration      1(  13)  ---------------------------------------


    POTLOK:  cpu time      0.1317: real time      0.1324
    SETDIJ:  cpu time      0.5962: real time      0.5979
     EDDAV:  cpu time     10.9092: real time     10.9637
       DOS:  cpu time      0.0008: real time      0.0008
    CHARGE:  cpu time      0.4253: real time      0.4277
    MIXING:  cpu time      0.0078: real time      0.0078
    --------------------------------------------
      LOOP:  cpu time     12.0710: real time     12.1302

 eigenvalue-minimisations  :  9800
 total energy-change (2. order) :-0.1132720E-03  (-0.5398782E-04)
 number of electron     360.0000000 magnetization       0.0161099
 augmentation part      -66.2793580 magnetization       0.0170456

 Broyden mixing:
  rms(total) = 0.43733E-02    rms(broyden)= 0.43733E-02
  rms(prec ) = 0.45592E-02
  weight for this iteration     100.00

 eigenvalues of (default mixing * dielectric matrix)
  average eigenvalue GAMMA=   1.3504
  3.0467  2.4321  1.1291  1.1291  0.9529  0.8577  0.6481  0.6078

 Free energy of the ion-electron system (eV)
  ---------------------------------------------------
  alpha Z        PSCENC =       799.08359468
  Ewald energy   TEWEN  =    -12881.08386135
  -Hartree energ DENC   =     -1178.99757870
  -exchange      EXHF   =         0.00000000
  -V(xc)+E(xc)   XCENC  =      -289.77981605
  PAW double counting   =     17063.04330711   -16050.88324001
  entropy T*S    EENTRO =        -0.00000000
  eigenvalues    EBANDS =      -798.42376525
  atomic energy  EATOM  =     13036.45147835
  Solvation  Ediel_sol  =         0.00000000
  ---------------------------------------------------
  free energy    TOTEN  =      -300.58988121 eV

  energy without entropy =     -300.58988121  energy(sigma->0) =     -300.58988121


--------------------------------------------------------------------------------------------------------




--------------------------------------- Iteration      1(  14)  ---------------------------------------


    POTLOK:  cpu time      0.1313: real time      0.1320
    SETDIJ:  cpu time      0.5957: real time      0.5982
     EDDAV:  cpu time      9.5321: real time      9.5797
       DOS:  cpu time      0.0007: real time      0.0007
    CHARGE:  cpu time      0.4164: real time      0.4184
    MIXING:  cpu time      0.0087: real time      0.0087
    --------------------------------------------
      LOOP:  cpu time     10.6849: real time     10.7378

 eigenvalue-minimisations  :  8288
 total energy-change (2. order) :-0.1541875E-04  (-0.8515450E-05)
 number of electron     360.0000000 magnetization       0.0048541
 augmentation part      -66.2790666 magnetization       0.0052423

 Broyden mixing:
  rms(total) = 0.16920E-02    rms(broyden)= 0.16920E-02
  rms(prec ) = 0.17882E-02
  weight for this iteration     100.00

 eigenvalues of (default mixing * dielectric matrix)
  average eigenvalue GAMMA=   1.3389
  3.0747  2.4672  1.5046  1.2072  0.8876  0.8876  0.7716  0.6093  0.6407

 Free energy of the ion-electron system (eV)
  ---------------------------------------------------
  alpha Z        PSCENC =       799.08359468
  Ewald energy   TEWEN  =    -12881.08386135
  -Hartree energ DENC   =     -1178.99770528
  -exchange      EXHF   =         0.00000000
  -V(xc)+E(xc)   XCENC  =      -289.78077278
  PAW double counting   =     17058.29561514   -16046.13246711
  entropy T*S    EENTRO =        -0.00000000
  eigenvalues    EBANDS =      -798.42577828
  atomic energy  EATOM  =     13036.45147835
  Solvation  Ediel_sol  =         0.00000000
  ---------------------------------------------------
  free energy    TOTEN  =      -300.58989663 eV

  energy without entropy =     -300.58989663  energy(sigma->0) =     -300.58989663


--------------------------------------------------------------------------------------------------------




--------------------------------------- Iteration      1(  15)  ---------------------------------------


    POTLOK:  cpu time      0.1314: real time      0.1321
    SETDIJ:  cpu time      0.5964: real time      0.5980
     EDDAV:  cpu time      9.7731: real time      9.8217
       DOS:  cpu time      0.0007: real time      0.0007
    CHARGE:  cpu time      0.4079: real time      0.4097
    MIXING:  cpu time      0.0081: real time      0.0081
    --------------------------------------------
      LOOP:  cpu time     10.9176: real time     10.9702

 eigenvalue-minimisations  :  8512
 total energy-change (2. order) :-0.3360830E-05  (-0.1543783E-05)
 number of electron     360.0000000 magnetization       0.0017254
 augmentation part      -66.2791714 magnetization       0.0019467

 Broyden mixing:
  rms(total) = 0.76830E-03    rms(broyden)= 0.76830E-03
  rms(prec ) = 0.81098E-03
  weight for this iteration     100.00

 eigenvalues of (default mixing * dielectric matrix)
  average eigenvalue GAMMA=   1.3058
  3.0863  2.4347  1.7262  1.1233  0.9599  0.9599  0.8216  0.7098  0.6183  0.6183

 Free energy of the ion-electron system (eV)
  ---------------------------------------------------
  alpha Z        PSCENC =       799.08359468
  Ewald energy   TEWEN  =    -12881.08386135
  -Hartree energ DENC   =     -1178.98777229
  -exchange      EXHF   =         0.00000000
  -V(xc)+E(xc)   XCENC  =      -289.78094982
  PAW double counting   =     17057.86937892   -16045.70554624
  entropy T*S    EENTRO =        -0.00000000
  eigenvalues    EBANDS =      -798.43622225
  atomic energy  EATOM  =     13036.45147835
  Solvation  Ediel_sol  =         0.00000000
  ---------------------------------------------------
  free energy    TOTEN  =      -300.58989999 eV

  energy without entropy =     -300.58989999  energy(sigma->0) =     -300.58989999


--------------------------------------------------------------------------------------------------------




--------------------------------------- Iteration      1(  16)  ---------------------------------------


    POTLOK:  cpu time      0.1323: real time      0.1333
    SETDIJ:  cpu time      0.5959: real time      0.5980
     EDDAV:  cpu time      6.7049: real time      6.7392
       DOS:  cpu time      0.0007: real time      0.0007
    --------------------------------------------
      LOOP:  cpu time      7.4338: real time      7.4713

 eigenvalue-minimisations  :  4928
 total energy-change (2. order) :-0.6992732E-06  (-0.1486660E-06)
 number of electron     360.0000000 magnetization       0.0017254
 augmentation part      -66.2791714 magnetization       0.0019467

 Free energy of the ion-electron system (eV)
  ---------------------------------------------------
  alpha Z        PSCENC =       799.08359468
  Ewald energy   TEWEN  =    -12881.08386135
  -Hartree energ DENC   =     -1178.98287257
  -exchange      EXHF   =         0.00000000
  -V(xc)+E(xc)   XCENC  =      -289.78107277
  PAW double counting   =     17057.90802398   -16045.74401967
  entropy T*S    EENTRO =        -0.00000000
  eigenvalues    EBANDS =      -798.44117135
  atomic energy  EATOM  =     13036.45147835
  Solvation  Ediel_sol  =         0.00000000
  ---------------------------------------------------
  free energy    TOTEN  =      -300.58990069 eV

  energy without entropy =     -300.58990069  energy(sigma->0) =     -300.58990069


--------------------------------------------------------------------------------------------------------




 average (electrostatic) potential at core
  the test charge radii are     1.1631  1.0808
  (the norm of the test charge is              1.0000)
       1 -33.2489       2 -33.2792       3 -33.5190       4 -33.4557       5 -33.2229
       6 -33.4964       7 -33.3203       8 -33.5592       9 -33.4687      10 -33.2852
      11 -33.4349      12 -33.6181      13 -33.6863      14 -33.5346      15 -33.6419
      16 -33.5036      17 -33.3410      18 -33.3623      19 -33.3930      20 -33.4001
      21 -33.4903      22 -33.5359      23 -33.3587      24 -33.4321      25 -33.4340
      26 -33.2375      27 -33.7288      28 -33.3569      29 -33.4138      30 -33.5369
      31 -33.4854      32 -33.5664      33 -33.2616      34 -33.4408      35 -33.6941
      36 -33.3948      37 -54.8979      38 -54.8890      39 -55.0872      40 -54.6214
      41 -54.8887      42 -54.8336      43 -54.7083      44 -54.7123      45 -54.5850
      46 -54.7331      47 -54.5381      48 -54.7248      49 -54.8371      50 -54.8104
      51 -55.0357      52 -54.7284      53 -54.8235      54 -54.9646      55 -54.7184
      56 -54.9324      57 -54.9787      58 -54.7634      59 -54.6254      60 -54.9262
      61 -54.8796      62 -54.8716      63 -54.8902      64 -54.8101      65 -54.9584
      66 -54.7622      67 -54.6500      68 -54.7207      69 -55.0429      70 -54.7325
      71 -54.8905      72 -54.9348
 
 
 
 E-fermi :   3.4982     XC(G=0):  -9.3888     alpha+bet : -8.8452

 Fermi energy:         3.4982273754

 spin component 1

 k-point     1 :       0.0000    0.0000    0.0000
  band No.  band energies     occupation 
      1     -10.9023      1.00000
      2     -10.5966      1.00000
      3     -10.4670      1.00000
      4     -10.3147      1.00000
      5     -10.3079      1.00000
      6     -10.2233      1.00000
      7     -10.1342      1.00000
      8     -10.0190      1.00000
      9      -9.9939      1.00000
     10      -9.9406      1.00000
     11      -9.8990      1.00000
     12      -9.8138      1.00000
     13      -9.7770      1.00000
     14      -9.7435      1.00000
     15      -9.7012      1.00000
     16      -9.6207      1.00000
     17      -9.5716      1.00000
     18      -9.5357      1.00000
     19      -9.5232      1.00000
     20      -9.5079      1.00000
     21      -9.4541      1.00000
     22      -9.3925      1.00000
     23      -9.3406      1.00000
     24      -9.3280      1.00000
     25      -9.2727      1.00000
     26      -9.2465      1.00000
     27      -9.2278      1.00000
     28      -9.1734      1.00000
     29      -9.1235      1.00000
     30      -9.1138      1.00000
     31      -9.0779      1.00000
     32      -9.0578      1.00000
     33      -8.9974      1.00000
     34      -8.9305      1.00000
     35      -8.8888      1.00000
     36      -8.8667      1.00000
     37      -5.4084      1.00000
     38      -5.3413      1.00000
     39      -5.2787      1.00000
     40      -5.2470      1.00000
     41      -5.0638      1.00000
     42      -5.0458      1.00000
     43      -4.9444      1.00000
     44      -4.9327      1.00000
     45      -4.7224      1.00000
     46      -4.6756      1.00000
     47      -4.5514      1.00000
     48      -4.4825      1.00000
     49      -4.4522      1.00000
     50      -4.4093      1.00000
     51      -4.3918      1.00000
     52      -4.3764      1.00000
     53      -4.3247      1.00000
     54      -4.3089      1.00000
     55      -4.2847      1.00000
     56      -4.2688      1.00000
     57      -4.2405      1.00000
     58      -4.2290      1.00000
     59      -4.1988      1.00000
     60      -4.1401      1.00000
     61      -4.0950      1.00000
     62      -4.0426      1.00000
     63      -3.9384      1.00000
     64      -3.8763      1.00000
     65      -3.8519      1.00000
     66      -3.8080      1.00000
     67      -3.6682      1.00000
     68      -3.5998      1.00000
     69      -3.5372      1.00000
     70      -3.4866      1.00000
     71      -2.5466      1.00000
     72      -2.4005      1.00000
     73      -1.8045      1.00000
     74      -1.6627      1.00000
     75      -1.5827      1.00000
     76      -1.5339      1.00000
     77      -1.4658      1.00000
     78      -1.4079      1.00000
     79      -1.3234      1.00000
     80      -1.2772      1.00000
     81      -1.2089      1.00000
     82      -1.1677      1.00000
     83      -1.1100      1.00000
     84      -1.0895      1.00000
     85      -1.0007      1.00000
     86      -0.8335      1.00000
     87      -0.7880      1.00000
     88      -0.7517      1.00000
     89      -0.6703      1.00000
     90      -0.5710      1.00000
     91      -0.5656      1.00000
     92      -0.5141      1.00000
     93      -0.4338      1.00000
     94      -0.2913      1.00000
     95      -0.1200      1.00000
     96      -0.0748      1.00000
     97      -0.0337      1.00000
     98      -0.0151      1.00000
     99       0.0781      1.00000
    100       0.0901      1.00000
    101       0.1617      1.00000
    102       0.1794      1.00000
    103       0.2476      1.00000
    104       0.2828      1.00000
    105       0.2975      1.00000
    106       0.3105      1.00000
    107       0.3591      1.00000
    108       0.3858      1.00000
    109       0.4132      1.00000
    110       0.4909      1.00000
    111       0.5007      1.00000
    112       0.5285      1.00000
    113       0.5708      1.00000
    114       0.5876      1.00000
    115       0.6435      1.00000
    116       0.6699      1.00000
    117       0.6741      1.00000
    118       0.7198      1.00000
    119       0.7519      1.00000
    120       0.7796      1.00000
    121       0.8146      1.00000
    122       0.8418      1.00000
    123       0.8856      1.00000
    124       0.9439      1.00000
    125       0.9769      1.00000
    126       1.0235      1.00000
    127       1.0323      1.00000
    128       1.0637      1.00000
    129       1.0907      1.00000
    130       1.1594      1.00000
    131       1.1829      1.00000
    132       1.1963      1.00000
    133       1.2351      1.00000
    134       1.3161      1.00000
    135       1.3844      1.00000
    136       1.4375      1.00000
    137       1.4666      1.00000
    138       1.4850      1.00000
    139       1.5264      1.00000
    140       1.5592      1.00000
    141       1.5975      1.00000
    142       1.6340      1.00000
    143       1.6483      1.00000
    144       1.6850      1.00000
    145       1.7283      1.00000
    146       1.7837      1.00000
    147       1.8068      1.00000
    148       1.8588      1.00000
    149       1.8697      1.00000
    150       1.8985      1.00000
[...]
   0.112E+01 -.110E+02 -.204E+02   -.112E+01 0.130E+02 0.226E+02   -.110E+00 -.213E+01 -.274E+01   -.565E-04 0.308E-05 0.144E-04
   -.206E+02 -.813E+01 0.258E+02   0.227E+02 0.728E+01 -.292E+02   -.201E+01 0.958E+00 0.258E+01   -.859E-04 -.150E-03 0.178E-03
   0.943E+01 0.116E+02 0.262E+02   -.943E+01 -.127E+02 -.280E+02   -.313E+00 0.132E+01 0.198E+01   -.729E-04 0.130E-03 -.188E-03
   -.191E+01 0.121E+02 0.282E+02   0.195E+01 -.130E+02 -.303E+02   0.465E+00 0.713E+00 0.244E+01   -.230E-03 0.174E-03 -.152E-03
   0.443E+01 0.109E+02 0.270E+02   -.476E+01 -.117E+02 -.288E+02   0.395E+00 0.805E+00 0.138E+01   -.328E-04 -.101E-03 -.137E-03
   -.257E+01 0.730E+01 0.272E+02   0.235E+01 -.815E+01 -.291E+02   0.224E+00 0.654E+00 0.207E+01   0.124E-03 -.337E-03 -.223E-03
   -.115E+01 0.167E+02 0.398E+02   0.853E+00 -.178E+02 -.420E+02   0.612E-01 0.103E+01 0.108E+01   0.170E-03 0.181E-03 -.248E-03
   0.782E-01 -.116E+01 0.352E+02   -.450E+00 0.570E+00 -.373E+02   0.132E+00 0.495E+00 0.184E+01   0.211E-03 0.137E-03 0.145E-03
   0.343E+01 0.430E+01 0.173E+02   -.379E+01 -.478E+01 -.184E+02   0.364E+00 0.488E+00 0.122E+01   0.885E-04 0.748E-04 -.305E-03
   -.810E+01 -.341E+00 -.273E+02   0.834E+01 0.113E+01 0.292E+02   -.365E-01 -.880E+00 -.153E+01   -.322E-03 -.640E-04 -.335E-03
   -.329E+01 -.149E+02 -.192E+02   0.329E+01 0.159E+02 0.208E+02   0.178E+00 -.126E+01 -.194E+01   0.250E-03 -.902E-04 -.553E-04
   -.457E+01 -.128E+02 -.259E+02   0.544E+01 0.146E+02 0.273E+02   -.546E+00 -.155E+01 -.160E+01   -.181E-03 0.179E-03 0.202E-03
   0.205E+02 0.769E+01 -.226E+02   -.215E+02 -.794E+01 0.242E+02   0.134E+01 0.300E+00 -.177E+01   0.194E-03 -.558E-04 0.810E-04
   0.721E+01 -.452E+01 -.252E+02   -.797E+01 0.468E+01 0.269E+02   0.938E+00 0.492E+00 -.213E+01   0.302E-04 -.239E-03 -.118E-03
   -.159E+01 -.654E+01 -.377E+02   0.140E+01 0.761E+01 0.394E+02   0.143E+00 -.975E+00 -.164E+01   -.917E-04 -.119E-03 0.788E-04
   -.875E+01 -.173E+02 -.327E+02   0.928E+01 0.185E+02 0.343E+02   -.450E+00 -.128E+01 -.140E+01   -.881E-04 0.242E-03 -.709E-04
   -.193E+01 0.792E+00 0.358E+02   0.205E+01 -.138E+01 -.379E+02   0.113E+00 0.882E+00 0.171E+01   0.290E-04 -.242E-04 -.319E-03
   0.459E+01 0.505E+01 0.323E+02   -.468E+01 -.579E+01 -.345E+02   0.210E+00 0.937E+00 0.220E+01   -.447E-04 -.723E-04 0.368E-04
   0.237E+02 -.142E+01 0.248E+02   -.254E+02 0.151E+01 -.267E+02   0.968E+00 -.326E-01 0.211E+01   -.184E-04 -.101E-03 0.124E-03
   0.324E+02 0.751E+01 0.165E+02   -.339E+02 -.726E+01 -.183E+02   0.704E+00 -.631E-01 0.168E+01   0.259E-04 -.269E-03 0.236E-03
   0.103E+02 -.662E+01 0.210E+02   -.109E+02 0.763E+01 -.218E+02   -.376E+00 -.780E+00 0.976E+00   -.206E-03 -.421E-04 0.149E-03
   0.141E+02 0.160E+02 -.264E+02   -.152E+02 -.164E+02 0.275E+02   0.909E+00 0.631E+00 -.121E+01   0.280E-03 0.247E-03 0.905E-04
   0.151E+02 0.133E+02 -.274E+02   -.152E+02 -.147E+02 0.294E+02   -.314E+00 0.134E+01 -.199E+01   0.339E-04 0.929E-04 -.712E-04
   0.776E+01 0.661E+01 -.385E+02   -.799E+01 -.733E+01 0.407E+02   0.242E+00 0.111E+01 -.137E+01   0.142E-04 0.118E-03 -.659E-04
   0.443E+01 -.375E+01 -.392E+02   -.458E+01 0.387E+01 0.414E+02   0.254E+00 0.804E-01 -.165E+01   0.101E-03 -.278E-03 -.104E-03
   -.141E+02 0.935E+01 -.966E+01   0.144E+02 -.981E+01 0.112E+02   -.458E-01 0.514E+00 -.234E+01   -.222E-03 -.133E-03 0.117E-03
   0.155E+02 0.759E+01 -.182E+02   -.161E+02 -.844E+01 0.197E+02   0.169E+00 0.101E+01 -.186E+01   0.974E-04 0.561E-03 0.152E-03
   -.533E+01 0.399E+01 -.268E+02   0.558E+01 -.485E+01 0.286E+02   -.434E+00 0.119E+01 -.145E+01   -.440E-04 -.315E-03 0.177E-03
   -.571E+00 0.226E+01 -.198E+02   0.238E+00 -.261E+01 0.208E+02   0.775E+00 0.647E+00 -.125E+01   0.273E-03 -.220E-04 0.232E-03
   -.245E+02 0.590E+01 -.240E+02   0.252E+02 -.643E+01 0.257E+02   -.616E+00 0.248E+00 -.177E+01   -.104E-03 0.374E-03 0.220E-03
   -.600E+01 0.146E+02 -.268E+02   0.584E+01 -.160E+02 0.290E+02   0.785E-01 0.114E+01 -.250E+01   -.697E-04 -.273E-03 -.955E-04
   0.252E+02 -.122E+02 0.278E+02   -.259E+02 0.134E+02 -.294E+02   -.667E-01 -.130E+01 0.114E+01   -.294E-04 0.325E-03 0.231E-04
   0.157E+02 -.112E+02 0.325E+02   -.165E+02 0.120E+02 -.346E+02   0.516E+00 -.919E+00 0.140E+01   0.566E-04 -.126E-03 0.195E-03
   -.368E+01 -.834E+00 0.214E+02   0.315E+01 0.181E+01 -.227E+02   0.350E+00 -.912E+00 0.167E+01   0.289E-03 -.461E-03 0.224E-03
   0.210E+01 0.290E+01 0.266E+02   -.277E+01 -.279E+01 -.285E+02   0.111E+01 -.119E+00 0.141E+01   0.355E-03 0.380E-03 -.206E-03
   -.821E+01 -.240E+02 0.192E+02   0.829E+01 0.251E+02 -.211E+02   -.181E+00 -.994E+00 0.229E+01   0.453E-04 -.134E-03 0.242E-03
   -.690E+00 -.125E+02 0.306E+02   0.233E+00 0.135E+02 -.320E+02   0.623E-01 -.108E+01 0.116E+01   -.253E-03 -.143E-04 0.200E-03
   -.454E+01 -.340E+02 -.331E+02   0.427E+01 0.356E+02 0.354E+02   -.604E-01 -.927E+00 -.167E+01   -.945E-05 -.146E-03 0.295E-04
 -----------------------------------------------------------------------------------------------
   0.114E+02 0.432E+01 0.869E+00   0.782E-13 0.284E-13 0.327E-12   -.114E+02 -.432E+01 -.869E+00   -.632E-05 0.253E-03 -.241E-03
 
 
 POSITION                                       TOTAL-FORCE (eV/Angst)
 -----------------------------------------------------------------------------------
      0.51424      0.36497      1.54789         0.740131     -0.320211      0.128600
      2.87483     10.82859      4.11480        -0.468751      0.062052      0.311838
      6.95308      2.53935      4.20245        -0.104391     -0.160440     -0.447264
      7.09240      6.66143      4.00505        -0.340958      0.157382      0.586162
      7.00966     11.09680      3.92851         0.161109     -0.240853      0.176244
     11.39937      2.86482      4.42170         0.067413     -0.356563     -0.486294
     10.83024      6.54144      4.23427         0.807407     -0.163516      0.159271
     11.18631     10.78734      4.07327         0.116695      0.439199     -0.174458
      0.90843      1.83055      7.08782        -0.227373      0.071051     -0.194705
      0.83163      6.11460      7.03251        -0.384935     -0.114024     -0.686958
      0.92733     10.23339      7.04070        -0.373115     -0.024247     -0.415396
      4.86751      2.04528      7.13013         0.299705     -0.303524      0.180394
      4.86623      6.11976      6.99682        -0.000736     -0.353084      0.333970
      4.85177     10.29995      6.90033         0.413424     -0.076161     -0.202827
      9.37674      1.90792      6.80503        -0.232619     -0.174399      0.416669
      8.93305      6.08209      7.08115         0.502778      0.066669      0.126137
      3.17669      7.01330      4.31058        -0.340327     -0.024940     -0.103147
      3.06678      2.67714      3.85819        -0.322500     -0.122582      0.832355
      8.91298     10.24354      7.16024         0.354963      0.171982     -0.310005
     11.31045      8.34747      9.39976         0.068213     -0.197830      0.327202
     10.99111     12.42648      9.57973         0.359089     -0.054291     -0.066928
      0.84078      4.81354      1.37969         0.176040      0.064680      0.464789
      0.76255      8.86387      1.42893         0.572729     -0.114020      0.233994
      4.83183      0.71829      1.39679         0.768389     -0.749785      0.354687
      4.80547      4.69075      1.36038         0.369030     -0.159458      0.289213
      9.07552      0.78312      1.53530         0.443191     -0.236566     -0.454992
      9.23353      4.91056      1.33687        -0.115705     -0.233831      0.110277
      4.93847      8.90332      1.31622         0.101577      0.244557      0.157755
      2.76577      3.91684      9.56073         0.310029      0.479259     -0.060998
      2.98921      8.27352      9.60655        -0.219329     -0.292080      0.616959
      3.12648     12.35835      9.60307        -0.181175     -0.401945      0.412296
      7.12578      4.03016      9.71315        -0.114745     -0.192027      0.589221
      6.97757      7.94279      9.64086         0.088174      0.550007      0.288725
      7.10365     12.34872      9.59725        -0.143561      0.166082     -0.192004
     11.24122      3.85299      9.88070        -0.103151     -0.135838     -0.473098
      8.81332      8.64141      1.51328         0.102170      0.106439     -0.813413
     11.34197      0.08030      7.03464        -0.317673      0.232918      0.240068
      2.78914      4.36435      6.97468         0.512300     -0.144026      0.342500
      2.99263      8.49307      7.14980         0.066197     -0.062998     -0.492082
      7.09766      0.38208      7.04715         0.002426     -0.197907      0.208347
      7.04225      4.37148      7.31528        -0.239202     -0.105279     -1.057684
      7.06429      8.47544      7.14987        -0.239463     -0.094518     -0.209305
     11.20518      4.39235      7.29119         0.009184      0.011412      0.110306
      9.16307      0.15867      3.93482         0.206645     -0.093113      0.364355
      0.84078      0.15442      4.11448         0.172472     -0.290233     -0.312959
      0.96374      4.38124      3.95439         0.323941      0.245961     -0.201480
      1.08069      8.65578      3.99474         0.267057      0.057862     -0.102262
      5.07328      0.26138      4.05548         0.182249      0.652091     -0.452514
      5.14029      4.36188      3.96770        -0.049669      0.089174     -0.003396
      5.21020      8.58043      3.87623         0.079329     -0.055750      0.173624
      2.94067      0.12139      7.14552         0.234540      0.295134     -0.394387
     11.14254      8.56062      6.94452         0.123263      0.198854      0.013129
     11.42789     10.64002      1.50480        -0.666873      0.060294      0.242203
      3.13457      2.48345      1.42284        -0.797608      0.184154     -0.147928
     11.47323      2.33724      1.77037        -0.920443      0.228959      0.180971
      9.32870      4.40345      3.91385        -0.182122      0.184408     -0.044830
      0.95164      2.14931      9.61480        -0.488812     -0.051968     -0.016423
      0.92180      6.48486      9.43906         0.017463      0.394788      0.859683
      0.88805     10.55420      9.47204         0.106083      0.196323      0.623870
      4.92038      2.29172      9.72366         0.226509      0.049088     -0.764621
      5.03115      6.28895      9.60138        -0.418994      0.157825     -0.427827
      5.10704     10.55332      9.38114        -0.182338      0.331836      0.343821
      9.14994      2.16462      9.48731         0.442896      0.296826     -0.250613
      9.17604      6.54630      9.58906         0.080388     -0.278791     -0.165913
      9.13216     10.67637      9.66054        -0.083979     -0.286740     -0.243021
      3.16256      6.51930      1.81842        -0.756384     -0.122334     -0.396145
      3.18158     10.78321      1.66451        -0.286787     -0.144264     -0.613618
      7.21985      2.46075      1.61251        -0.181114      0.064150      0.406721
      7.06975      6.44415      1.55415         0.437102     -0.007806     -0.499892
      7.10038     10.56159      1.40350        -0.096976      0.087167      0.345839
     11.48307      6.62522      1.73569        -0.395208     -0.171935     -0.305995
      9.16301      8.36012      3.93549        -0.335287      0.711297      0.633190
 -----------------------------------------------------------------------------------
    total drift:                               -0.001315     -0.000515     -0.000072


--------------------------------------------------------------------------------------------------------



  FREE ENERGIE OF THE ION-ELECTRON SYSTEM (eV)
  ---------------------------------------------------
  free  energy   TOTEN  =      -300.58990069 eV

  energy  without entropy=     -300.58990069  energy(sigma->0) =     -300.58990069
 


--------------------------------------------------------------------------------------------------------


    POTLOK:  cpu time      0.7470: real time      0.7495


--------------------------------------------------------------------------------------------------------


     LOOP+:  cpu time    180.6925: real time    181.6564
    4ORBIT:  cpu time      0.0000: real time      0.0000



 total charge

# of ion       s       p       d       tot
------------------------------------------
    1        1.321   0.790   0.058   2.169
    2        1.317   0.770   0.057   2.144
    3        1.330   0.732   0.051   2.113
    4        1.323   0.782   0.063   2.167
    5        1.318   0.787   0.056   2.161
    6        1.316   0.762   0.056   2.134
    7        1.323   0.796   0.062   2.181
    8        1.339   0.705   0.048   2.092
    9        1.326   0.764   0.056   2.146
   10        1.319   0.793   0.062   2.174
   11        1.324   0.768   0.059   2.151
   12        1.333   0.720   0.048   2.102
   13        1.332   0.715   0.050   2.097
   14        1.330   0.750   0.056   2.136
   15        1.336   0.699   0.047   2.083
   16        1.321   0.758   0.056   2.134
   17        1.313   0.785   0.057   2.155
   18        1.325   0.781   0.059   2.165
   19        1.325   0.767   0.053   2.145
   20        1.327   0.755   0.055   2.136
   21        1.324   0.757   0.055   2.135
   22        1.323   0.743   0.051   2.117
   23        1.323   0.764   0.055   2.142
   24        1.331   0.754   0.056   2.141
   25        1.329   0.766   0.062   2.157
   26        1.310   0.805   0.057   2.173
   27        1.336   0.709   0.049   2.094
   28        1.322   0.760   0.057   2.139
   29        1.321   0.779   0.057   2.157
   30        1.331   0.742   0.055   2.128
   31        1.326   0.757   0.056   2.139
   32        1.327   0.758   0.058   2.143
   33        1.310   0.814   0.061   2.185
   34        1.327   0.748   0.054   2.129
   35        1.325   0.717   0.046   2.089
   36        1.326   0.783   0.058   2.167
   37        1.479   2.286   0.032   3.797
   38        1.481   2.279   0.032   3.791
   39        1.476   2.322   0.038   3.836
   40        1.478   2.273   0.025   3.776
   41        1.474   2.329   0.034   3.837
   42        1.476   2.301   0.031   3.809
   43        1.475   2.278   0.025   3.778
   44        1.475   2.305   0.030   3.810
   45        1.477   2.276   0.025   3.778
   46        1.476   2.298   0.030   3.805
   47        1.476   2.284   0.026   3.787
   48        1.480   2.275   0.029   3.785
   49        1.475   2.303   0.032   3.810
   50        1.476   2.302   0.032   3.809
   51        1.478   2.304   0.036   3.818
   52        1.481   2.282   0.030   3.793
   53        1.477   2.308   0.033   3.818
   54        1.479   2.338   0.042   3.859
   55        1.476   2.302   0.029   3.807
   56        1.476   2.301   0.032   3.810
   57        1.479   2.302   0.034   3.815
   58        1.476   2.308   0.031   3.815
   59        1.476   2.294   0.029   3.800
   60        1.482   2.273   0.032   3.786
   61        1.479   2.289   0.032   3.800
   62        1.477   2.303   0.033   3.813
   63        1.477   2.276   0.028   3.781
   64        1.477   2.293   0.030   3.800
   65        1.481   2.300   0.036   3.817
   66        1.475   2.314   0.032   3.821
   67        1.475   2.308   0.030   3.813
   68        1.477   2.297   0.030   3.804
   69        1.477   2.308   0.038   3.823
   70        1.479   2.293   0.031   3.803
   71        1.475   2.301   0.032   3.808
   72        1.475   2.339   0.039   3.853
--------------------------------------------------
tot        100.869 110.077   3.138 214.084



 magnetization (x)

# of ion       s       p       d       tot
------------------------------------------
    1       -0.000   0.000  -0.000  -0.000
    2       -0.000   0.000  -0.000  -0.000
    3       -0.000   0.000   0.000   0.000
    4       -0.000   0.000   0.000   0.000
    5       -0.000   0.000  -0.000   0.000
    6       -0.000   0.000   0.000   0.000
    7       -0.000   0.000   0.000   0.000
    8       -0.000  -0.000  -0.000  -0.000
    9       -0.000   0.000   0.000   0.000
   10       -0.000   0.000  -0.000   0.000
   11       -0.000  -0.000  -0.000  -0.000
   12       -0.000   0.000   0.000   0.000
   13       -0.000   0.000   0.000   0.000
   14       -0.000   0.000  -0.000   0.000
   15       -0.000   0.000   0.000   0.000
   16       -0.000   0.000   0.000   0.000
   17       -0.000   0.000   0.000   0.000
   18       -0.000   0.000  -0.000   0.000
   19       -0.000   0.000  -0.000   0.000
   20       -0.000   0.000  -0.000   0.000
   21       -0.000   0.000  -0.000   0.000
   22       -0.000   0.000   0.000   0.000
   23       -0.000  -0.000  -0.000  -0.000
   24       -0.000   0.000   0.000   0.000
   25       -0.000   0.000   0.000   0.000
   26       -0.000   0.000   0.000   0.000
   27       -0.000   0.000   0.000   0.000
   28       -0.000   0.000  -0.000   0.000
   29       -0.000   0.000   0.000   0.000
   30       -0.000   0.000  -0.000  -0.000
   31       -0.000   0.000  -0.000  -0.000
   32       -0.000   0.000   0.000   0.000
   33       -0.000   0.000   0.000   0.000
   34       -0.000   0.000   0.000   0.000
   35       -0.000   0.000   0.000   0.000
   36       -0.000   0.000  -0.000   0.000
   37       -0.000  -0.000   0.000  -0.000
   38       -0.000  -0.000   0.000  -0.000
   39       -0.000  -0.000  -0.000  -0.000
   40       -0.000  -0.000   0.000  -0.000
   41       -0.000  -0.000   0.000  -0.000
   42       -0.000  -0.000   0.000  -0.000
   43       -0.000  -0.000   0.000  -0.000
   44       -0.000  -0.000  -0.000  -0.000
   45       -0.000  -0.000  -0.000  -0.000
   46       -0.000  -0.000   0.000  -0.000
   47       -0.000  -0.000  -0.000  -0.000
   48       -0.000  -0.000   0.000  -0.000
   49       -0.000  -0.000   0.000  -0.000
   50       -0.000  -0.000   0.000  -0.000
   51       -0.000  -0.000  -0.000  -0.000
   52       -0.000  -0.000   0.000  -0.000
   53       -0.000  -0.000  -0.000  -0.000
   54       -0.000  -0.000   0.000  -0.000
   55       -0.000  -0.000   0.000  -0.000
   56       -0.000  -0.000   0.000  -0.000
   57       -0.000  -0.000   0.000  -0.000
   58       -0.000  -0.000   0.000  -0.000
   59       -0.000  -0.000  -0.000  -0.000
   60       -0.000  -0.000   0.000  -0.000
   61       -0.000  -0.000   0.000  -0.000
   62       -0.000  -0.000  -0.000  -0.000
   63       -0.000  -0.000   0.000  -0.000
   64       -0.000  -0.000   0.000  -0.000
   65       -0.000  -0.000   0.000  -0.000
   66       -0.000  -0.000   0.000  -0.000
   67       -0.000  -0.000  -0.000  -0.000
   68       -0.000  -0.000   0.000  -0.000
   69       -0.000  -0.000   0.000  -0.000
   70       -0.000  -0.000   0.000  -0.000
   71       -0.000  -0.000   0.000  -0.000
   72       -0.000  -0.000   0.000  -0.000
--------------------------------------------------
tot         -0.000  -0.000   0.000  -0.000
 

 total amount of memory used by VASP MPI-rank0   110524. kBytes
=======================================================================

   base      :      30000. kBytes
   nonl-proj :      16287. kBytes
   fftplans  :       6179. kBytes
   grid      :      15593. kBytes
   one-center:        146. kBytes
   wavefun   :      42319. kBytes
 
  
  
 General timing and accounting informations for this job:
 ========================================================
  
                  Total CPU time used (sec):      192.329
                            User time (sec):      186.277
                          System time (sec):        6.051
                         Elapsed time (sec):      194.980
  
                   Maximum memory used (kb):      312752.
                   Average memory used (kb):          N/A
  
                          Minor page faults:       106936
                          Major page faults:           48
                 Voluntary context switches:         6254
