72
Lattice="12.476894581532804 4.8266604643e-06 -1.5894998693e-06 4.836634769e-06 12.502679549730452 2.2502100915e-06 -1.8185089645e-06 2.5691027458e-06 11.088987248594218" Properties=species:S:1:pos:R:3:forces:R:3:magmoms:R:1 energy=-300.38936562 stress="-0.0029783595753739766 -2.3312904154942468e-05 -0.00047837902516471425 -2.3312904154942468e-05 -0.0032205735391542174 -0.0004416421328421871 -0.00047837902516471425 -0.0004416421328421871 -0.011059477588152808" dipole="_JSON [[0.0, 0.0, 0.0]]" magmom=0.0016097 free_energy=-300.38936562 pbc="T T T"
Ge       0.93786373       0.36592231       1.22655692       0.16780534       0.10211587       0.50364323       0.00000000
Ge       3.17308748      10.74601352       4.19399577      -0.43244728      -0.59621734      -0.18121537       0.00000000
Ge       7.29994851       2.33518989       4.30111318      -0.07028852       0.28857366      -0.11211380      -0.00000000
Ge       7.45968638       6.36393307       4.16916938      -0.34012447       0.49313984      -0.51295488       0.00000000
Ge       6.88234914      10.97256847       4.08350147       0.39597736       0.09759319       0.01873034       0.00000000
Ge      11.37136840       2.37635644       4.13669319       0.37378728      -0.20114952       0.09713804      -0.00000000
Ge      11.11642531       6.96059934       4.09873186       0.13858938       0.22942966       1.05225307      -0.00000000
Ge      11.36596526      10.76504919       3.88961788       0.25747152       0.17922781       0.88090487       0.00000000
Ge       1.20828631       2.04286643       7.12010739      -0.59060854       0.16521079       0.04888620      -0.00000000
Ge       1.02288810       6.25639322       6.66870875       0.30607425       0.03670049      -0.03163506      -0.00000000
Ge       0.59148760      10.13640055       7.07036569       0.29139104       0.00140309      -0.27744303       0.00000000
Ge       5.08471197       1.74850531       7.10889556      -0.05312547       0.24961277       0.07884345       0.00000000
Ge       5.07332851       5.94416977       6.98634843       0.62489034       0.62304665      -0.02041527       0.00000000
Ge       5.17295529      10.35944767       6.77455827       0.12096763       0.03229250       0.06325496       0.00000000
Ge       9.25108830       2.11112575       7.17135548       0.49175115      -0.10728524      -1.08815950       0.00000000
Ge       9.24291633       6.10603165       6.77207688      -0.03554128      -0.55142754       0.01052769       0.00000000
Ge       3.11509154       6.54061586       4.09532810       0.35637326       0.05823504      -0.43575332      -0.00000000
Ge       2.94247577       2.58289905       4.09060299      -0.02027237       0.00973705       0.19419008      -0.00000000
Ge       9.23192796      10.40544135       6.96105296      -0.19603101      -0.11694818       0.01487000       0.00000000
Ge      11.04871270       8.09832336       9.63856746       0.48302936      -0.29981974      -0.16721714       0.00000000
Ge      11.31747783      12.40269969       9.50442013       0.02497800       0.19658275      -0.08159423       0.00000000
Ge       0.97939633       4.87549902       1.59930836      -0.11936564      -0.15375174      -1.02837249      -0.00000000
Ge       1.06277531       8.81808180       1.38910045      -0.16977759      -0.37083700       0.06662389       0.00000000
Ge       4.66184297       0.30204680       1.40306666       0.36666946       0.58045255      -0.18321473       0.00000000
Ge       5.33969506       4.31290360       1.40112444       0.00921569       0.19555743       0.36346439       0.00000000
Ge       9.22910793       0.24123128       1.50727752       0.16683238       0.61134526      -0.09230926       0.00000000
Ge       9.63362269       4.54506460       1.10284568       0.01507090      -0.24026056       0.60363130       0.00000000
Ge       5.35303414       8.53403251       1.61429700      -0.29924569      -0.58717704      -0.38764677       0.00000000
Ge       3.23586488       3.85891889       9.63282187      -0.77231376       0.90074134       0.17506064       0.00000000
Ge       3.18214458       8.35594340       9.59270200      -0.46638250      -0.88780709      -0.14775132       0.00000000
Ge       2.81198415      12.11524279       9.63146862      -0.31091868       0.11511190       0.06941104       0.00000000
Ge       7.14928989       3.93832446       9.64417261      -0.63174988       0.21322015      -0.07338275       0.00000000
Ge       7.29882861       8.09307830       9.57615707      -0.42829970       0.10772552       0.15174303       0.00000000
Ge       7.15987808      12.30798663       9.93032768       0.32428160       0.29179861      -0.00791456       0.00000000
Ge      11.51383476       4.31234952       9.42155483      -0.18118197      -0.57264198       0.55729550      -0.00000000
Ge       9.15007916       9.12614441       1.29798352      -0.10376279      -0.58701454       0.46620181       0.00000000
Se      11.42658977       0.34455665       6.98089249      -0.29361491       0.08021458       0.43311723      -0.00000000
Se       3.04511207       4.51809294       7.01424926      -0.54999468      -0.78796943       0.29164212      -0.00000000
Se       2.59106464       8.34614938       7.02912608      -0.08150559       0.08301180       0.28700425      -0.00000000
Se       6.74929146      -0.16262303       7.42623067       0.21037316       0.22646316      -0.55329763      -0.00000000
Se       7.02441180       4.17007397       7.10303198      -0.06792749       0.36232949       0.07809436      -0.00000000
Se       7.10380567       8.72082485       7.10238489       0.34836774      -0.31748881      -0.08057618      -0.00000000
Se      11.01467225       4.15567993       6.97379768      -0.33009786      -0.05153590      -0.15029174      -0.00000000
Se       8.96862687       0.32653793       3.99533392      -0.21099436      -0.46797494       0.24657235      -0.00000000
Se       0.66342271       0.29812364       3.80216157      -0.12838553      -0.32096911       0.01369507      -0.00000000
Se       0.90319454       4.20000759       3.93595859      -0.09119762       0.09159854       0.84394416      -0.00000000
Se       0.63361049       8.72784471       3.93111559      -0.19969943      -0.04235737       0.03138628      -0.00000000
Se       4.82562233       0.10371562       3.90607375       0.39243369       0.14269341       0.39011349      -0.00000000
Se       4.93283692       4.35217902       3.99232490      -0.52128869       0.45647047      -0.49317986      -0.00000000
Se       4.91423237       8.49232860       4.06716243      -0.07714026       0.07794576       0.15817933      -0.00000000
Se       2.93357242       0.22046298       7.17323611      -0.17987499      -0.36076938      -0.06897837      -0.00000000
Se      11.01991472       8.46092434       7.09370861      -0.05522119       0.19415299       0.17010349      -0.00000000
Se      11.08878370      10.79838087       1.46246870      -0.14524732       0.09790860      -0.48952027      -0.00000000
Se       2.83329135       2.16073397       1.57784559       0.03988193      -0.00905484      -0.24643926      -0.00000000
Se      11.07748183       2.25125619       1.67846598      -0.21576794       0.00810399      -0.73903139      -0.00000000
Se       8.94512605       4.35135597       3.81801560       0.49611688      -0.39448544      -0.32820475      -0.00000000
Se       0.93514737       2.46979144       9.66473994       0.03952948      -0.15326413      -0.49327458      -0.00000000
Se       0.54397668       6.20694172       9.14985788       0.18286599       0.88098565       0.64621908      -0.00000000
Se       0.58567454      10.47714532       9.57571734       0.32913899       0.12053701      -0.06435481      -0.00000000
Se       4.96567796       2.12503084       9.68337828       0.51140079      -0.22933751      -0.41051041      -0.00000000
Se       5.12865805       6.51992932       9.50845075       0.00354754       0.13546869      -0.10438607      -0.00000000
Se       4.58024915      10.33747292       9.25230189       0.77780548       0.41489847       0.31818738      -0.00000000
Se       8.82565707       2.12475829       9.54489397       0.41377240      -0.66577250       1.00906385      -0.00000000
Se       9.15736742       6.31557982       9.30526488      -0.40939267       0.06366546       0.19722076      -0.00000000
Se       9.19888170      10.71378873       9.55308248       0.11291424      -0.02952875      -0.12710284      -0.00000000
Se       2.74538156       6.77147058       1.50000117       0.09451862      -0.27688239       0.50626510      -0.00000000
Se       2.79198126      10.64501656       1.57442467       0.07816778       0.23534259       0.16756339      -0.00000000
Se       6.72476318       2.14000485       1.82377851       0.14246057       0.09222015      -0.50948604      -0.00000000
Se       7.06753296       6.37847149       1.53727684      -0.12899007       0.11720637       0.48261633      -0.00000000
Se       6.96353304      10.53796459       1.57321698       0.23770411       0.29274892       0.00009729      -0.00000000
Se      11.35717621       6.43987394       1.75755062      -0.29761271      -0.25781770      -1.31879052      -0.00000000
Se       9.11282453       8.62315295       4.02396981      -0.12076487      -0.31527435      -0.68124065      -0.00000000
