72
Lattice="12.469199316629274 4.8236835673e-06 -1.5885195274e-06 4.8329247785e-06 12.49308924056721 2.2484840447e-06 -1.8139262229e-06 2.5626284671e-06 11.061042397355362" Properties=species:S:1:pos:R:3:forces:R:3:magmoms:R:1 energy=-300.72528236 stress="-0.00554916486395905 0.0014051383791107183 -4.3323344691761474e-05 0.0014051383791107183 -0.002773635204950807 -0.0006499029922681544 -4.3323344691761474e-05 -0.0006499029922681544 -0.010293189568429385" dipole="_JSON [[0.0, 0.0, 0.0]]" magmom=0.0016104 free_energy=-300.72528236 pbc="T T T"
Ge       1.11316427       0.29517745       1.21978987       0.26614243       0.01223663       0.06289388      -0.00000000
Ge       3.21415309      10.66816512       4.16189809       0.02755098      -0.25652991      -0.42391048       0.00000000
Ge       7.28586604       2.33627051       3.99817672      -0.51919337       0.01108671       0.30490634       0.00000000
Ge       7.60292584       6.20620144       3.89239104      -0.58423824       0.48432106       0.58007211       0.00000000
Ge       7.04427422      10.70232561       4.01846666      -0.29520811       0.29640730      -0.42948235       0.00000000
Ge      11.44507646       2.40542723       3.98854879       0.42944662       0.04121646      -0.33291976       0.00000000
Ge      11.40721594       6.96752889       4.10209865      -0.18836314      -0.31877275      -0.14395731      -0.00000000
Ge      11.33747854      10.95381785       4.11117871      -0.06330382      -0.07188406      -0.32720992       0.00000000
Ge       0.95619216       1.89185116       6.91825365      -0.06411218      -0.04170818       0.30242701      -0.00000000
Ge       1.09435775       6.41046666       6.95852201      -0.24784059      -0.38332218      -0.07795038      -0.00000000
Ge       0.85816819      10.21109790       6.87744847      -0.42794955      -0.05333185       0.38889588       0.00000000
Ge       4.90814270       1.91108129       7.10029838      -0.26868454       0.08842288      -0.71243303       0.00000000
Ge       5.13692707       5.85464101       6.95525829      -0.80225428       1.05159182       0.10833217       0.00000000
Ge       5.25510653      10.49954374       7.06641536      -0.39173054      -0.09085890      -0.27230893       0.00000000
Ge       9.35531462       2.10259049       7.09320401       0.58089889       0.02280320      -1.55909471       0.00000000
Ge       9.20996246       5.93323425       7.13037235       0.22163902       0.42993081      -0.21288070       0.00000000
Ge       3.24900713       6.43345739       4.22451173      -0.09673569      -0.10383474      -0.31298846       0.00000000
Ge       2.89470503       2.57585289       3.98753019      -0.15454963      -0.16107672       0.14626520       0.00000000
Ge       9.38490856      10.31374353       6.93682004      -0.05932731      -0.30378486      -0.06566533       0.00000000
Ge      11.07310502       8.12123856       9.73604090       0.31260069      -0.42006094      -0.42845267      -0.00000000
Ge      11.20473154      12.40746130       9.70052129       0.26160262      -0.07431538      -0.27063529      -0.00000000
Ge       0.85754259       4.71281092       1.41126119      -0.21931506       0.18735774      -0.25494800      -0.00000000
Ge       0.92706082       8.81047534       1.43685001      -0.03874283      -0.31282229      -0.00530308      -0.00000000
Ge       4.96647249       0.31535213       1.34757398      -0.14361438       0.24992924       0.02402856       0.00000000
Ge       5.33257730       4.38830711       1.42212838      -0.31440802       0.22539971      -0.25520335      -0.00000000
Ge       9.11362350       0.30403560       1.57852678       0.29249886       0.04033084       0.07700709       0.00000000
Ge       9.50367022       4.37293482       1.24448025       0.13895666       0.25343476       0.03511347       0.00000000
Ge       5.17565445       8.50237045       1.48330173      -0.00339461       0.07477082      -0.18506615       0.00000000
Ge       3.13047316       3.90275317       9.66351473      -1.03153230       0.84002005       0.26363469      -0.00000000
Ge       3.01100629       8.58381734       9.60113680       0.10559514      -0.38622177      -0.43997760      -0.00000000
Ge       3.03756587      12.32948699       9.64775768      -0.78576649      -0.05107090       0.19063083       0.00000000
Ge       6.94890414       3.95804237       9.64367142       0.37851949      -0.03331533      -0.36862919       0.00000000
Ge       6.98248246       8.02692559       9.58856941       0.27741814       0.04677835       0.11997927       0.00000000
Ge       7.39026078      12.54043933       9.63047593      -0.33239118       0.20122093       0.43918258       0.00000000
Ge      11.53040063       4.18967517       9.71709696       0.05213149      -0.17994518      -0.11855835      -0.00000000
Ge       9.07450712       8.95107115       1.27841405       0.13657115      -0.23647120      -0.13760399       0.00000000
Se      11.29060946       0.18807158       7.12151158      -0.18699367       0.41289964       0.04869685      -0.00000000
Se       2.87617851       4.46158351       7.15666872       0.26375055      -0.30442925      -0.18865648      -0.00000000
Se       2.67677058       8.41586134       6.93325394       0.41495330       0.22217085       0.80466617      -0.00000000
Se       6.67690254       0.12272475       7.22401603       0.70122161      -0.12922238      -0.55248972      -0.00000000
Se       7.08430937       4.36978249       7.02781842       0.08289591      -0.92785078       0.54225659      -0.00000000
Se       7.07088243       8.78368904       7.12329312       0.45596462      -0.62489318      -0.05745442      -0.00000000
Se      11.11782664       4.20123500       7.21915497      -0.33954157      -0.33407770      -0.30702909      -0.00000000
Se       8.71679837       0.18664288       4.12763816       0.70399475       0.00414195      -0.31251997      -0.00000000
Se       0.65738877       0.29199955       3.72140455       0.05078920      -0.04590588       0.30250870      -0.00000000
Se       0.89597171       4.33469577       3.87442678      -0.42895523      -0.49497358       0.34577527      -0.00000000
Se       0.55019354       8.92708842       3.96751262       0.13739359      -0.06351459      -0.05750867      -0.00000000
Se       4.92246433       0.08808537       3.85256687       0.21070112      -0.36244698       0.35296608      -0.00000000
Se       4.86030184       4.23295604       3.89332269      -0.01109911       0.66322977       0.23597684      -0.00000000
Se       4.86392073       8.43164707       3.96027169       0.09631198       0.40091105       0.18999887      -0.00000000
Se       2.91200314       0.11842809       7.17084111      -0.26252921       0.25736947      -0.35455881      -0.00000000
Se      11.18946845       8.33372340       7.05042288      -0.27450541       0.68985658       0.37301111      -0.00000000
Se      10.89273143      10.74774601       1.53055606       0.07417714       0.21863692       0.33430914      -0.00000000
Se       2.98145500       2.18106743       1.48561209      -0.31655243      -0.32785215      -0.11192726      -0.00000000
Se      11.06090554       2.32818719       1.40900962       0.04491344      -0.52621182       0.50116019      -0.00000000
Se       9.10156985       4.13875174       3.79319744       0.34721263       0.23185775      -0.02191318      -0.00000000
Se       0.88975705       2.33884058       9.46399938       0.09990830      -0.06245028      -0.16497787      -0.00000000
Se       0.52915715       6.24369445       9.45008872       0.29479791       0.69869338       0.24857100      -0.00000000
Se       0.68799462      10.66422634       9.48168136       0.37953361      -0.21529116      -0.16185025      -0.00000000
Se       4.93193282       2.23425789       9.55845960       0.44957394      -0.46014744       0.25786751      -0.00000000
Se       4.85553237       6.48897104       9.55361076       0.28619190       0.04519301      -0.46596613      -0.00000000
Se       4.77314889      10.50146158       9.55557469       0.23872518      -0.34594001       0.06480406      -0.00000000
Se       8.98906289       2.09359854       9.41290532      -0.37449156       0.34386476       1.56257610      -0.00000000
Se       9.14009548       6.27886233       9.62588370      -0.58489634       0.36735521      -0.20924215      -0.00000000
Se       9.10419618      10.72910850       9.45299567       0.55965223      -0.27626228      -0.08837397      -0.00000000
Se       2.51862358       6.62064183       1.72183157       0.52539356       0.26004369       0.03139385      -0.00000000
Se       2.80153222      10.53231114       1.52027709       0.02917993       0.40239021       0.36103034      -0.00000000
Se       6.81296394       2.19708577       1.48970030       0.30579109       0.15227571      -0.15368466      -0.00000000
Se       6.92950881       6.51063863       1.49685377       0.02809554      -0.49267922      -0.19011655      -0.00000000
Se       7.00847404      10.58941717       1.38385756      -0.19466757      -0.35844914       0.67107831      -0.00000000
Se      11.26138167       6.43903069       1.50334840      -0.06794561      -0.55167409       0.17505404      -0.00000000
Se       9.17565026       8.25276125       3.75424152      -0.18786162       0.45544979       0.28637813      -0.00000000
72
Lattice="12.467318581302706 4.8229560088e-06 -1.5882799302e-06 4.8323469293e-06 12.491595503086797 2.2482152044e-06 -1.8129067341e-06 2.5611881819e-06 11.05482571172903" Properties=species:S:1:pos:R:3:forces:R:3:magmoms:R:1 energy=-300.72377976 stress="0.001429599402627858 0.0010434307293569517 0.001882087387153565 0.0010434307293569517 8.856696456421044e-05 0.0002097663676007124 0.001882087387153565 0.0002097663676007124 -0.0048632802082141085" dipole="_JSON [[0.0, 0.0, 0.0]]" magmom=0.0017308 free_energy=-300.72377976 pbc="T T T"
Ge       1.16854876       0.23093747       1.33711809       0.21797245       0.17528475      -0.16185588       0.00000000
Ge       3.23663685      10.53628296       4.02296584       0.17939032       0.15014835       0.26300571       0.00000000
Ge       7.34296584       2.30665103       4.17291831       0.21195830       0.24591856       0.19794946      -0.00000000
Ge       7.38974539       6.58491560       3.99669113       0.21422023      -0.21881587       0.04806088      -0.00000000
Ge       6.97864581      10.63643948       4.09004753       0.16491140       0.45824236      -0.13273414      -0.00000000
Ge      11.59453318       2.17193374       4.02502632      -0.41923735      -0.18503074       0.01723028       0.00000000
Ge      11.28556037       6.95316309       4.06020089      -0.41266757       0.04715534       0.22812392       0.00000000
Ge      11.37007432      10.88751932       4.12047492       0.20813372      -0.03498765      -0.25272057       0.00000000
Ge       0.87805324       1.86872795       6.66677953       0.07484714      -0.29739346       0.51481119       0.00000000
Ge       0.97136406       6.19720213       6.99936591       0.05339868       0.41174190       0.12457243       0.00000000
Ge       0.69850150      10.11624069       6.88998805       0.46386507       0.18755950       0.08844289       0.00000000
Ge       4.84785138       1.80386231       6.82681568       0.14576623      -0.25997781       0.61133848      -0.00000000
Ge       4.94412982       6.35142867       6.89302047       0.39029568      -0.52168254       0.55423981       0.00000000
Ge       5.12101580      10.34153905       7.08408535       0.31103945       0.19625529      -0.59076983       0.00000000
Ge       9.56120522       2.07467234       6.96491347      -0.64289616      -0.23551942       0.35115262      -0.00000000
Ge       9.06488704       6.02078573       6.89427428      -0.25350656      -0.36160093       0.17916682       0.00000000
Ge       3.06207246       6.57453851       4.17400089       0.21210041       0.13899478      -0.20407033       0.00000000
Ge       2.92216286       2.49781081       4.26982746       0.05335665       0.47983502      -0.83696231       0.00000000
Ge       9.23775023      10.45700087       6.73423997      -0.19049432      -0.24681139       0.80661077      -0.00000000
Ge      11.15433253       8.02046954       9.58320559      -0.30825957       0.31276235       0.30782686       0.00000000
Ge      11.54663186      12.35267117       9.76432299      -0.33893059      -0.23846387       0.10642540       0.00000000
Ge       0.70433989       4.82737529       1.34968763       0.45674915      -0.16385972       0.22199284       0.00000000
Ge       1.02812666       8.66277567       1.36676419       0.03720816       0.07296665      -0.02454850       0.00000000
Ge       4.95484695       0.41580206       1.37499914       0.15094348       0.38194861       0.51009559      -0.00000000
Ge       5.20493470       4.40560409       1.52911029      -0.21178092      -0.25598416      -0.60499796      -0.00000000
Ge       9.10409473       0.25387198       1.63641773      -0.25543706       0.21856643       0.06675819      -0.00000000
Ge       9.53819878       4.39001217       1.40210543      -0.38434561      -0.38640591      -0.05631886      -0.00000000
Ge       5.15845133       8.36567294       1.57537306       0.38816263       0.04227721       0.05782552       0.00000000
Ge       2.77265910       4.21806818       9.53570955       0.58924527      -0.49059601       0.10750616       0.00000000
Ge       3.24052006       8.34873662       9.61157969      -0.23029853      -0.16810282      -0.28412422       0.00000000
Ge       2.65125721      12.09659756       9.63656531       0.35248407       0.40122036      -0.05372690       0.00000000
Ge       7.20395764       3.90972094       9.50817012      -0.66953922       0.17167776      -0.03522557      -0.00000000
Ge       7.24822669       8.34462921       9.59019572      -0.01534946      -0.19373795      -0.41312794      -0.00000000
Ge       7.19282184      12.41075955       9.56484460       0.38603703       0.22324272      -0.30872497      -0.00000000
Ge      11.55542782       4.03743396       9.65869061      -0.28113710       0.30432407      -0.36436873       0.00000000
Ge       9.19494168       9.11622531       1.20376877      -0.39865278      -0.41698640       0.25095281       0.00000000
Se      11.34557133       0.20145707       7.24657488      -0.04045383       0.01663229      -0.45270591      -0.00000000
Se       2.85331331       4.49336409       7.03041542       0.19880578       0.01596544      -0.04785073      -0.00000000
Se       2.78853533       8.38705815       6.98983360      -0.31321431      -0.01927466       0.29089861      -0.00000000
Se       6.92358350       0.08497222       6.97197760      -0.52284416      -0.05183699       0.68660820      -0.00000000
Se       7.01189821       4.27386413       6.98423682       0.04984751       0.55658221       0.04478071      -0.00000000
Se       7.15341640       8.57759450       6.99221686      -0.12472790       0.27298253       0.48887328      -0.00000000
Se      11.00778514       4.15875314       7.06920394       0.36918387       0.57249496       0.54411071      -0.00000000
Se       8.90935113       0.10768526       4.19203636      -0.09594948       0.30430959      -0.42367711      -0.00000000
Se       0.88447125       0.18944702       3.83311511      -0.36790652      -0.26583957       0.34407044      -0.00000000
Se       0.76171648       4.05829759       3.89609336       0.37467670       0.60328579      -0.23792276      -0.00000000
Se       0.60436076       8.81566859       3.87693065      -0.11915283      -0.12756431       0.06529365      -0.00000000
Se       5.02058642      -0.03258226       4.05490001      -0.31563077       0.04559329      -0.69795172      -0.00000000
Se       4.70825506       4.58988556       3.94556147      -0.18880638      -0.41642201       0.69383207      -0.00000000
Se       5.13631294       8.52636126       4.13722100      -0.90223971      -0.47441032      -0.34887860      -0.00000000
Se       2.67976630       0.02249122       7.11371857       0.37844309       0.37012065      -0.18514689      -0.00000000
Se      11.08646723       8.67301926       7.11087518      -0.07061924      -0.67450565      -0.37614490      -0.00000000
Se      10.90428226      10.91469247       1.55757835       0.57308923      -0.14813738       0.21950627      -0.00000000
Se       2.94235008       2.13342973       1.58985563      -0.01513508      -0.21746348       0.37182118      -0.00000000
Se      10.98121101       2.02131077       1.55926862       0.29162027       0.59861488      -0.00181974      -0.00000000
Se       9.14658176       4.47785993       3.87589022      -0.29460407      -0.43808214       0.29010295      -0.00000000
Se       0.83836980       2.29861706       9.23457396       0.34988837       0.13530130       0.08734632      -0.00000000
Se       0.76590900       6.49083566       9.59468187      -0.23905730      -0.60463686      -0.50432475      -0.00000000
Se       0.78945761      10.36735467       9.46676687      -0.33400302       0.08910173      -0.00264032      -0.00000000
Se       4.85847419       2.43644449       9.38794695      -0.02189325      -0.07110349      -0.21840982      -0.00000000
Se       5.06781690       6.55388194       9.48687872       0.01432878       0.02373398      -0.34456962      -0.00000000
Se       4.71724985      10.50758923       9.52076929       0.32181339       0.00582725       0.36387866      -0.00000000
Se       8.93816907       2.06293035       9.58146691       0.26447172      -0.20655255      -0.49463439      -0.00000000
Se       9.01199693       6.45198677       9.46569809       0.22720518      -0.17118078      -0.22550307      -0.00000000
Se       9.22485717      10.66594553       9.48804079      -0.20165442       0.35269795      -0.43625098      -0.00000000
Se       2.73041382       6.67435389       1.64185212      -0.40152001      -0.26476074      -0.06205156      -0.00000000
Se       2.81433621      10.59685981       1.50880606       0.16364822      -0.12260907      -0.10521312      -0.00000000
Se       6.87741700       2.36755731       1.70160881      -0.27011158      -0.15219423      -0.27723175      -0.00000000
Se       6.92060341       6.25629706       1.51231173       0.21922530       0.70391609       0.02623255      -0.00000000
Se       6.90700181      10.40997564       1.54046896       0.13828674       0.11368094      -0.13886062      -0.00000000
Se      11.16596822       6.39004424       1.54963429       0.24137097       0.28517198       0.01914731      -0.00000000
Se       9.07948146       8.62260882       3.84203730       0.41406601      -0.58360397      -0.24452645      -0.00000000
72
Lattice="12.472521256339366 4.8249686527e-06 -1.5889427275e-06 4.8335267925e-06 12.49464544428393 2.2487641275e-06 -1.815562562e-06 2.564940209e-06 11.07102054094014" Properties=species:S:1:pos:R:3:forces:R:3:magmoms:R:1 energy=-300.67390003 stress="-0.002827923383214556 0.002431606671463421 -0.00040776174206923 0.002431606671463421 -0.0017369196091567387 -0.00048818022298281684 -0.00040776174206923 -0.00048818022298281684 -0.009745368723582863" dipole="_JSON [[0.0, 0.0, 0.0]]" magmom=0.0018564 free_energy=-300.67390003 pbc="T T T"
Ge       0.94611693       0.07175390       1.63875347       0.56945908       0.07988947      -0.30834292       0.00000000
Ge       3.22133786      10.67317208       4.06434847      -0.04732600      -0.32071682       0.38611226       0.00000000
Ge       7.27130330       2.47075192       4.15045868      -0.40976024      -0.47786336      -0.48580664      -0.00000000
Ge       7.07747017       6.55741697       4.18441483       0.41707049       0.05631971       0.36696332       0.00000000
Ge       7.16023039      11.06835911       4.14756189       0.23399773      -0.02030569       0.11414677      -0.00000000
Ge      11.62066144       2.15347837       4.09150177      -0.15886313      -0.02075481       0.21702383       0.00000000
Ge      11.10700070       6.61098466       4.11911882      -0.02899010       0.31345329       0.16940550       0.00000000
Ge      11.39588990      10.55120177       4.14028583      -0.12954948       0.36715061       0.17656338      -0.00000000
Ge       0.93250974       2.11149697       7.03615214      -0.04771357      -0.55951675      -0.70345409       0.00000000
Ge       1.12088088       6.34810249       6.88861339       0.02932120      -0.06687450       0.19212373       0.00000000
Ge       0.78142405      10.20221152       7.12609334       0.02262380       0.02371220      -0.41195914       0.00000000
Ge       5.17823593       1.70254973       6.78201105      -0.14556290       0.08765572       0.26645669      -0.00000000
Ge       4.91399435       6.00932284       6.77596510       0.37164792       0.28421946       0.51763045       0.00000000
Ge       5.33840539      10.52578146       6.79860208       0.02399057       0.00627700       0.34904662      -0.00000000
Ge       9.45552849       2.26002653       6.90976539       0.25555141      -0.17453787      -1.04532558      -0.00000000
Ge       9.25257591       6.15876542       6.95939443      -0.03685280      -0.09253930       0.02550460       0.00000000
Ge       2.88262421       6.86884128       3.95307620       0.63715975      -0.26057052       0.45419484       0.00000000
Ge       3.06539000       2.54114403       4.31161644      -0.39591082       0.07643111      -0.53613893      -0.00000000
Ge       9.17808604      10.22423411       6.70566103      -0.40482282      -0.10050626       0.50739825      -0.00000000
Ge      11.19371764       7.93293341       9.67922430      -0.13899343       0.41495638       0.65199040       0.00000000
Ge      11.29352433      12.40873038       9.50186663      -0.27993009      -0.20436241       0.05554777       0.00000000
Ge       0.88405188       4.66274411       1.43301717      -0.01958944       0.13811970       0.47442272       0.00000000
Ge       0.95733366       8.62318572       1.41356433      -0.12292676       0.09117836       0.13381393       0.00000000
Ge       4.86494139       0.50311682       1.35521082       0.47915953       0.47896303       0.23130384       0.00000000
Ge       5.13370328       4.65503180       1.39659417       0.00773186      -0.56441656      -0.51691777       0.00000000
Ge       9.62835380       0.25848761       1.07136266      -0.57007254       0.50058599       0.31276257       0.00000000
Ge       9.52187366       4.32517438       1.62993450      -0.91488856      -0.35953936      -0.49567453       0.00000000
Ge       5.47991166       8.50703393       1.49873975      -0.73283726       0.64913919      -0.01649002       0.00000000
Ge       2.94573377       3.94460083       9.73790108       0.01988465      -0.22746296      -0.32888919       0.00000000
Ge       3.36489782       8.34793891       9.58126721      -0.49900804       0.53970078       0.26908670       0.00000000
Ge       2.91941515      12.27024621       9.40679894      -0.10951948       0.01186988       0.10808953       0.00000000
Ge       6.97179475       3.92947648       9.46686148       0.06980722      -0.07665600       0.27961681       0.00000000
Ge       7.20646969       8.22171110       9.61305635       0.01884770      -0.00987248      -0.04627045       0.00000000
Ge       7.51934539      12.48655229       9.71001433      -0.45974296       0.42981068      -0.18210674       0.00000000
Ge      11.49342155       4.32474286       9.55915666      -0.19378326      -0.29939234      -0.65312286       0.00000000
Ge       9.21391823       8.81512203       1.50926939      -0.30202710       0.02981580       0.42184857       0.00000000
Se      11.27812164       0.30639329       7.01027172      -0.14055497       0.18778724       0.01038787      -0.00000000
Se       2.92021738       4.43193286       7.13185618      -0.24972526      -0.10251985       0.32157310      -0.00000000
Se       2.73002702       8.44326775       7.11168314      -0.07212319      -0.05177153      -0.15636954      -0.00000000
Se       7.13162525       0.01558855       7.05646156      -0.54406596       0.22069833       0.28221581      -0.00000000
Se       6.85739130       4.36570986       7.01445054       0.05397631      -0.27037807      -0.27520131      -0.00000000
Se       6.96480006       8.54446121       7.11074011       0.52543180       0.15898096      -0.07848168      -0.00000000
Se      11.17383319       4.33827333       6.83589794      -0.22727608       0.00979700       0.98461096      -0.00000000
Se       8.88838999       0.43263967       3.62416879       0.06102077      -0.02757073       0.02003049      -0.00000000
Se       0.76222259      -0.01580333       4.12091816      -0.15774580       0.13453455      -0.06471260      -0.00000000
Se       0.87222328       4.09616499       4.03727781       0.09951609       0.19303835      -0.51806078      -0.00000000
Se       0.50538108       8.50831282       4.03764167       0.04514653       0.01653273      -0.27018897      -0.00000000
Se       4.99903558       0.00081288       3.98008523      -0.06747008       0.37931269      -0.49008037      -0.00000000
Se       4.55219643       4.51104730       3.80709577       0.32525437       0.53515697       0.69254881      -0.00000000
Se       5.04524485       8.59209192       4.04740199      -0.73677252      -0.28918897      -0.28691971      -0.00000000
Se       2.72844056       0.01469647       6.91370282       0.07568670       0.33550679       0.32771982      -0.00000000
Se      10.94267617       8.47752818       7.26546984       0.49198958      -0.41933741      -0.75594692      -0.00000000
Se      10.98861535      10.69093095       1.60015505       0.48765102      -0.28189528       0.03910074      -0.00000000
Se       2.84359553       2.03630521       1.71742364      -0.26759224      -0.13299988       0.11768036      -0.00000000
Se      11.19566477       2.33619076       1.59285507       0.31256390      -0.39283208      -0.13527587      -0.00000000
Se       8.83751837       4.37640008       4.05620012       0.53878047       0.45865112       0.17810062      -0.00000000
Se       0.67328459       2.24714183       9.43645994       0.54610277       0.39488696       0.87623377      -0.00000000
Se       0.69982955       6.27807950       9.48351950       0.09747520       0.09086239      -0.26588394      -0.00000000
Se       0.46397223      10.45786025       9.55103503       0.63096071       0.24729469       0.37660402      -0.00000000
Se       4.83557773       2.19435438       9.41803498      -0.04862131      -0.18056824      -0.17454332      -0.00000000
Se       5.11442733       6.60818363       9.54302603       0.12813141      -0.61427416      -0.55625780      -0.00000000
Se       4.82809281      10.55063522       9.33774392       0.16606914      -0.02458434       0.01186097      -0.00000000
Se       9.01548527       2.23051292       9.26866139      -0.26719310       0.11352021       1.19286299      -0.00000000
Se       9.07973943       6.31465698       9.49699799      -0.27142766      -0.15119913       0.00304396      -0.00000000
Se       9.12642784      10.65826259       9.42193433       0.50403038      -0.17017634      -0.32507572      -0.00000000
Se       2.67227320       6.67903541       1.50243617      -0.14496512      -0.20398493      -0.24869842      -0.00000000
Se       2.72265935      10.48529109       1.61117003      -0.04112375       0.30668330      -0.42881417      -0.00000000
Se       6.76208577       2.55080154       1.54839632      -0.40268085      -0.24643264       0.20111126      -0.00000000
Se       6.92107864       6.50514357       1.70190420       0.72003108      -0.57133268      -0.34166426      -0.00000000
Se       7.18326859      10.44607065       1.72338186      -0.02766982      -0.03758278      -0.59256928      -0.00000000
Se      11.07588099       6.27554162       1.60798856       0.79696227       0.19427455       0.01345477      -0.00000000
Se       9.08683265       8.44697728       4.17012879       0.05264503      -0.55225021      -0.63494986      -0.00000000
72
Lattice="12.474369849080235 4.8256837769e-06 -1.5891782298e-06 4.834177252e-06 12.496326879286796 2.2490667491e-06 -1.8162176516e-06 2.5658656883e-06 11.07501517598256" Properties=species:S:1:pos:R:3:forces:R:3:magmoms:R:1 energy=-300.53006675 stress="-0.00319826546179496 -0.0013467366656009564 0.0004390995729601399 -0.0013467366656009564 -0.0035646769874523934 0.0010249804289242568 0.0004390995729601399 0.0010249804289242568 -0.00904607962807692" dipole="_JSON [[0.0, 0.0, 0.0]]" magmom=0.001747 free_energy=-300.53006675 pbc="T T T"
Ge       1.21191007       0.01392463       1.57088027      -0.58395132      -0.01744198      -0.06526947       0.00000000
Ge       3.28739260      10.68391827       4.06747380      -0.09739822       0.07201006      -0.25605343       0.00000000
Ge       7.23368308       2.42736216       4.10887302       0.12267575       0.24985841       0.25839424       0.00000000
Ge       7.16652033       6.71776518       4.14519894      -0.12298949      -0.72928850      -0.28832453      -0.00000000
Ge       7.24900392      11.07096730       4.14241035      -0.37330239      -0.17308904      -0.18526649       0.00000000
Ge      11.59430708       2.12109649       4.16174821      -0.04816231       0.09729530      -0.27773757      -0.00000000
Ge      11.19439676       6.69111474       4.12368526      -0.12420243      -0.05598727      -0.13058801      -0.00000000
Ge      11.39526026      10.58178198       4.25098519       0.10127336       0.35710508      -0.04720818       0.00000000
Ge       0.95114686       1.81107089       6.78658180      -0.19000847       0.14351765       0.58946653      -0.00000000
Ge       0.97903846       6.44782301       6.98941365       0.17274889      -0.32331809      -0.10501314      -0.00000000
Ge       0.73111966      10.08523877       6.98158574       0.23104085      -0.17505737       0.33766991       0.00000000
Ge       4.91633877       1.71355838       6.77873735      -0.15889613       0.50639561       0.03119812       0.00000000