72
Lattice="12.469199316629274 4.8236835673e-06 -1.5885195274e-06 4.8329247785e-06 12.49308924056721 2.2484840447e-06 -1.8139262229e-06 2.5626284671e-06 11.061042397355362" Properties=species:S:1:pos:R:3:forces:R:3:magmoms:R:1 energy=-300.72528236 stress="-0.00554916486395905 0.0014051383791107183 -4.3323344691761474e-05 0.0014051383791107183 -0.002773635204950807 -0.0006499029922681544 -4.3323344691761474e-05 -0.0006499029922681544 -0.010293189568429385" dipole="_JSON [[0.0, 0.0, 0.0]]" magmom=0.0016104 free_energy=-300.72528236 pbc="T T T"
Ge       1.11316427       0.29517745       1.21978987       0.26614243       0.01223663       0.06289388      -0.00000000
Ge       3.21415309      10.66816512       4.16189809       0.02755098      -0.25652991      -0.42391048       0.00000000
Ge       7.28586604       2.33627051       3.99817672      -0.51919337       0.01108671       0.30490634       0.00000000
Ge       7.60292584       6.20620144       3.89239104      -0.58423824       0.48432106       0.58007211       0.00000000
Ge       7.04427422      10.70232561       4.01846666      -0.29520811       0.29640730      -0.42948235       0.00000000
Ge      11.44507646       2.40542723       3.98854879       0.42944662       0.04121646      -0.33291976       0.00000000
Ge      11.40721594       6.96752889       4.10209865      -0.18836314      -0.31877275      -0.14395731      -0.00000000
Ge      11.33747854      10.95381785       4.11117871      -0.06330382      -0.07188406      -0.32720992       0.00000000
Ge       0.95619216       1.89185116       6.91825365      -0.06411218      -0.04170818       0.30242701      -0.00000000
Ge       1.09435775       6.41046666       6.95852201      -0.24784059      -0.38332218      -0.07795038      -0.00000000
Ge       0.85816819      10.21109790       6.87744847      -0.42794955      -0.05333185       0.38889588       0.00000000
Ge       4.90814270       1.91108129       7.10029838      -0.26868454       0.08842288      -0.71243303       0.00000000
Ge       5.13692707       5.85464101       6.95525829      -0.80225428       1.05159182       0.10833217       0.00000000
Ge       5.25510653      10.49954374       7.06641536      -0.39173054      -0.09085890      -0.27230893       0.00000000
Ge       9.35531462       2.10259049       7.09320401       0.58089889       0.02280320      -1.55909471       0.00000000
Ge       9.20996246       5.93323425       7.13037235       0.22163902       0.42993081      -0.21288070       0.00000000
Ge       3.24900713       6.43345739       4.22451173      -0.09673569      -0.10383474      -0.31298846       0.00000000
Ge       2.89470503       2.57585289       3.98753019      -0.15454963      -0.16107672       0.14626520       0.00000000
Ge       9.38490856      10.31374353       6.93682004      -0.05932731      -0.30378486      -0.06566533       0.00000000
Ge      11.07310502       8.12123856       9.73604090       0.31260069      -0.42006094      -0.42845267      -0.00000000
Ge      11.20473154      12.40746130       9.70052129       0.26160262      -0.07431538      -0.27063529      -0.00000000
Ge       0.85754259       4.71281092       1.41126119      -0.21931506       0.18735774      -0.25494800      -0.00000000
Ge       0.92706082       8.81047534       1.43685001      -0.03874283      -0.31282229      -0.00530308      -0.00000000
Ge       4.96647249       0.31535213       1.34757398      -0.14361438       0.24992924       0.02402856       0.00000000
Ge       5.33257730       4.38830711       1.42212838      -0.31440802       0.22539971      -0.25520335      -0.00000000
Ge       9.11362350       0.30403560       1.57852678       0.29249886       0.04033084       0.07700709       0.00000000
Ge       9.50367022       4.37293482       1.24448025       0.13895666       0.25343476       0.03511347       0.00000000
Ge       5.17565445       8.50237045       1.48330173      -0.00339461       0.07477082      -0.18506615       0.00000000
Ge       3.13047316       3.90275317       9.66351473      -1.03153230       0.84002005       0.26363469      -0.00000000
Ge       3.01100629       8.58381734       9.60113680       0.10559514      -0.38622177      -0.43997760      -0.00000000
Ge       3.03756587      12.32948699       9.64775768      -0.78576649      -0.05107090       0.19063083       0.00000000
Ge       6.94890414       3.95804237       9.64367142       0.37851949      -0.03331533      -0.36862919       0.00000000
Ge       6.98248246       8.02692559       9.58856941       0.27741814       0.04677835       0.11997927       0.00000000
Ge       7.39026078      12.54043933       9.63047593      -0.33239118       0.20122093       0.43918258       0.00000000
Ge      11.53040063       4.18967517       9.71709696       0.05213149      -0.17994518      -0.11855835      -0.00000000
Ge       9.07450712       8.95107115       1.27841405       0.13657115      -0.23647120      -0.13760399       0.00000000
Se      11.29060946       0.18807158       7.12151158      -0.18699367       0.41289964       0.04869685      -0.00000000
Se       2.87617851       4.46158351       7.15666872       0.26375055      -0.30442925      -0.18865648      -0.00000000
Se       2.67677058       8.41586134       6.93325394       0.41495330       0.22217085       0.80466617      -0.00000000
Se       6.67690254       0.12272475       7.22401603       0.70122161      -0.12922238      -0.55248972      -0.00000000
Se       7.08430937       4.36978249       7.02781842       0.08289591      -0.92785078       0.54225659      -0.00000000
Se       7.07088243       8.78368904       7.12329312       0.45596462      -0.62489318      -0.05745442      -0.00000000
Se      11.11782664       4.20123500       7.21915497      -0.33954157      -0.33407770      -0.30702909      -0.00000000
Se       8.71679837       0.18664288       4.12763816       0.70399475       0.00414195      -0.31251997      -0.00000000
Se       0.65738877       0.29199955       3.72140455       0.05078920      -0.04590588       0.30250870      -0.00000000
Se       0.89597171       4.33469577       3.87442678      -0.42895523      -0.49497358       0.34577527      -0.00000000
Se       0.55019354       8.92708842       3.96751262       0.13739359      -0.06351459      -0.05750867      -0.00000000
Se       4.92246433       0.08808537       3.85256687       0.21070112      -0.36244698       0.35296608      -0.00000000
Se       4.86030184       4.23295604       3.89332269      -0.01109911       0.66322977       0.23597684      -0.00000000
Se       4.86392073       8.43164707       3.96027169       0.09631198       0.40091105       0.18999887      -0.00000000
Se       2.91200314       0.11842809       7.17084111      -0.26252921       0.25736947      -0.35455881      -0.00000000
Se      11.18946845       8.33372340       7.05042288      -0.27450541       0.68985658       0.37301111      -0.00000000
Se      10.89273143      10.74774601       1.53055606       0.07417714       0.21863692       0.33430914      -0.00000000
Se       2.98145500       2.18106743       1.48561209      -0.31655243      -0.32785215      -0.11192726      -0.00000000
Se      11.06090554       2.32818719       1.40900962       0.04491344      -0.52621182       0.50116019      -0.00000000
Se       9.10156985       4.13875174       3.79319744       0.34721263       0.23185775      -0.02191318      -0.00000000
Se       0.88975705       2.33884058       9.46399938       0.09990830      -0.06245028      -0.16497787      -0.00000000
Se       0.52915715       6.24369445       9.45008872       0.29479791       0.69869338       0.24857100      -0.00000000
Se       0.68799462      10.66422634       9.48168136       0.37953361      -0.21529116      -0.16185025      -0.00000000
Se       4.93193282       2.23425789       9.55845960       0.44957394      -0.46014744       0.25786751      -0.00000000
Se       4.85553237       6.48897104       9.55361076       0.28619190       0.04519301      -0.46596613      -0.00000000
Se       4.77314889      10.50146158       9.55557469       0.23872518      -0.34594001       0.06480406      -0.00000000
Se       8.98906289       2.09359854       9.41290532      -0.37449156       0.34386476       1.56257610      -0.00000000
Se       9.14009548       6.27886233       9.62588370      -0.58489634       0.36735521      -0.20924215      -0.00000000
Se       9.10419618      10.72910850       9.45299567       0.55965223      -0.27626228      -0.08837397      -0.00000000
Se       2.51862358       6.62064183       1.72183157       0.52539356       0.26004369       0.03139385      -0.00000000
Se       2.80153222      10.53231114       1.52027709       0.02917993       0.40239021       0.36103034      -0.00000000
Se       6.81296394       2.19708577       1.48970030       0.30579109       0.15227571      -0.15368466      -0.00000000
Se       6.92950881       6.51063863       1.49685377       0.02809554      -0.49267922      -0.19011655      -0.00000000
Se       7.00847404      10.58941717       1.38385756      -0.19466757      -0.35844914       0.67107831      -0.00000000
Se      11.26138167       6.43903069       1.50334840      -0.06794561      -0.55167409       0.17505404      -0.00000000
Se       9.17565026       8.25276125       3.75424152      -0.18786162       0.45544979       0.28637813      -0.00000000
