 running  128 mpi-ranks, with    1 threads/rank, on    2 nodes
 distrk:  each k-point on   64 cores,    2 groups
 distr:  one band on    4 cores,   16 groups
 vasp.6.4.2 20Jul23 (build Oct 12 2023 10:31:02) complex                         
 POSCAR found type information on POSCAR GeSe
 POSCAR found :  2 types and       8 ions
 Reading from existing POTCAR
 scaLAPACK will be used
 Reading from existing POTCAR
 LDA part: xc-table for Pade appr. of Perdew
 POSCAR, INCAR and KPOINTS ok, starting setup
 FFT: planning ... GRIDC
 FFT: planning ... GRID_SOFT
 FFT: planning ... GRID
 WAVECAR not read
 entering main loop
       N       E                     dE             d eps       ncg     rms          rms(c)
DAV:   1     0.126795756723E+03    0.12680E+03   -0.13239E+04  2560   0.789E+02
DAV:   2    -0.257937966584E+02   -0.15259E+03   -0.14824E+03  3728   0.143E+02
DAV:   3    -0.332215964380E+02   -0.74278E+01   -0.74063E+01  3200   0.359E+01
DAV:   4    -0.332635573543E+02   -0.41961E-01   -0.41954E-01  3312   0.306E+00
DAV:   5    -0.332637873474E+02   -0.22999E-03   -0.22999E-03  3136   0.220E-01    0.712E+00
DAV:   6    -0.329778594091E+02    0.28593E+00   -0.56286E-01  3248   0.253E+00    0.444E+00
DAV:   7    -0.329705063409E+02    0.73531E-02   -0.21564E-01  3296   0.164E+00    0.102E+00
DAV:   8    -0.329664664684E+02    0.40399E-02   -0.29251E-02  3184   0.624E-01    0.156E-01
DAV:   9    -0.329666550266E+02   -0.18856E-03   -0.26985E-03  3168   0.227E-01    0.501E-02
DAV:  10    -0.329666806711E+02   -0.25645E-04   -0.10380E-04  3216   0.452E-02    0.212E-02
DAV:  11    -0.329666965424E+02   -0.15871E-04   -0.25218E-05  2976   0.233E-02    0.762E-03
DAV:  12    -0.329666962659E+02    0.27657E-06   -0.25678E-06  2608   0.705E-03
   1 F= -.32966696E+02 E0= -.32966146E+02  d E =-.110096E-02
