 running  128 mpi-ranks, with    1 threads/rank, on    2 nodes
 distrk:  each k-point on   64 cores,    2 groups
 distr:  one band on    8 cores,    8 groups
 vasp.6.4.2 20Jul23 (build Oct 12 2023 10:31:02) complex                         
 POSCAR found type information on POSCAR GeSe
 POSCAR found :  2 types and      72 ions
 Reading from existing POTCAR
 -----------------------------------------------------------------------------
|                                                                             |
|           W    W    AA    RRRRR   N    N  II  N    N   GGGG   !!!           |
|           W    W   A  A   R    R  NN   N  II  NN   N  G    G  !!!           |
|           W    W  A    A  R    R  N N  N  II  N N  N  G       !!!           |
|           W WW W  AAAAAA  RRRRR   N  N N  II  N  N N  G  GGG   !            |
|           WW  WW  A    A  R   R   N   NN  II  N   NN  G    G                |
|           W    W  A    A  R    R  N    N  II  N    N   GGGG   !!!           |
|                                                                             |
|     You use a magnetic or noncollinear calculation, but did not specify     |
|     the initial magnetic moment with the MAGMOM tag. Note that a            |
|     default of 1 will be used for all atoms. This ferromagnetic setup       |
|     may break the symmetry of the crystal, in particular it may rule        |
|     out finding an antiferromagnetic solution. Thence, we recommend         |
|     setting the initial magnetic moment manually or verifying carefully     |
|     that this magnetic setup is desired.                                    |
|                                                                             |
 -----------------------------------------------------------------------------

 scaLAPACK will be used
 Reading from existing POTCAR
 -----------------------------------------------------------------------------
|                                                                             |
|               ----> ADVICE to this user running VASP <----                  |
|                                                                             |
|     You have a (more or less) 'large supercell' and for larger cells it     |
|     might be more efficient to use real-space projection operators.         |
|     Therefore, try LREAL= Auto in the INCAR file.                           |
|     Mind: For very accurate calculation, you might also keep the            |
|     reciprocal projection scheme (i.e. LREAL=.FALSE.).                      |
|                                                                             |
 -----------------------------------------------------------------------------

 LDA part: xc-table for Pade appr. of Perdew
 -----------------------------------------------------------------------------
|                                                                             |
|           W    W    AA    RRRRR   N    N  II  N    N   GGGG   !!!           |
|           W    W   A  A   R    R  NN   N  II  NN   N  G    G  !!!           |
|           W    W  A    A  R    R  N N  N  II  N N  N  G       !!!           |
|           W WW W  AAAAAA  RRRRR   N  N N  II  N  N N  G  GGG   !            |
|           WW  WW  A    A  R   R   N   NN  II  N   NN  G    G                |
|           W    W  A    A  R    R  N    N  II  N    N   GGGG   !!!           |
|                                                                             |
|     The number of bands has been changed from the values supplied in        |
|     the INCAR file. This is a result of running the parallel version.       |
|     The orbitals not found in the WAVECAR file will be initialized with     |
|     random numbers, which is usually adequate. For correlated               |
|     calculations, however, you should redo the groundstate calculation.     |
|     I found NBANDS = 220. Now, NBANDS = 224.                                |
|                                                                             |
 -----------------------------------------------------------------------------

 POSCAR, INCAR and KPOINTS ok, starting setup
 FFT: planning ... GRIDC
 FFT: planning ... GRID_SOFT
 FFT: planning ... GRID
 WAVECAR not read
 WARNING: random wavefunctions but no delay for mixing, default for NELMDL
 entering main loop
       N       E                     dE             d eps       ncg     rms          rms(c)
DAV:   1     0.181655116997E+04    0.18166E+04   -0.14169E+05  7168   0.135E+03
DAV:   2    -0.640083884295E+02   -0.18806E+04   -0.18063E+04  8504   0.205E+02
DAV:   3    -0.281687060623E+03   -0.21768E+03   -0.21139E+03  8624   0.691E+01
DAV:   4    -0.289625354249E+03   -0.79383E+01   -0.78486E+01  8696   0.131E+01
DAV:   5    -0.289928340296E+03   -0.30299E+00   -0.30222E+00  9080   0.215E+00    0.291E+01
DAV:   6    -0.289581913559E+03    0.34643E+00   -0.26825E+01  7928   0.760E+00    0.172E+01
DAV:   7    -0.296793754185E+03   -0.72118E+01   -0.87130E+00  8016   0.450E+00    0.909E+00
DAV:   8    -0.300020152976E+03   -0.32264E+01   -0.17084E+00  8192   0.221E+00    0.330E+00
DAV:   9    -0.300408467516E+03   -0.38831E+00   -0.42919E-01  9024   0.102E+00    0.149E+00
DAV:  10    -0.300516394031E+03   -0.10793E+00   -0.10217E-01  8120   0.476E-01    0.732E-01
DAV:  11    -0.300547276573E+03   -0.30883E-01   -0.34950E-02  8888   0.274E-01    0.285E-01
DAV:  12    -0.300550626139E+03   -0.33496E-02   -0.46305E-03  8560   0.119E-01    0.105E-01
DAV:  13    -0.300550738863E+03   -0.11272E-03   -0.53046E-04  9864   0.362E-02    0.431E-02
DAV:  14    -0.300550754844E+03   -0.15981E-04   -0.84929E-05  8208   0.183E-02    0.161E-02
DAV:  15    -0.300550758264E+03   -0.34199E-05   -0.13973E-05  8576   0.851E-03    0.740E-03
DAV:  16    -0.300550758996E+03   -0.73177E-06   -0.14395E-06  4840   0.260E-03
   1 F= -.30055076E+03 E0= -.30055076E+03  d E =-.184275E-13  mag=     0.0005
