 running   32 mpi-ranks, with    1 threads/rank, on    2 nodes
 distrk:  each k-point on   16 cores,    2 groups
 distr:  one band on    1 cores,   16 groups
 vasp.6.4.2 20Jul23 (build Oct 12 2023 10:31:02) complex                         
 POSCAR found type information on POSCAR GeSe
 POSCAR found :  2 types and       4 ions
 Reading from existing POTCAR
 -----------------------------------------------------------------------------
|                                                                             |
|           W    W    AA    RRRRR   N    N  II  N    N   GGGG   !!!           |
|           W    W   A  A   R    R  NN   N  II  NN   N  G    G  !!!           |
|           W    W  A    A  R    R  N N  N  II  N N  N  G       !!!           |
|           W WW W  AAAAAA  RRRRR   N  N N  II  N  N N  G  GGG   !            |
|           WW  WW  A    A  R   R   N   NN  II  N   NN  G    G                |
|           W    W  A    A  R    R  N    N  II  N    N   GGGG   !!!           |
|                                                                             |
|     You use a magnetic or noncollinear calculation, but did not specify     |
|     the initial magnetic moment with the MAGMOM tag. Note that a            |
|     default of 1 will be used for all atoms. This ferromagnetic setup       |
|     may break the symmetry of the crystal, in particular it may rule        |
|     out finding an antiferromagnetic solution. Thence, we recommend         |
|     setting the initial magnetic moment manually or verifying carefully     |
|     that this magnetic setup is desired.                                    |
|                                                                             |
 -----------------------------------------------------------------------------

 scaLAPACK will be used
 Reading from existing POTCAR
 LDA part: xc-table for Pade appr. of Perdew
 -----------------------------------------------------------------------------
|                                                                             |
|           W    W    AA    RRRRR   N    N  II  N    N   GGGG   !!!           |
|           W    W   A  A   R    R  NN   N  II  NN   N  G    G  !!!           |
|           W    W  A    A  R    R  N N  N  II  N N  N  G       !!!           |
|           W WW W  AAAAAA  RRRRR   N  N N  II  N  N N  G  GGG   !            |
|           WW  WW  A    A  R   R   N   NN  II  N   NN  G    G                |
|           W    W  A    A  R    R  N    N  II  N    N   GGGG   !!!           |
|                                                                             |
|     The number of bands has been changed from the values supplied in        |
|     the INCAR file. This is a result of running the parallel version.       |
|     The orbitals not found in the WAVECAR file will be initialized with     |
|     random numbers, which is usually adequate. For correlated               |
|     calculations, however, you should redo the groundstate calculation.     |
|     I found NBANDS = 220. Now, NBANDS = 224.                                |
|                                                                             |
 -----------------------------------------------------------------------------

 POSCAR, INCAR and KPOINTS ok, starting setup
 FFT: planning ... GRIDC
 FFT: planning ... GRID_SOFT
 FFT: planning ... GRID
 WAVECAR not read
 WARNING: random wavefunctions but no delay for mixing, default for NELMDL
 entering main loop
       N       E                     dE             d eps       ncg     rms          rms(c)
DAV:   1     0.969723785944E+02    0.96972E+02   -0.37181E+03 28672   0.585E+01
DAV:   2    -0.100880276134E+02   -0.10706E+03   -0.96809E+02 34352   0.209E+01
DAV:   3    -0.161952534965E+02   -0.61072E+01   -0.60330E+01 34480   0.498E+00
DAV:   4    -0.162380987805E+02   -0.42845E-01   -0.42836E-01 33648   0.389E-01
DAV:   5    -0.162383569339E+02   -0.25815E-03   -0.25815E-03 33200   0.314E-02    0.684E+00
DAV:   6    -0.119827231962E+02    0.42556E+01   -0.42046E+00 31968   0.103E+00    0.449E+00
DAV:   7    -0.113496237193E+02    0.63310E+00   -0.52343E-01 31776   0.407E-01    0.309E+00
DAV:   8    -0.118031819592E+02   -0.45356E+00   -0.14981E-01 33056   0.225E-01    0.209E+00
DAV:   9    -0.127302168086E+02   -0.92703E+00   -0.95540E-02 32288   0.182E-01    0.175E+00
DAV:  10    -0.144676878005E+02   -0.17375E+01   -0.41618E-01 31568   0.356E-01    0.125E+00
DAV:  11    -0.159880551191E+02   -0.15204E+01   -0.36721E-01 32384   0.320E-01    0.771E-01
DAV:  12    -0.163346676762E+02   -0.34661E+00   -0.53789E-02 32800   0.140E-01    0.538E-01
DAV:  13    -0.163187558643E+02    0.15912E-01   -0.24867E-02 31424   0.102E-01    0.338E-01
DAV:  14    -0.164324064524E+02   -0.11365E+00   -0.39387E-03 31504   0.486E-02    0.233E-01
DAV:  15    -0.165881678766E+02   -0.15576E+00   -0.12686E-03 31776   0.309E-02    0.171E-01
DAV:  16    -0.166995387272E+02   -0.11137E+00   -0.11901E-03 31968   0.243E-02    0.123E-01
DAV:  17    -0.167262759170E+02   -0.26737E-01   -0.37992E-04 32608   0.122E-02    0.925E-02
DAV:  18    -0.167404146972E+02   -0.14139E-01   -0.25242E-04 32416   0.994E-03    0.527E-02
DAV:  19    -0.167474709271E+02   -0.70562E-02   -0.92672E-05 32336   0.624E-03    0.315E-02
DAV:  20    -0.167539133419E+02   -0.64424E-02   -0.54094E-05 31696   0.548E-03    0.164E-02
DAV:  21    -0.167570283479E+02   -0.31150E-02   -0.28224E-05 30768   0.401E-03    0.903E-03
DAV:  22    -0.167584863182E+02   -0.14580E-02   -0.97261E-06 30416   0.263E-03    0.571E-03
DAV:  23    -0.167592469538E+02   -0.76064E-03   -0.63787E-06 30592   0.223E-03    0.364E-03
DAV:  24    -0.167596686877E+02   -0.42173E-03   -0.11987E-05 31312   0.272E-03    0.218E-03
DAV:  25    -0.167597942363E+02   -0.12555E-03   -0.13308E-05 29488   0.272E-03    0.123E-03
DAV:  26    -0.167598222685E+02   -0.28032E-04   -0.33330E-06 29536   0.147E-03    0.749E-04
DAV:  27    -0.167598434544E+02   -0.21186E-04   -0.66940E-07 30848   0.695E-04    0.449E-04
DAV:  28    -0.167598582369E+02   -0.14782E-04   -0.21995E-07 31248   0.413E-04    0.266E-04
DAV:  29    -0.167598664658E+02   -0.82289E-05   -0.68069E-08 32656   0.238E-04    0.159E-04
DAV:  30    -0.167598695368E+02   -0.30710E-05   -0.10214E-08 32640   0.971E-05    0.914E-05
DAV:  31    -0.167598712271E+02   -0.16904E-05   -0.88360E-10 31664   0.485E-05    0.493E-05
DAV:  32    -0.167598716261E+02   -0.39896E-06    0.19066E-09 31952   0.229E-05
   1 F= -.16759872E+02 E0= -.16759872E+02  d E =-.514595E-13  mag=     0.0000
 writing wavefunctions
