 running  256 mpi-ranks, with    1 threads/rank, on    7 nodes
 distrk:  each k-point on  128 cores,    2 groups
 distr:  one band on    4 cores,   32 groups
 vasp.6.4.1 05Apr23 (build Jun 14 2024 13:38:54) complex                         
 POSCAR found type information on POSCAR C S 
 POSCAR found :  2 types and     365 ions
 Reading from existing POTCAR
 scaLAPACK will be used
 Reading from existing POTCAR
 -----------------------------------------------------------------------------
|                                                                             |
|               ----> ADVICE to this user running VASP <----                  |
|                                                                             |
|     You have a (more or less) 'large supercell' and for larger cells it     |
|     might be more efficient to use real-space projection operators.         |
|     Therefore, try LREAL= Auto in the INCAR file.                           |
|     Mind: If you want to do very accurate calculations, keep the            |
|     reciprocal projection scheme (i.e. LREAL=.FALSE.).                      |
|                                                                             |
 -----------------------------------------------------------------------------

 LDA part: xc-table for Pade appr. of Perdew
 POSCAR, INCAR and KPOINTS ok, starting setup
 FFT: planning ... GRIDC
 FFT: planning ... GRID_SOFT
 FFT: planning ... GRID
 WAVECAR not read
 WARNING: random wavefunctions but no delay for mixing, default for NELMDL
 entering main loop
       N       E                     dE             d eps       ncg     rms          rms(c)
DAV:   1     0.130907129497E+05    0.13091E+05   -0.45124E+05  4544   0.932E+02
DAV:   2     0.626416485889E+02   -0.13028E+05   -0.12249E+05  5344   0.239E+02
DAV:   3    -0.335756479274E+04   -0.34202E+04   -0.33755E+04  4544   0.130E+02
DAV:   4    -0.353827990461E+04   -0.18072E+03   -0.17815E+03  4416   0.386E+01
DAV:   5    -0.354312891373E+04   -0.48490E+01   -0.48026E+01  4864   0.560E+00    0.743E+01
DAV:   6    -0.337370199973E+04    0.16943E+03   -0.16319E+02  4000   0.117E+01    0.391E+01
DAV:   7    -0.331186222186E+04    0.61840E+02   -0.19921E+02  4096   0.127E+01    0.705E+00
DAV:   8    -0.331135989479E+04    0.50233E+00   -0.77141E+00  4256   0.300E+00    0.179E+00
DAV:   9    -0.331105215872E+04    0.30774E+00   -0.12704E+00  4096   0.992E-01    0.889E-01
DAV:  10    -0.331105998817E+04   -0.78295E-02   -0.15332E-01  4864   0.387E-01    0.501E-01
DAV:  11    -0.331107897776E+04   -0.18990E-01   -0.43700E-02  3904   0.202E-01    0.287E-01
DAV:  12    -0.331111019647E+04   -0.31219E-01   -0.31671E-02  4000   0.148E-01    0.171E-01
DAV:  13    -0.331114168345E+04   -0.31487E-01   -0.10292E-02  3936   0.845E-02    0.101E-01
DAV:  14    -0.331117008843E+04   -0.28405E-01   -0.43811E-03  4000   0.564E-02    0.561E-02
DAV:  15    -0.331120760010E+04   -0.37512E-01   -0.39219E-03  3904   0.427E-02    0.377E-02
DAV:  16    -0.331121926756E+04   -0.11667E-01   -0.75105E-04  4128   0.236E-02    0.216E-02
DAV:  17    -0.331122850935E+04   -0.92418E-02   -0.64089E-04  3968   0.172E-02    0.109E-02
DAV:  18    -0.331123167509E+04   -0.31657E-02   -0.13863E-04  4352   0.820E-03    0.709E-03
DAV:  19    -0.331123333267E+04   -0.16576E-02   -0.40675E-05  3904   0.518E-03    0.439E-03
DAV:  20    -0.331123477050E+04   -0.14378E-02   -0.73553E-05  3776   0.441E-03    0.300E-03
DAV:  21    -0.331123505903E+04   -0.28852E-03   -0.72555E-06  3488   0.256E-03    0.141E-03
DAV:  22    -0.331123520395E+04   -0.14492E-03   -0.24402E-06  3200   0.169E-03    0.152E-03
DAV:  23    -0.331123523328E+04   -0.29334E-04    0.49413E-07  2592   0.128E-03    0.582E-04
DAV:  24    -0.331123527642E+04   -0.43139E-04    0.12335E-08  2496   0.914E-04    0.749E-04
DAV:  25    -0.331123528531E+04   -0.88881E-05    0.67107E-07  2560   0.690E-04    0.231E-04
DAV:  26    -0.331123530267E+04   -0.17355E-04    0.58508E-07  2368   0.525E-04    0.482E-04
DAV:  27    -0.331123530898E+04   -0.63141E-05    0.72040E-07  2432   0.439E-04    0.113E-04
DAV:  28    -0.331123531510E+04   -0.61208E-05    0.72436E-07  2272   0.219E-04    0.152E-04
DAV:  29    -0.331123531781E+04   -0.27107E-05    0.75213E-07  2304   0.136E-04    0.336E-05
DAV:  30    -0.331123531866E+04   -0.84419E-06    0.75484E-07  2240   0.803E-05
   1 F= -.33252960E+04 E0= -.33252960E+04  d E =-.494295E-47
 writing wavefunctions
 PROFILE, used timers:     332
