 running  128 mpi-ranks, with    1 threads/rank, on    2 nodes
 distrk:  each k-point on   64 cores,    2 groups
 distr:  one band on    4 cores,   16 groups
 vasp.6.4.2 20Jul23 (build Oct 12 2023 10:31:02) complex                         
 POSCAR found type information on POSCAR GeSe
 POSCAR found :  2 types and       8 ions
 Reading from existing POTCAR
 scaLAPACK will be used
 Reading from existing POTCAR
 LDA part: xc-table for Pade appr. of Perdew
 POSCAR, INCAR and KPOINTS ok, starting setup
 FFT: planning ... GRIDC
 FFT: planning ... GRID_SOFT
 FFT: planning ... GRID
 WAVECAR not read
 entering main loop
       N       E                     dE             d eps       ncg     rms          rms(c)
DAV:   1     0.128436286127E+03    0.12844E+03   -0.12839E+04  2560   0.775E+02
DAV:   2    -0.257974667272E+02   -0.15423E+03   -0.14940E+03  3712   0.140E+02
DAV:   3    -0.340917644907E+02   -0.82943E+01   -0.82764E+01  3280   0.372E+01
DAV:   4    -0.341438839454E+02   -0.52119E-01   -0.52111E-01  3184   0.338E+00
DAV:   5    -0.341441854622E+02   -0.30152E-03   -0.30151E-03  3264   0.251E-01    0.643E+00
DAV:   6    -0.337547409794E+02    0.38944E+00   -0.78046E-01  3184   0.299E+00    0.402E+00
DAV:   7    -0.337486885437E+02    0.60524E-02   -0.24328E-01  3296   0.173E+00    0.128E+00
DAV:   8    -0.337466110075E+02    0.20775E-02   -0.27668E-02  3008   0.617E-01    0.170E-01
DAV:   9    -0.337467714035E+02   -0.16040E-03   -0.34060E-03  3088   0.257E-01    0.641E-02
DAV:  10    -0.337468121174E+02   -0.40714E-04   -0.24998E-04  3088   0.710E-02    0.240E-02
DAV:  11    -0.337468305375E+02   -0.18420E-04   -0.29968E-05  3072   0.260E-02    0.117E-02
DAV:  12    -0.337468301210E+02    0.41652E-06   -0.43297E-06  3120   0.830E-03
   1 F= -.33746830E+02 E0= -.33746830E+02  d E =-.390049E-13
