 running  160 mpi-ranks, with    1 threads/rank, on   10 nodes
 distrk:  each k-point on   80 cores,    2 groups
 distr:  one band on    5 cores,   16 groups
 vasp.6.4.2 20Jul23 (build Oct 12 2023 10:31:02) complex                         
 POSCAR found type information on POSCAR GeSe
 POSCAR found :  2 types and       8 ions
 Reading from existing POTCAR
 scaLAPACK will be used
 Reading from existing POTCAR
 LDA part: xc-table for Pade appr. of Perdew
 POSCAR, INCAR and KPOINTS ok, starting setup
 FFT: planning ... GRIDC
 FFT: planning ... GRID_SOFT
 FFT: planning ... GRID
 WAVECAR not read
 entering main loop
       N       E                     dE             d eps       ncg     rms          rms(c)
DAV:   1     0.163891909596E+03    0.16389E+03   -0.15882E+04  2560   0.104E+03
DAV:   2    -0.224067377873E+02   -0.18630E+03   -0.18057E+03  3712   0.155E+02
DAV:   3    -0.338285809097E+02   -0.11422E+02   -0.11393E+02  3280   0.445E+01
DAV:   4    -0.339150878498E+02   -0.86507E-01   -0.86490E-01  3200   0.438E+00
DAV:   5    -0.339156162970E+02   -0.52845E-03   -0.52844E-03  3264   0.350E-01    0.656E+00
DAV:   6    -0.335310116510E+02    0.38460E+00   -0.78207E-01  3104   0.296E+00    0.410E+00
DAV:   7    -0.335172757287E+02    0.13736E-01   -0.23057E-01  3024   0.172E+00    0.130E+00
DAV:   8    -0.335161085757E+02    0.11672E-02   -0.22677E-02  3168   0.571E-01    0.174E-01
DAV:   9    -0.335163925728E+02   -0.28400E-03   -0.34802E-03  3024   0.258E-01    0.643E-02
DAV:  10    -0.335165196540E+02   -0.12708E-03   -0.31876E-04  3152   0.762E-02    0.232E-02
DAV:  11    -0.335165523826E+02   -0.32729E-04   -0.46519E-05  2880   0.302E-02    0.120E-02
DAV:  12    -0.335165532594E+02   -0.87675E-06   -0.71020E-06  3440   0.113E-02
   1 F= -.33516553E+02 E0= -.33516553E+02  d E =-.262039E-13
