 vasp.6.4.1 05Apr23 (build May 18 2023 13:19:41) complex                         
 executed on    LinuxNV_CrayMPICH date 2024.04.04  15:03:17
 running  256 mpi-ranks, with    1 threads/rank, on    7 nodes
 distrk:  each k-point on  128 cores,    2 groups
 distr:  one band on NCORE=   4 cores,   32 groups


--------------------------------------------------------------------------------------------------------


 INCAR:
   ENCUT = 400.000000
   SIGMA = 0.010000
   EDIFF = 1.00e-06
   ALGO = N
   GGA = PE
   PREC = Accurate
   SYSTEM = 02_SCF
   ICHARG = 0
   ISMEAR = 0
   ISPIN = 2
   ISTART = 1
   KPAR = 2
   LORBIT = 11
   NBANDS = 896
   NELMIN = 5
   NPAR = 32
   IVDW = 11
   LCHARG = .TRUE.
   LWAVE = .TRUE.
   LREAL = .FALSE.

 POTCAR:    PAW_PBE S 17Jan2003                   
 -----------------------------------------------------------------------------
|                                                                             |
|           W    W    AA    RRRRR   N    N  II  N    N   GGGG   !!!           |
|           W    W   A  A   R    R  NN   N  II  NN   N  G    G  !!!           |
|           W    W  A    A  R    R  N N  N  II  N N  N  G       !!!           |
|           W WW W  AAAAAA  RRRRR   N  N N  II  N  N N  G  GGG   !            |
|           WW  WW  A    A  R   R   N   NN  II  N   NN  G    G                |
|           W    W  A    A  R    R  N    N  II  N    N   GGGG   !!!           |
|                                                                             |
|     You use a magnetic or noncollinear calculation, but did not specify     |
|     the initial magnetic moment with the MAGMOM tag. Note that a            |
|     default of 1 will be used for all atoms. This ferromagnetic setup       |
|     may break the symmetry of the crystal, in particular it may rule        |
|     out finding an antiferromagnetic solution. Thence, we recommend         |
|     setting the initial magnetic moment manually or verifying carefully     |
|     that this magnetic setup is desired.                                    |
|                                                                             |
 -----------------------------------------------------------------------------

 POTCAR:    PAW_PBE S 17Jan2003                   
   VRHFIN =S : s2p4                                                                                 
   LEXCH  = PE                                                                                      
   EATOM  =   276.8230 eV,   20.3459 Ry                                                             
                                                                                                    
   TITEL  = PAW_PBE S 17Jan2003                                                                     
   LULTRA =        F    use ultrasoft PP ?                                                          
   IUNSCR =        1    unscreen: 0-lin 1-nonlin 2-no                                               
   RPACOR =    1.500    partial core radius                                                         
   POMASS =   32.066; ZVAL   =    6.000    mass and valenz                                          
   RCORE  =    1.900    outmost cutoff radius                                                       
   RWIGS  =    2.200; RWIGS  =    1.164    wigner-seitz radius (au A)                               
   ENMAX  =  280.000; ENMIN  =  194.016 eV                                                          
   ICORE  =        2    local potential                                                             
   LCOR   =        T    correct aug charges                                                         
   LPAW   =        T    paw PP                                                                      
   EAUG   =  335.092                                                                                
   DEXC   =     .000                                                                                
   RMAX   =    2.867    core radius for proj-oper                                                   
   RAUG   =    1.300    factor for augmentation sphere                                              
   RDEP   =    1.954    radius for radial grids                                                     
   QCUT   =   -4.360; QGAM   =    8.721    optimization parameters                                  
                                                                                                    
   Description                                                                                      
     l     E      TYP  RCUT    TYP  RCUT                                                            
     0   .000     23  1.900                                                                         
     0   .000     23  1.900                                                                         
     1   .000     23  1.900                                                                         
     1   .000     23  1.900                                                                         
     2   .000     23  1.900                                                                         
  local pseudopotential read in
  partial core-charges read in
  atomic valenz-charges read in
  non local Contribution for L=            0  read in
    real space projection operators read in
  non local Contribution for L=            0  read in
    real space projection operators read in
  non local Contribution for L=            1  read in
    real space projection operators read in
  non local Contribution for L=            1  read in
    real space projection operators read in
    PAW grid and wavefunctions read in
 
   number of l-projection  operators is LMAX  =            4
   number of lm-projection operators is LMMAX =            8
 
  PAW_PBE S 17Jan2003                   :
 energy of atom  1       EATOM= -276.8230
 kinetic energy error for atom=    0.0046 (will be added to EATOM!!)
 
 
 POSCAR:  S
  positions in cartesian coordinates
  No initial velocities read in
 exchange correlation table for  LEXCH =        8
   RHO(1)=    0.500       N(1)  =     2000
   RHO(2)=  100.500       N(2)  =     4000
 


--------------------------------------------------------------------------------------------------------


 ion  position               nearest neighbor table
   1  0.435  0.467  0.473-
 
  LATTYP: Found a simple orthorhombic cell.
 ALAT       =    19.9214134216
 B/A-ratio  =     1.6250001197
 C/A-ratio  =     2.0303804144
  
  Lattice vectors:
  
 A1 = (   0.0000000000, -19.9214134216,   0.0000000000)
 A2 = (  32.3722991943,   0.0000000000,   0.0000000000)
 A3 = (   0.0000000000,   0.0000000000,  40.4480476379)


Analysis of symmetry for initial positions (statically):
=====================================================================
 Subroutine PRICEL returns:
 Original cell was already a primitive cell.
 

 Routine SETGRP: Setting up the symmetry group for a 
 simple orthorhombic supercell.


 Subroutine GETGRP returns: Found  8 space group operations
 (whereof  1 operations were pure point group operations)
 out of a pool of  8 trial point group operations.


The static configuration has the point symmetry C_1 .
 The point group associated with its full space group is D_2h.


Analysis of symmetry for dynamics (positions and initial velocities):
=====================================================================
 Subroutine PRICEL returns:
 Original cell was already a primitive cell.
 

 Routine SETGRP: Setting up the symmetry group for a 
 simple orthorhombic supercell.


 Subroutine GETGRP returns: Found  8 space group operations
 (whereof  1 operations were pure point group operations)
 out of a pool of  8 trial point group operations.


The dynamic configuration has the point symmetry C_1 .
 The point group associated with its full space group is D_2h.


Analysis of structural, dynamic, and magnetic symmetry:
=====================================================================
 Subroutine PRICEL returns:
 Original cell was already a primitive cell.
 

 Routine SETGRP: Setting up the symmetry group for a 
 simple orthorhombic supercell.


 Subroutine GETGRP returns: Found  8 space group operations
 (whereof  1 operations were pure point group operations)
 out of a pool of  8 trial point group operations.


The overall configuration has the point symmetry C_1 .
 The point group associated with its full space group is D_2h.


 Subroutine INISYM returns: Found  8 space group operations
 (whereof  1 operations are pure point group operations),
 and found     1 'primitive' translations


----------------------------------------------------------------------------------------

                                     Primitive cell                                     

  volume of cell :   26085.0250

  direct lattice vectors                    reciprocal lattice vectors
    32.372299194  0.000000000  0.000000000     0.030890608  0.000000000  0.000000000
     0.000000000 19.921413422  0.000000000     0.000000000  0.050197241  0.000000000
     0.000000000  0.000000000 40.448047638     0.000000000  0.000000000  0.024723072

  length of vectors
    32.372299194 19.921413422 40.448047638     0.030890608  0.050197241  0.024723072

  position of ions in fractional coordinates (direct lattice)
     0.434631992  0.466512992  0.472628014

  ion indices of the primitive-cell ions
   primitive index   ion index
                 1           1

----------------------------------------------------------------------------------------

 
 
 KPOINTS: KPOINTS created by Atomic Simulation Env

Automatic generation of k-mesh.
 Grid dimensions read from file:
 generate k-points for:    1    1    2

 Generating k-lattice:

  Cartesian coordinates                     Fractional coordinates (reciprocal lattice)
     0.030890608  0.000000000  0.000000000     1.000000000  0.000000000  0.000000000
     0.000000000  0.050197241  0.000000000     0.000000000  1.000000000  0.000000000
     0.000000000  0.000000000  0.012361536     0.000000000  0.000000000  0.500000000

  Length of vectors
     0.030890608  0.050197241  0.012361536

  Shift w.r.t. Gamma in fractional coordinates (k-lattice)
     0.000000000  0.000000000  0.000000000

 
 Subroutine IBZKPT returns following result:
 ===========================================
 
 Found      2 irreducible k-points:
 
 Following reciprocal coordinates:
            Coordinates               Weight
  0.000000  0.000000  0.000000      1.000000
  0.000000  0.000000  0.500000      1.000000
 
 Following cartesian coordinates:
            Coordinates               Weight
  0.000000  0.000000  0.000000      1.000000
  0.000000  0.000000  0.012362      1.000000
 


--------------------------------------------------------------------------------------------------------




 Dimension of arrays:
   k-points           NKPTS =      2   k-points in BZ     NKDIM =      2   number of bands    NBANDS=    896
   number of dos      NEDOS =    301   number of ions     NIONS =      1
   non local maximal  LDIM  =      4   non local SUM 2l+1 LMDIM =      8
   total plane-waves  NPLWV = ******
   max r-space proj   IRMAX =      1   max aug-charges    IRDMAX=  10060
   dimension x,y,z NGX =   216 NGY =  140 NGZ =  270
   dimension x,y,z NGXF=   432 NGYF=  280 NGZF=  540
   support grid    NGXF=   432 NGYF=  280 NGZF=  540
   ions per type =               1
   NGX,Y,Z   is equivalent  to a cutoff of  11.09, 11.68, 11.10 a.u.
   NGXF,Y,Z  is equivalent  to a cutoff of  22.19, 23.37, 22.19 a.u.

 SYSTEM =  02_SCF                                  
 POSCAR =   S                                      

 Startparameter for this run:
   NWRITE =      2    write-flag & timer
   PREC   = accura    normal or accurate (medium, high low for compatibility)
   ISTART =      0    job   : 0-new  1-cont  2-samecut
   ICHARG =      2    charge: 1-file 2-atom 10-const
   ISPIN  =      2    spin polarized calculation?
   LNONCOLLINEAR =      F non collinear calculations
   LSORBIT =      F    spin-orbit coupling
   INIWAV =      1    electr: 0-lowe 1-rand  2-diag
   LASPH  =      F    aspherical Exc in radial PAW
 Electronic Relaxation 1
   ENCUT  =  400.0 eV  29.40 Ry    5.42 a.u.  52.79 32.49 65.96*2*pi/ulx,y,z
   ENINI  =  400.0     initial cutoff
   ENAUG  =  335.1 eV  augmentation charge cutoff
   NELM   =     60;   NELMIN=  5; NELMDL=  0     # of ELM steps 
   EDIFF  = 0.1E-05   stopping-criterion for ELM
   LREAL  =      F    real-space projection
   NLSPLINE    = F    spline interpolate recip. space projectors
   LCOMPAT=      F    compatible to vasp.4.4
   GGA_COMPAT  = T    GGA compatible to vasp.4.4-vasp.4.6
   LMAXPAW     = -100 max onsite density
   LMAXMIX     =    2 max onsite mixed and CHGCAR
   VOSKOWN=      0    Vosko Wilk Nusair interpolation
   ROPT   =    0.00000
 Ionic relaxation
   EDIFFG = 0.1E-04   stopping-criterion for IOM
   NSW    =      0    number of steps for IOM
   NBLOCK =      1;   KBLOCK =      1    inner block; outer block 
   IBRION =     -1    ionic relax: 0-MD 1-quasi-New 2-CG
   NFREE  =      0    steps in history (QN), initial steepest desc. (CG)
   ISIF   =      2    stress and relaxation
   IWAVPR =     10    prediction:  0-non 1-charg 2-wave 3-comb
   ISYM   =      2    0-nonsym 1-usesym 2-fastsym
   LCORR  =      T    Harris-Foulkes like correction to forces

   POTIM  = 0.5000    time-step for ionic-motion
   TEIN   =    0.0    initial temperature
   TEBEG  =    0.0;   TEEND  =   0.0 temperature during run
   SMASS  =  -3.00    Nose mass-parameter (am)
   estimated Nose-frequenzy (Omega)   =  0.10E-29 period in steps = 0.13E+47 mass=  -0.239E-25a.u.
   SCALEE = 1.0000    scale energy and forces
   NPACO  =    256;   APACO  = 10.0  distance and # of slots for P.C.
   PSTRESS=    0.0 pullay stress

  Mass of Ions in am
   POMASS =  32.07
  Ionic Valenz
   ZVAL   =   6.00
  Atomic Wigner-Seitz radii
   RWIGS  =  -1.00
  virtual crystal weights 
   VCA    =   1.00
   NELECT =       6.0000    total number of electrons
   NUPDOWN=      -1.0000    fix difference up-down

 DOS related values:
   EMIN   =  10.00;   EMAX   =-10.00  energy-range for DOS
   EFERMI =   0.00;   METHOD = LEGACY      
   ISMEAR =     0;   SIGMA  =   0.01  broadening in eV -4-tet -1-fermi 0-gaus

 Electronic relaxation 2 (details)
   IALGO  =     38    algorithm
   LDIAG  =      T    sub-space diagonalisation (order eigenvalues)
   LSUBROT=      F    optimize rotation matrix (better conditioning)
   TURBO    =      0    0=normal 1=particle mesh
   IRESTART =      0    0=no restart 2=restart with 2 vectors
   NREBOOT  =      0    no. of reboots
   NMIN     =      0    reboot dimension
   EREF     =   0.00    reference energy to select bands
   IMIX   =      4    mixing-type and parameters
     AMIX     =   0.40;   BMIX     =  1.00
     AMIX_MAG =   1.60;   BMIX_MAG =  1.00
     AMIN     =   0.10
     WC   =   100.;   INIMIX=   1;  MIXPRE=   1;  MAXMIX= -45

 Intra band minimization:
   WEIMIN = 0.0000     energy-eigenvalue tresh-hold
   EBREAK =  0.28E-09  absolut break condition
   DEPER  =   0.30     relativ break condition  

   TIME   =   0.40     timestep for ELM

  volume/ion in A,a.u.               =   26085.03    176030.44
  Fermi-wavevector in a.u.,A,eV,Ry     =   0.100306  0.189551  0.136893  0.010061
  Thomas-Fermi vector in A             =   0.675333
 
 Write flags
   LWAVE        =      T    write WAVECAR
   LDOWNSAMPLE  =      F    k-point downsampling of WAVECAR
   LCHARG       =      T    write CHGCAR
   LVTOT        =      F    write LOCPOT, total local potential
   LVHAR        =      F    write LOCPOT, Hartree potential only
   LELF         =      F    write electronic localiz. function (ELF)
   LORBIT       =     11    0 simple, 1 ext, 2 COOP (PROOUT), +10 PAW based schemes


 Dipole corrections
   LMONO  =      F    monopole corrections only (constant potential shift)
   LDIPOL =      F    correct potential (dipole corrections)
   IDIPOL =      0    1-x, 2-y, 3-z, 4-all directions 
   EPSILON=  1.0000000 bulk dielectric constant

 Exchange correlation treatment:
   GGA     =    PE    GGA type
   LEXCH   =     8    internal setting for exchange type
   LIBXC   =     F    Libxc                    
   VOSKOWN =     0    Vosko Wilk Nusair interpolation
   LHFCALC =     F    Hartree Fock is set to
   LHFONE  =     F    Hartree Fock one center treatment
   AEXX    =    0.0000 exact exchange contribution

 Linear response parameters
   LEPSILON=     F    determine dielectric tensor
   LRPA    =     F    only Hartree local field effects (RPA)
   LNABLA  =     F    use nabla operator in PAW spheres
   LVEL    =     F    velocity operator in full k-point grid
   CSHIFT  =0.1000    complex shift for real part using Kramers Kronig
   OMEGAMAX=  -1.0    maximum frequency
   DEG_THRESHOLD= 0.2000000E-02 threshold for treating states as degnerate
   RTIME   =   -0.100 relaxation time in fs
  (WPLASMAI=    0.000 imaginary part of plasma frequency in eV, 0.658/RTIME)
   DFIELD  = 0.0000000 0.0000000 0.0000000 field for delta impulse in time
 
  Optional k-point grid parameters
   LKPOINTS_OPT  =     F    use optional k-point grid
   KPOINTS_OPT_MODE=     1    mode for optional k-point grid
 
 Orbital magnetization related:
   ORBITALMAG=     F  switch on orbital magnetization
   LCHIMAG   =     F  perturbation theory with respect to B field
   DQ        =  0.001000  dq finite difference perturbation B field
   LLRAUG    =     F  two centre corrections for induced B field
   LBONE     =     F  B-component reconstruction in AE one-centre
   LVGVCALC  =     T  calculate vGv susceptibility
   LVGVAPPL  =     F  apply vGv susceptibility instead of pGv for G=0

 Random number generation:
   RANDOM_GENERATOR = DEFAULT
   PCG_SEED         = not used


--------------------------------------------------------------------------------------------------------


 Static calculation
 charge density and potential will be updated during run
 spin polarized calculation
 Variant of blocked Davidson
 Davidson routine will perform the subspace rotation
 perform sub-space diagonalisation
    after iterative eigenvector-optimisation
 modified Broyden-mixing scheme, WC =      100.0
 initial mixing is a Kerker type mixing with AMIX =  0.4000 and BMIX =      1.0000
 Hartree-type preconditioning will be used
 using additional bands           893
 reciprocal scheme for non local part
 use partial core corrections
 calculate Harris-corrections to forces 
   (improved forces if not selfconsistent)
 use gradient corrections 
 use of overlap-Matrix (Vanderbilt PP)
 Gauss-broadening in eV      SIGMA  =   0.01


--------------------------------------------------------------------------------------------------------


  energy-cutoff  :      400.00
  volume of cell :    26085.03
      direct lattice vectors                 reciprocal lattice vectors
    32.372299194  0.000000000  0.000000000     0.030890608  0.000000000  0.000000000
     0.000000000 19.921413422  0.000000000     0.000000000  0.050197241  0.000000000
     0.000000000  0.000000000 40.448047638     0.000000000  0.000000000  0.024723072

  length of vectors
    32.372299194 19.921413422 40.448047638     0.030890608  0.050197241  0.024723072


 
 k-points in units of 2pi/SCALE and weight: KPOINTS created by Atomic Simulation Env
   0.00000000  0.00000000  0.00000000       0.500
   0.00000000  0.00000000  0.01236154       0.500
 
 k-points in reciprocal lattice and weights: KPOINTS created by Atomic Simulation Env
   0.00000000  0.00000000  0.00000000       0.500
   0.00000000  0.00000000  0.50000000       0.500
 
 position of ions in fractional coordinates (direct lattice) 
   0.43463199  0.46651299  0.47262801
 
 position of ions in cartesian coordinates  (Angst):
  14.07003689  9.29359817 19.11688042
 


--------------------------------------------------------------------------------------------------------


 k-point   1 :   0.0000 0.0000 0.0000  plane waves:  473959
 k-point   2 :   0.0000 0.0000 0.5000  plane waves:  473680

 maximum and minimum number of plane-waves per node :    118517   118418

 maximum number of plane-waves:    473959
 maximum index in each direction: 
   IXMAX=   52   IYMAX=   32   IZMAX=   65
   IXMIN=  -52   IYMIN=  -32   IZMIN=  -66


 parallel 3D FFT for wavefunctions:
    minimum data exchange during FFTs selected (reduces bandwidth)
 parallel 3D FFT for charge:
    minimum data exchange during FFTs selected (reduces bandwidth)


 total amount of memory used by VASP MPI-rank0   546435. kBytes
=======================================================================

   base      :      30000. kBytes
   nonl-proj :      17068. kBytes
   fftplans  :      79694. kBytes
   grid      :     207208. kBytes
   one-center:          6. kBytes
   wavefun   :     212459. kBytes
 
     INWAV:  cpu time      0.0000: real time      0.0000
 Broyden mixing: mesh for mixing (old mesh)
   NGX =105   NGY = 65   NGZ =131
  (NGX  =432   NGY  =280   NGZ  =540)
  gives a total of 894075 points

 initial charge density was supplied:
 charge density of overlapping atoms calculated
 number of electron       6.0000000 magnetization       1.0000000
 keeping initial charge density in first step


--------------------------------------------------------------------------------------------------------


 Maximum index for augmentation-charges             0 (set IRDMAX)


--------------------------------------------------------------------------------------------------------


 First call to EWALD:  gamma=   0.060
 Maximum number of real-space cells 3x 4x 2
 Maximum number of reciprocal cells 3x 2x 4

    FEWALD:  cpu time      0.1146: real time      0.1146


--------------------------------------- Ionic step        1  -------------------------------------------




--------------------------------------- Iteration      1(   1)  ---------------------------------------


    POTLOK:  cpu time      0.8133: real time      0.8134
    SETDIJ:  cpu time      0.0030: real time      0.0031
     EDDAV:  cpu time     28.3035: real time     28.3150
       DOS:  cpu time      0.0025: real time      0.0025
    --------------------------------------------
      LOOP:  cpu time     29.1223: real time     29.1339

 eigenvalue-minimisations  :  7168
 total energy-change (2. order) : 0.3968626E+02  (-0.2629441E+02)
 number of electron       6.0000000 magnetization       1.0000000
 augmentation part        6.0000000 magnetization       1.0000000

 Free energy of the ion-electron system (eV)
  ---------------------------------------------------
  alpha Z        PSCENC =         0.00578669
  Ewald energy   TEWEN  =       -21.16206747
  -Hartree energ DENC   =      -207.24934173
  -exchange      EXHF   =         0.00000000
  -V(xc)+E(xc)   XCENC  =        10.95620441
  PAW double counting   =        99.17335537      -95.97310228
  entropy T*S    EENTRO =        -0.00241629
  eigenvalues    EBANDS =       -22.88056360
  atomic energy  EATOM  =       276.81840277
  Solvation  Ediel_sol  =         0.00000000
  ---------------------------------------------------
  free energy    TOTEN  =        39.68625785 eV

  energy without entropy =       39.68867415  energy(sigma->0) =       39.68746600


--------------------------------------------------------------------------------------------------------




--------------------------------------- Iteration      1(   2)  ---------------------------------------


     EDDAV:  cpu time     30.7366: real time     30.7440
       DOS:  cpu time      0.0013: real time      0.0013
    --------------------------------------------
      LOOP:  cpu time     30.7379: real time     30.7453

 eigenvalue-minimisations  :  8032
 total energy-change (2. order) :-0.2971172E+02  (-0.2626742E+02)
 number of electron       6.0000000 magnetization       1.0000000
 augmentation part        6.0000000 magnetization       1.0000000

 Free energy of the ion-electron system (eV)
  ---------------------------------------------------
  alpha Z        PSCENC =         0.00578669
  Ewald energy   TEWEN  =       -21.16206747
  -Hartree energ DENC   =      -207.24934173
  -exchange      EXHF   =         0.00000000
  -V(xc)+E(xc)   XCENC  =        10.95620441
  PAW double counting   =        99.17335537      -95.97310228
  entropy T*S    EENTRO =        -0.00030158
  eigenvalues    EBANDS =       -52.59439331
  atomic energy  EATOM  =       276.81840277
  Solvation  Ediel_sol  =         0.00000000
  ---------------------------------------------------
  free energy    TOTEN  =         9.97454285 eV

  energy without entropy =        9.97484443  energy(sigma->0) =        9.97469364


--------------------------------------------------------------------------------------------------------




--------------------------------------- Iteration      1(   3)  ---------------------------------------


     EDDAV:  cpu time     32.4969: real time     32.5035
       DOS:  cpu time      0.0013: real time      0.0013
    --------------------------------------------
      LOOP:  cpu time     32.4982: real time     32.5048

 eigenvalue-minimisations  :  8704
 total energy-change (2. order) :-0.1029888E+02  (-0.1011973E+02)
 number of electron       6.0000000 magnetization       1.0000000
 augmentation part        6.0000000 magnetization       1.0000000

 Free energy of the ion-electron system (eV)
  ---------------------------------------------------
  alpha Z        PSCENC =         0.00578669
  Ewald energy   TEWEN  =       -21.16206747
  -Hartree energ DENC   =      -207.24934173
  -exchange      EXHF   =         0.00000000
  -V(xc)+E(xc)   XCENC  =        10.95620441
  PAW double counting   =        99.17335537      -95.97310228
  entropy T*S    EENTRO =        -0.00595740
  eigenvalues    EBANDS =       -62.88761267
  atomic energy  EATOM  =       276.81840277
  Solvation  Ediel_sol  =         0.00000000
  ---------------------------------------------------
  free energy    TOTEN  =        -0.32433232 eV

  energy without entropy =       -0.31837492  energy(sigma->0) =       -0.32135362


--------------------------------------------------------------------------------------------------------




--------------------------------------- Iteration      1(   4)  ---------------------------------------


     EDDAV:  cpu time     31.5361: real time     31.5467
       DOS:  cpu time      0.0014: real time      0.0014
    --------------------------------------------
      LOOP:  cpu time     31.5375: real time     31.5481

 eigenvalue-minimisations  :  8352
 total energy-change (2. order) :-0.3305154E+00  (-0.3287129E+00)
 number of electron       6.0000000 magnetization       1.0000000
 augmentation part        6.0000000 magnetization       1.0000000

 Free energy of the ion-electron system (eV)
  ---------------------------------------------------
  alpha Z        PSCENC =         0.00578669
  Ewald energy   TEWEN  =       -21.16206747
  -Hartree energ DENC   =      -207.24934173
  -exchange      EXHF   =         0.00000000
  -V(xc)+E(xc)   XCENC  =        10.95620441
  PAW double counting   =        99.17335537      -95.97310228
  entropy T*S    EENTRO =        -0.00771305
  eigenvalues    EBANDS =       -63.21637246
  atomic energy  EATOM  =       276.81840277
  Solvation  Ediel_sol  =         0.00000000
  ---------------------------------------------------
  free energy    TOTEN  =        -0.65484777 eV

  energy without entropy =       -0.64713472  energy(sigma->0) =       -0.65099124


--------------------------------------------------------------------------------------------------------




--------------------------------------- Iteration      1(   5)  ---------------------------------------


     EDDAV:  cpu time     31.8388: real time     31.8471
       DOS:  cpu time      0.0013: real time      0.0013
    CHARGE:  cpu time      1.7970: real time      1.7996
    MIXING:  cpu time      0.0399: real time      0.0400
    --------------------------------------------
      LOOP:  cpu time     33.6770: real time     33.6881

 eigenvalue-minimisations  :  8448
 total energy-change (2. order) :-0.2446999E-02  (-0.2446848E-02)
 number of electron       5.9999999 magnetization       1.0376990
 augmentation part       -0.8464423 magnetization      -1.0695650

 Broyden mixing:
  rms(total) = 0.27782E+00    rms(broyden)= 0.27780E+00
  rms(prec ) = 0.27781E+00
  weight for this iteration     100.00

 Free energy of the ion-electron system (eV)
  ---------------------------------------------------
  alpha Z        PSCENC =         0.00578669
  Ewald energy   TEWEN  =       -21.16206747
  -Hartree energ DENC   =      -207.24934173
  -exchange      EXHF   =         0.00000000
  -V(xc)+E(xc)   XCENC  =        10.95620441
  PAW double counting   =        99.17335537      -95.97310228
  entropy T*S    EENTRO =        -0.00771312
  eigenvalues    EBANDS =       -63.21881939
  atomic energy  EATOM  =       276.81840277
  Solvation  Ediel_sol  =         0.00000000
  ---------------------------------------------------
  free energy    TOTEN  =        -0.65729477 eV

  energy without entropy =       -0.64958165  energy(sigma->0) =       -0.65343821


--------------------------------------------------------------------------------------------------------




--------------------------------------- Iteration      1(   6)  ---------------------------------------


    POTLOK:  cpu time      0.7780: real time      0.7801
    SETDIJ:  cpu time      0.0023: real time      0.0023
     EDDAV:  cpu time     29.4239: real time     29.4264
       DOS:  cpu time      0.0016: real time      0.0016
    CHARGE:  cpu time      1.6819: real time      1.6824
    MIXING:  cpu time      0.0329: real time      0.0329
    --------------------------------------------
      LOOP:  cpu time     31.9206: real time     31.9257

 eigenvalue-minimisations  :  7584
 total energy-change (2. order) : 0.1359531E+01  (-0.1079531E+00)
 number of electron       5.9999999 magnetization       1.0729166
 augmentation part       -0.8538070 magnetization      -1.0420443

 Broyden mixing:
  rms(total) = 0.80907E-01    rms(broyden)= 0.80898E-01
  rms(prec ) = 0.81927E-01
  weight for this iteration     100.00

 eigenvalues of (default mixing * dielectric matrix)
  average eigenvalue GAMMA=   0.9413
  0.9413

 Free energy of the ion-electron system (eV)
  ---------------------------------------------------
  alpha Z        PSCENC =         0.00578669
  Ewald energy   TEWEN  =       -21.16206747
  -Hartree energ DENC   =      -207.41522757
  -exchange      EXHF   =         0.00000000
  -V(xc)+E(xc)   XCENC  =        12.42392694
  PAW double counting   =        99.22486456      -96.01441951
  entropy T*S    EENTRO =        -0.00771309
  eigenvalues    EBANDS =       -63.17131740
  atomic energy  EATOM  =       276.81840277
  Solvation  Ediel_sol  =         0.00000000
  ---------------------------------------------------
  free energy    TOTEN  =         0.70223591 eV

  energy without entropy =        0.70994900  energy(sigma->0) =        0.70609245


--------------------------------------------------------------------------------------------------------




--------------------------------------- Iteration      1(   7)  ---------------------------------------


    POTLOK:  cpu time      0.7390: real time      0.7417
    SETDIJ:  cpu time      0.0023: real time      0.0023
     EDDAV:  cpu time     29.9199: real time     29.9228
       DOS:  cpu time      0.0032: real time      0.0032
    CHARGE:  cpu time      1.6549: real time      1.6561
    MIXING:  cpu time      0.0326: real time      0.0326
    --------------------------------------------
      LOOP:  cpu time     32.3520: real time     32.3587

 eigenvalue-minimisations  :  7712
 total energy-change (2. order) :-0.5567043E+00  (-0.9172754E-02)
 number of electron       5.9999999 magnetization       1.1102406
 augmentation part       -0.8489327 magnetization      -1.0029544

 Broyden mixing:
  rms(total) = 0.44994E-01    rms(broyden)= 0.44993E-01
  rms(prec ) = 0.45317E-01
  weight for this iteration     100.00

 eigenvalues of (default mixing * dielectric matrix)
  average eigenvalue GAMMA=   0.9049
  0.9376  0.8722

 Free energy of the ion-electron system (eV)
  ---------------------------------------------------
  alpha Z        PSCENC =         0.00578669
  Ewald energy   TEWEN  =       -21.16206747
  -Hartree energ DENC   =      -208.40499321
  -exchange      EXHF   =         0.00000000
  -V(xc)+E(xc)   XCENC  =        12.11038548
  PAW double counting   =       101.02411253      -97.84009495
  entropy T*S    EENTRO =        -0.00769437
  eigenvalues    EBANDS =       -62.39830590
  atomic energy  EATOM  =       276.81840277
  Solvation  Ediel_sol  =         0.00000000
  ---------------------------------------------------
  free energy    TOTEN  =         0.14553156 eV

  energy without entropy =        0.15322594  energy(sigma->0) =        0.14937875


--------------------------------------------------------------------------------------------------------




--------------------------------------- Iteration      1(   8)  ---------------------------------------


    POTLOK:  cpu time      0.7339: real time      0.7343
    SETDIJ:  cpu time      0.0062: real time      0.0062
     EDDAV:  cpu time     30.4735: real time     30.4765
       DOS:  cpu time      0.0012: real time      0.0012
    CHARGE:  cpu time      1.6541: real time      1.6559
    MIXING:  cpu time      0.0332: real time      0.0332
    --------------------------------------------
      LOOP:  cpu time     32.9021: real time     32.9073

 eigenvalue-minimisations  :  7936
 total energy-change (2. order) :-0.4629449E+00  (-0.1437820E-01)
 number of electron       5.9999999 magnetization       1.1107697
 augmentation part       -0.8445700 magnetization      -0.9974645

 Broyden mixing:
  rms(total) = 0.31621E+00    rms(broyden)= 0.31620E+00
  rms(prec ) = 0.31966E+00
  weight for this iteration     100.00

 eigenvalues of (default mixing * dielectric matrix)
  average eigenvalue GAMMA=   0.6362
  0.9762  0.8818  0.0505

 Free energy of the ion-electron system (eV)
  ---------------------------------------------------
  alpha Z        PSCENC =         0.00578669
  Ewald energy   TEWEN  =       -21.16206747
  -Hartree energ DENC   =      -208.81844247
  -exchange      EXHF   =         0.00000000
  -V(xc)+E(xc)   XCENC  =        11.80554321
  PAW double counting   =       101.35879507      -98.18065660
  entropy T*S    EENTRO =        -0.00004295
  eigenvalues    EBANDS =       -62.14473162
  atomic energy  EATOM  =       276.81840277
  Solvation  Ediel_sol  =         0.00000000
  ---------------------------------------------------
  free energy    TOTEN  =        -0.31741338 eV

  energy without entropy =       -0.31737043  energy(sigma->0) =       -0.31739191


--------------------------------------------------------------------------------------------------------




--------------------------------------- Iteration      1(   9)  ---------------------------------------


    POTLOK:  cpu time      0.7366: real time      0.7431
    SETDIJ:  cpu time      0.0019: real time      0.0019
     EDDAV:  cpu time     29.9444: real time     29.9475
       DOS:  cpu time      0.0068: real time      0.0068
    CHARGE:  cpu time      1.5884: real time      1.5895
    MIXING:  cpu time      0.0318: real time      0.0318
    --------------------------------------------
      LOOP:  cpu time     32.3099: real time     32.3206

 eigenvalue-minimisations  :  7744
 total energy-change (2. order) : 0.3731497E-01  (-0.1473952E-02)
 number of electron       5.9999999 magnetization       1.1108544
 augmentation part       -0.8439627 magnetization      -0.9968730

 Broyden mixing:
  rms(total) = 0.16192E+00    rms(broyden)= 0.16191E+00
  rms(prec ) = 0.16362E+00
  weight for this iteration     100.00

 eigenvalues of (default mixing * dielectric matrix)
  average eigenvalue GAMMA=   0.4779
  0.9777  0.8807  0.0499  0.0035

 Free energy of the ion-electron system (eV)
  ---------------------------------------------------
  alpha Z        PSCENC =         0.00578669
  Ewald energy   TEWEN  =       -21.16206747
  -Hartree energ DENC   =      -208.85192043
  -exchange      EXHF   =         0.00000000
  -V(xc)+E(xc)   XCENC  =        11.82651337
  PAW double counting   =       101.40542171      -98.22788243
  entropy T*S    EENTRO =        -0.00571222
  eigenvalues    EBANDS =       -62.08864038
  atomic energy  EATOM  =       276.81840277
  Solvation  Ediel_sol  =         0.00000000
  ---------------------------------------------------
  free energy    TOTEN  =        -0.28009841 eV

  energy without entropy =       -0.27438619  energy(sigma->0) =       -0.27724230


--------------------------------------------------------------------------------------------------------




--------------------------------------- Iteration      1(  10)  ---------------------------------------


    POTLOK:  cpu time      0.7321: real time      0.7388
    SETDIJ:  cpu time      0.0020: real time      0.0020
     EDDAV:  cpu time     29.7677: real time     29.7702
       DOS:  cpu time      0.0768: real time      0.0768
    CHARGE:  cpu time      1.5530: real time      1.5550
    MIXING:  cpu time      0.0319: real time      0.0319
    --------------------------------------------
      LOOP:  cpu time     32.1635: real time     32.1746

 eigenvalue-minimisations  :  7712
 total energy-change (2. order) :-0.1997428E-01  (-0.1734234E-04)
 number of electron       5.9999999 magnetization       1.1107170
 augmentation part       -0.8439799 magnetization      -0.9970148

 Broyden mixing:
  rms(total) = 0.16364E+00    rms(broyden)= 0.16364E+00
  rms(prec ) = 0.16537E+00
  weight for this iteration     100.00

 eigenvalues of (default mixing * dielectric matrix)
  average eigenvalue GAMMA=   0.4378
  0.9511  0.9097  0.1336  0.1574  0.0371

 Free energy of the ion-electron system (eV)
  ---------------------------------------------------
  alpha Z        PSCENC =         0.00578669
  Ewald energy   TEWEN  =       -21.16206747
  -Hartree energ DENC   =      -208.85113923
  -exchange      EXHF   =         0.00000000
  -V(xc)+E(xc)   XCENC  =        11.80717594
  PAW double counting   =       101.40359418      -98.22603777
  entropy T*S    EENTRO =        -0.00565314
  eigenvalues    EBANDS =       -62.09013466
  atomic energy  EATOM  =       276.81840277
  Solvation  Ediel_sol  =         0.00000000
  ---------------------------------------------------
  free energy    TOTEN  =        -0.30007270 eV

  energy without entropy =       -0.29441955  energy(sigma->0) =       -0.29724612


--------------------------------------------------------------------------------------------------------




--------------------------------------- Iteration      1(  11)  ---------------------------------------


    POTLOK:  cpu time      0.7338: real time      0.7384
    SETDIJ:  cpu time      0.0047: real time      0.0047
     EDDAV:  cpu time     31.1154: real time     31.1183
       DOS:  cpu time      0.0014: real time      0.0014
    CHARGE:  cpu time      1.5822: real time      1.5834
    MIXING:  cpu time      0.0314: real time      0.0314
    --------------------------------------------
      LOOP:  cpu time     33.4690: real time     33.4776

 eigenvalue-minimisations  :  8064
 total energy-change (2. order) : 0.3817255E-02  (-0.1200071E-03)
 number of electron       5.9999999 magnetization       1.1225897
 augmentation part       -0.8440371 magnetization      -0.9850403

 Broyden mixing:
  rms(total) = 0.15152E+00    rms(broyden)= 0.15152E+00
  rms(prec ) = 0.15313E+00
  weight for this iteration     100.00

 eigenvalues of (default mixing * dielectric matrix)
  average eigenvalue GAMMA=   0.6119
  0.6676  0.9686  0.9686  0.5143  0.5143  0.0378

 Free energy of the ion-electron system (eV)
  ---------------------------------------------------
  alpha Z        PSCENC =         0.00578669
  Ewald energy   TEWEN  =       -21.16206747
  -Hartree energ DENC   =      -208.84709922
  -exchange      EXHF   =         0.00000000
  -V(xc)+E(xc)   XCENC  =        11.80729978
  PAW double counting   =       101.37277439      -98.19495680
  entropy T*S    EENTRO =        -0.00612398
  eigenvalues    EBANDS =       -62.09027159
  atomic energy  EATOM  =       276.81840277
  Solvation  Ediel_sol  =         0.00000000
  ---------------------------------------------------
  free energy    TOTEN  =        -0.29625544 eV

  energy without entropy =       -0.29013146  energy(sigma->0) =       -0.29319345


--------------------------------------------------------------------------------------------------------




--------------------------------------- Iteration      1(  12)  ---------------------------------------


    POTLOK:  cpu time      0.7329: real time      0.7443
    SETDIJ:  cpu time      0.0019: real time      0.0019
     EDDAV:  cpu time     28.8765: real time     28.8788
       DOS:  cpu time      0.0012: real time      0.0012
    CHARGE:  cpu time      1.5110: real time      1.5127
    MIXING:  cpu time      0.0318: real time      0.0318
    --------------------------------------------
      LOOP:  cpu time     31.1553: real time     31.1707

 eigenvalue-minimisations  :  7360
 total energy-change (2. order) :-0.8598555E-01  (-0.2472839E-01)
 number of electron       5.9999999 magnetization       1.1443202
 augmentation part       -0.8443879 magnetization      -0.9626116

 Broyden mixing:
  rms(total) = 0.30352E+00    rms(broyden)= 0.30350E+00
  rms(prec ) = 0.30665E+00
  weight for this iteration     100.00

 eigenvalues of (default mixing * dielectric matrix)
  average eigenvalue GAMMA=   0.6022
  1.1718  1.1718  0.4417  0.6181  0.3871  0.3871  0.0378

 Free energy of the ion-electron system (eV)
  ---------------------------------------------------
  alpha Z        PSCENC =         0.00578669
  Ewald energy   TEWEN  =       -21.16206747
  -Hartree energ DENC   =      -208.80270310
  -exchange      EXHF   =         0.00000000
  -V(xc)+E(xc)   XCENC  =        11.74816417
  PAW double counting   =       101.06445475      -97.88299523
  entropy T*S    EENTRO =        -0.00014315
  eigenvalues    EBANDS =       -62.17114041
  atomic energy  EATOM  =       276.81840277
  Solvation  Ediel_sol  =         0.00000000
  ---------------------------------------------------
  free energy    TOTEN  =        -0.38224099 eV

  energy without entropy =       -0.38209784  energy(sigma->0) =       -0.38216942


--------------------------------------------------------------------------------------------------------




--------------------------------------- Iteration      1(  13)  ---------------------------------------


    POTLOK:  cpu time      0.7402: real time      0.7407
    SETDIJ:  cpu time      0.0031: real time      0.0031
     EDDAV:  cpu time     29.0920: real time     29.0953
       DOS:  cpu time      0.0132: real time      0.0132
    CHARGE:  cpu time      1.6114: real time      1.6124
    MIXING:  cpu time      0.0334: real time      0.0334
    --------------------------------------------
      LOOP:  cpu time     31.4932: real time     31.4981

 eigenvalue-minimisations  :  7360
 total energy-change (2. order) :-0.8809731E-01  (-0.1137271E-02)
 number of electron       5.9999999 magnetization       1.2115357
 augmentation part       -0.8443624 magnetization      -0.8946966

 Broyden mixing:
  rms(total) = 0.11216E+00    rms(broyden)= 0.11216E+00
  rms(prec ) = 0.11331E+00
  weight for this iteration     100.00

 eigenvalues of (default mixing * dielectric matrix)
  average eigenvalue GAMMA=   0.7096
  1.3645  1.3645  0.4122  1.0173  0.4258  0.4258  0.6292  0.0378

 Free energy of the ion-electron system (eV)
  ---------------------------------------------------
  alpha Z        PSCENC =         0.00578669
  Ewald energy   TEWEN  =       -21.16206747
  -Hartree energ DENC   =      -208.69814941
  -exchange      EXHF   =         0.00000000
  -V(xc)+E(xc)   XCENC  =        11.65018670
  PAW double counting   =       100.90509693      -97.72247424
  entropy T*S    EENTRO =        -0.00685685
  eigenvalues    EBANDS =       -62.26026341
  atomic energy  EATOM  =       276.81840277
  Solvation  Ediel_sol  =         0.00000000
  ---------------------------------------------------
  free energy    TOTEN  =        -0.47033830 eV

  energy without entropy =       -0.46348145  energy(sigma->0) =       -0.46690988


--------------------------------------------------------------------------------------------------------




--------------------------------------- Iteration      1(  14)  ---------------------------------------


    POTLOK:  cpu time      0.7359: real time      0.7395
    SETDIJ:  cpu time      0.0024: real time      0.0024
     EDDAV:  cpu time     29.2394: real time     29.2418
       DOS:  cpu time      0.0035: real time      0.0035
    CHARGE:  cpu time      1.6094: real time      1.6101
    MIXING:  cpu time      0.0331: real time      0.0331
    --------------------------------------------
      LOOP:  cpu time     31.6237: real time     31.6303

 eigenvalue-minimisations  :  7520
 total energy-change (2. order) :-0.2226567E+00  (-0.9181149E-02)
 number of electron       5.9999999 magnetization       1.2695284
 augmentation part       -0.8456923 magnetization      -0.8359253

 Broyden mixing:
  rms(total) = 0.21045E+00    rms(broyden)= 0.21044E+00
  rms(prec ) = 0.21262E+00
  weight for this iteration     100.00

 eigenvalues of (default mixing * dielectric matrix)
  average eigenvalue GAMMA=   0.8443
  2.4115  1.2598  1.2598  0.4149  0.7514  0.6249  0.4194  0.4194  0.0378

 Free energy of the ion-electron system (eV)
  ---------------------------------------------------
  alpha Z        PSCENC =         0.00578669
  Ewald energy   TEWEN  =       -21.16206747
  -Hartree energ DENC   =      -208.35001944
  -exchange      EXHF   =         0.00000000
  -V(xc)+E(xc)   XCENC  =        11.43973341
  PAW double counting   =       100.10293510      -96.90772851
  entropy T*S    EENTRO =        -0.00464543
  eigenvalues    EBANDS =       -62.63539210
  atomic energy  EATOM  =       276.81840277
  Solvation  Ediel_sol  =         0.00000000
  ---------------------------------------------------
  free energy    TOTEN  =        -0.69299498 eV

  energy without entropy =       -0.68834956  energy(sigma->0) =       -0.69067227


--------------------------------------------------------------------------------------------------------




--------------------------------------- Iteration      1(  15)  ---------------------------------------


    POTLOK:  cpu time      0.7337: real time      0.7356
    SETDIJ:  cpu time      0.0021: real time      0.0021
     EDDAV:  cpu time     29.4015: real time     29.4041
       DOS:  cpu time      0.0013: real time      0.0013
    CHARGE:  cpu time      1.5529: real time      1.5547
    MIXING:  cpu time      0.0341: real time      0.0341
    --------------------------------------------
      LOOP:  cpu time     31.7257: real time     31.7320

 eigenvalue-minimisations  :  7520
 total energy-change (2. order) :-0.8523573E-01  (-0.6675886E-02)
 number of electron       5.9999999 magnetization       1.3195028
 augmentation part       -0.8461384 magnetization      -0.7848651

 Broyden mixing:
  rms(total) = 0.14060E+00    rms(broyden)= 0.14059E+00
  rms(prec ) = 0.14210E+00
  weight for this iteration     100.00

 eigenvalues of (default mixing * dielectric matrix)
  average eigenvalue GAMMA=   0.9070
  3.0014  0.4156  1.2924  1.0927  1.0927  0.4224  0.4224  0.6759  0.6172  0.0378

 Free energy of the ion-electron system (eV)
  ---------------------------------------------------
  alpha Z        PSCENC =         0.00578669
  Ewald energy   TEWEN  =       -21.16206747
  -Hartree energ DENC   =      -208.16269707
  -exchange      EXHF   =         0.00000000
  -V(xc)+E(xc)   XCENC  =        11.35421687
  PAW double counting   =        99.78548237      -96.58559373
  entropy T*S    EENTRO =        -0.00653063
  eigenvalues    EBANDS =       -62.82523051
  atomic energy  EATOM  =       276.81840277
  Solvation  Ediel_sol  =         0.00000000
  ---------------------------------------------------
  free energy    TOTEN  =        -0.77823072 eV

  energy without entropy =       -0.77170009  energy(sigma->0) =       -0.77496540


--------------------------------------------------------------------------------------------------------




--------------------------------------- Iteration      1(  16)  ---------------------------------------


    POTLOK:  cpu time      0.7413: real time      0.7435
    SETDIJ:  cpu time      0.0051: real time      0.0051
     EDDAV:  cpu time     29.6676: real time     29.6703
       DOS:  cpu time      0.0013: real time      0.0013
    CHARGE:  cpu time      1.7200: real time      1.7230
    MIXING:  cpu time      0.0327: real time      0.0327
    --------------------------------------------
      LOOP:  cpu time     32.1681: real time     32.1759

 eigenvalue-minimisations  :  7648
 total energy-change (2. order) :-0.4479450E-01  (-0.4734469E-02)
 number of electron       5.9999999 magnetization       1.3728627
 augmentation part       -0.8464361 magnetization      -0.7311148

 Broyden mixing:
  rms(total) = 0.14793E+00    rms(broyden)= 0.14792E+00
  rms(prec ) = 0.14948E+00
  weight for this iteration     100.00

 eigenvalues of (default mixing * dielectric matrix)
  average eigenvalue GAMMA=   0.9569
  3.4622  0.4158  1.3276  1.2107  1.2107  0.4216  0.4216  0.8116  0.6032  0.6032
  0.0378

 Free energy of the ion-electron system (eV)
  ---------------------------------------------------
  alpha Z        PSCENC =         0.00578669
  Ewald energy   TEWEN  =       -21.16206747
  -Hartree energ DENC   =      -208.04451644
  -exchange      EXHF   =         0.00000000
  -V(xc)+E(xc)   XCENC  =        11.30277657
  PAW double counting   =        99.66734340      -96.46540483
  entropy T*S    EENTRO =        -0.00641015
  eigenvalues    EBANDS =       -62.93893576
  atomic energy  EATOM  =       276.81840277
  Solvation  Ediel_sol  =         0.00000000
  ---------------------------------------------------
  free energy    TOTEN  =        -0.82302522 eV

  energy without entropy =       -0.81661507  energy(sigma->0) =       -0.81982015


--------------------------------------------------------------------------------------------------------




--------------------------------------- Iteration      1(  17)  ---------------------------------------


    POTLOK:  cpu time      0.7405: real time      0.7463
    SETDIJ:  cpu time      0.0021: real time      0.0021
     EDDAV:  cpu time     29.7102: real time     29.7131
       DOS:  cpu time      0.0013: real time      0.0013
    CHARGE:  cpu time      1.6954: real time      1.6969
    MIXING:  cpu time      0.0330: real time      0.0330
    --------------------------------------------
      LOOP:  cpu time     32.1825: real time     32.1927

 eigenvalue-minimisations  :  7680
 total energy-change (2. order) :-0.1455119E-01  (-0.8177794E-02)
 number of electron       5.9999999 magnetization       1.4222277
 augmentation part       -0.8464230 magnetization      -0.6815234

 Broyden mixing:
  rms(total) = 0.18371E+00    rms(broyden)= 0.18370E+00
  rms(prec ) = 0.18559E+00
  weight for this iteration     100.00

 eigenvalues of (default mixing * dielectric matrix)
  average eigenvalue GAMMA=   1.0926
  4.4368  1.8091  0.4157  1.3559  1.1565  1.1565  0.4226  0.4226  0.7380  0.6216
  0.5386  0.0378

 Free energy of the ion-electron system (eV)
  ---------------------------------------------------
  alpha Z        PSCENC =         0.00578669
  Ewald energy   TEWEN  =       -21.16206747
  -Hartree energ DENC   =      -207.99258299
  -exchange      EXHF   =         0.00000000
  -V(xc)+E(xc)   XCENC  =        11.28871595
  PAW double counting   =        99.72563438      -96.52407165
  entropy T*S    EENTRO =        -0.00531107
  eigenvalues    EBANDS =       -62.99208301
  atomic energy  EATOM  =       276.81840277
  Solvation  Ediel_sol  =         0.00000000
  ---------------------------------------------------
  free energy    TOTEN  =        -0.83757641 eV

  energy without entropy =       -0.83226533  energy(sigma->0) =       -0.83492087


--------------------------------------------------------------------------------------------------------




--------------------------------------- Iteration      1(  18)  ---------------------------------------


    POTLOK:  cpu time      0.7291: real time      0.7352
    SETDIJ:  cpu time      0.0059: real time      0.0059
     EDDAV:  cpu time     29.8673: real time     29.8703
       DOS:  cpu time      0.0013: real time      0.0013
    CHARGE:  cpu time      1.6982: real time      1.6999
    MIXING:  cpu time      0.0336: real time      0.0336
    --------------------------------------------
      LOOP:  cpu time     32.3355: real time     32.3463

 eigenvalue-minimisations  :  7680
 total energy-change (2. order) :-0.3343322E-02  (-0.7840532E-02)
 number of electron       5.9999999 magnetization       1.4667506
 augmentation part       -0.8464134 magnetization      -0.6369445

 Broyden mixing:
  rms(total) = 0.14038E+00    rms(broyden)= 0.14037E+00
  rms(prec ) = 0.14184E+00
  weight for this iteration     100.00

 eigenvalues of (default mixing * dielectric matrix)
  average eigenvalue GAMMA=   1.1271
  5.3734  2.1821  0.4157  1.2524  1.2524  0.0378  0.4230  0.4230  0.7691  0.7691
  0.6911  0.6239  0.4395

 Free energy of the ion-electron system (eV)
  ---------------------------------------------------
  alpha Z        PSCENC =         0.00578669
  Ewald energy   TEWEN  =       -21.16206747
  -Hartree energ DENC   =      -207.93150913
  -exchange      EXHF   =         0.00000000
  -V(xc)+E(xc)   XCENC  =        11.27919860
  PAW double counting   =        99.79348325      -96.59307614
  entropy T*S    EENTRO =        -0.00639406
  eigenvalues    EBANDS =       -63.04474422
  atomic energy  EATOM  =       276.81840277
  Solvation  Ediel_sol  =         0.00000000
  ---------------------------------------------------
  free energy    TOTEN  =        -0.84091973 eV

  energy without entropy =       -0.83452567  energy(sigma->0) =       -0.83772270


--------------------------------------------------------------------------------------------------------




--------------------------------------- Iteration      1(  19)  ---------------------------------------


    POTLOK:  cpu time      0.7369: real time      0.7395
    SETDIJ:  cpu time      0.0035: real time      0.0035
     EDDAV:  cpu time     30.1457: real time     30.1482
       DOS:  cpu time      0.0067: real time      0.0067
    CHARGE:  cpu time      1.7153: real time      1.7196
    MIXING:  cpu time      0.0349: real time      0.0349
    --------------------------------------------
      LOOP:  cpu time     32.6429: real time     32.6523

 eigenvalue-minimisations  :  7808
 total energy-change (2. order) :-0.1253700E-01  (-0.6114211E-02)
 number of electron       5.9999999 magnetization       1.5025266
 augmentation part       -0.8463918 magnetization      -0.6010979

 Broyden mixing:
  rms(total) = 0.16396E+00    rms(broyden)= 0.16395E+00
  rms(prec ) = 0.16566E+00
  weight for this iteration     100.00

 eigenvalues of (default mixing * dielectric matrix)
  average eigenvalue GAMMA=   1.2149
  6.0197  2.3742  1.5673  0.4157  1.2500  1.2500  0.0378  0.4228  0.4228  0.8149
  0.8149  0.6219  0.5705  0.4261

 Free energy of the ion-electron system (eV)
  ---------------------------------------------------
  alpha Z        PSCENC =         0.00578669
  Ewald energy   TEWEN  =       -21.16206747
  -Hartree energ DENC   =      -207.90677248
  -exchange      EXHF   =         0.00000000
  -V(xc)+E(xc)   XCENC  =        11.26599817
  PAW double counting   =        99.82331770      -96.62298956
  entropy T*S    EENTRO =        -0.00600084
  eigenvalues    EBANDS =       -63.06913170
  atomic energy  EATOM  =       276.81840277
  Solvation  Ediel_sol  =         0.00000000
  ---------------------------------------------------
  free energy    TOTEN  =        -0.85345673 eV

  energy without entropy =       -0.84745589  energy(sigma->0) =       -0.85045631


--------------------------------------------------------------------------------------------------------




--------------------------------------- Iteration      1(  20)  ---------------------------------------


    POTLOK:  cpu time      0.7291: real time      0.7350
    SETDIJ:  cpu time      0.0066: real time      0.0066
     EDDAV:  cpu time     30.2017: real time     30.2045
       DOS:  cpu time      0.0061: real time      0.0061
    CHARGE:  cpu time      1.7330: real time      1.7363
    MIXING:  cpu time      0.0355: real time      0.0355
    --------------------------------------------
      LOOP:  cpu time     32.7120: real time     32.7240

 eigenvalue-minimisations  :  7840
 total energy-change (2. order) :-0.5765168E-03  (-0.5600648E-02)
 number of electron       5.9999999 magnetization       1.5368746
 augmentation part       -0.8463729 magnetization      -0.5667399

 Broyden mixing:
  rms(total) = 0.12242E+00    rms(broyden)= 0.12241E+00
  rms(prec ) = 0.12369E+00
  weight for this iteration     100.00

 eigenvalues of (default mixing * dielectric matrix)
  average eigenvalue GAMMA=   1.2487
  6.6194  2.7618  1.6856  0.4157  1.2491  1.2491  0.0378  0.4227  0.4227  0.8395
  0.8395  0.7046  0.6162  0.5244  0.3428

 Free energy of the ion-electron system (eV)
  ---------------------------------------------------
  alpha Z        PSCENC =         0.00578669
  Ewald energy   TEWEN  =       -21.16206747
  -Hartree energ DENC   =      -207.88069102
  -exchange      EXHF   =         0.00000000
  -V(xc)+E(xc)   XCENC  =        11.26328176
  PAW double counting   =        99.85420926      -96.65453229
  entropy T*S    EENTRO =        -0.00669536
  eigenvalues    EBANDS =       -63.09172758
  atomic energy  EATOM  =       276.81840277
  Solvation  Ediel_sol  =         0.00000000
  ---------------------------------------------------
  free energy    TOTEN  =        -0.85403325 eV

  energy without entropy =       -0.84733789  energy(sigma->0) =       -0.85068557


--------------------------------------------------------------------------------------------------------




--------------------------------------- Iteration      1(  21)  ---------------------------------------


    POTLOK:  cpu time      0.7579: real time      0.7583
    SETDIJ:  cpu time      0.0020: real time      0.0020
     EDDAV:  cpu time     29.7532: real time     29.7566
       DOS:  cpu time      0.0013: real time      0.0013
    CHARGE:  cpu time      1.7932: real time      1.8023
    MIXING:  cpu time      0.0360: real time      0.0360
    --------------------------------------------
      LOOP:  cpu time     32.3435: real time     32.3565

 eigenvalue-minimisations  :  7680
 total energy-change (2. order) :-0.7170266E-02  (-0.7645778E-03)
 number of electron       5.9999999 magnetization       1.5766241
 augmentation part       -0.8463804 magnetization      -0.5269759

 Broyden mixing:
  rms(total) = 0.25771E-01    rms(broyden)= 0.25762E-01
  rms(prec ) = 0.26028E-01
  weight for this iteration     100.00

 eigenvalues of (default mixing * dielectric matrix)
  average eigenvalue GAMMA=   1.4121
  8.0404  3.6010  1.7964  0.4157  1.5186  1.1233  1.1233  1.0505  0.0378  0.4227
  0.4227  0.8456  0.6617  0.6115  0.5626  0.3591

 Free energy of the ion-electron system (eV)
  ---------------------------------------------------
  alpha Z        PSCENC =         0.00578669
  Ewald energy   TEWEN  =       -21.16206747
  -Hartree energ DENC   =      -207.87202687
  -exchange      EXHF   =         0.00000000
  -V(xc)+E(xc)   XCENC  =        11.25523710
  PAW double counting   =        99.85522397      -96.65549306
  entropy T*S    EENTRO =        -0.00767191
  eigenvalues    EBANDS =       -63.09859473
  atomic energy  EATOM  =       276.81840277
  Solvation  Ediel_sol  =         0.00000000
  ---------------------------------------------------
  free energy    TOTEN  =        -0.86120351 eV

  energy without entropy =       -0.85353160  energy(sigma->0) =       -0.85736756


--------------------------------------------------------------------------------------------------------




--------------------------------------- Iteration      1(  22)  ---------------------------------------


    POTLOK:  cpu time      0.7274: real time      0.7340
    SETDIJ:  cpu time      0.0025: real time      0.0025
     EDDAV:  cpu time     29.7366: real time     29.7396
       DOS:  cpu time      0.0022: real time      0.0022
    CHARGE:  cpu time      1.8170: real time      1.8253
    MIXING:  cpu time      0.0352: real time      0.0352
    --------------------------------------------
      LOOP:  cpu time     32.3210: real time     32.3388

 eigenvalue-minimisations  :  7680
 total energy-change (2. order) :-0.8852388E-02  (-0.2927584E-03)
 number of electron       5.9999999 magnetization       1.6395070
 augmentation part       -0.8463897 magnetization      -0.4640845

 Broyden mixing:
  rms(total) = 0.47081E-01    rms(broyden)= 0.47080E-01
  rms(prec ) = 0.47570E-01
  weight for this iteration     100.00

 eigenvalues of (default mixing * dielectric matrix)
  average eigenvalue GAMMA=   1.4944
  9.1369  4.1351  2.1947  0.4157  1.2957  1.2957  1.1343  1.1343  0.0378  0.4227
  0.4227  0.7957  0.7957  0.6411  0.6033  0.5819  0.3610

 Free energy of the ion-electron system (eV)
  ---------------------------------------------------
  alpha Z        PSCENC =         0.00578669
  Ewald energy   TEWEN  =       -21.16206747
  -Hartree energ DENC   =      -207.85855520
  -exchange      EXHF   =         0.00000000
  -V(xc)+E(xc)   XCENC  =        11.24608061
  PAW double counting   =        99.85406999      -96.65437415
  entropy T*S    EENTRO =        -0.00757400
  eigenvalues    EBANDS =       -63.11182512
  atomic energy  EATOM  =       276.81840277
  Solvation  Ediel_sol  =         0.00000000
  ---------------------------------------------------
  free energy    TOTEN  =        -0.87005590 eV

  energy without entropy =       -0.86248190  energy(sigma->0) =       -0.86626890


--------------------------------------------------------------------------------------------------------




--------------------------------------- Iteration      1(  23)  ---------------------------------------


    POTLOK:  cpu time      0.7354: real time      0.7358
    SETDIJ:  cpu time      0.0021: real time      0.0021
     EDDAV:  cpu time     29.6883: real time     29.6916
       DOS:  cpu time      0.0019: real time      0.0019
    CHARGE:  cpu time      1.8256: real time      1.8333
    MIXING:  cpu time      0.0384: real time      0.0384
    --------------------------------------------
      LOOP:  cpu time     32.2918: real time     32.3031

 eigenvalue-minimisations  :  7584
 total energy-change (2. order) :-0.5146613E-03  (-0.4025188E-03)
 number of electron       5.9999999 magnetization       1.7026573
 augmentation part       -0.8464060 magnetization      -0.4009164

 Broyden mixing:
  rms(total) = 0.34502E-01    rms(broyden)= 0.34499E-01
  rms(prec ) = 0.34858E-01
  weight for this iteration     100.00

 eigenvalues of (default mixing * dielectric matrix)
  average eigenvalue GAMMA=   1.5501
  9.7555  4.5013  2.3710  0.4157  1.3909  1.3909  1.2087  1.2087  1.0524  0.0378
  0.4227  0.4227  0.7669  0.7669  0.6492  0.6119  0.5679  0.3608

 Free energy of the ion-electron system (eV)
  ---------------------------------------------------
  alpha Z        PSCENC =         0.00578669
  Ewald energy   TEWEN  =       -21.16206747
  -Hartree energ DENC   =      -207.84691561
  -exchange      EXHF   =         0.00000000
  -V(xc)+E(xc)   XCENC  =        11.24579776
  PAW double counting   =        99.84242453      -96.64260104
  entropy T*S    EENTRO =        -0.00763975
  eigenvalues    EBANDS =       -63.12375843
  atomic energy  EATOM  =       276.81840277
  Solvation  Ediel_sol  =         0.00000000
  ---------------------------------------------------
  free energy    TOTEN  =        -0.87057056 eV

  energy without entropy =       -0.86293081  energy(sigma->0) =       -0.86675069


--------------------------------------------------------------------------------------------------------




--------------------------------------- Iteration      1(  24)  ---------------------------------------


    POTLOK:  cpu time      0.7294: real time      0.7339
    SETDIJ:  cpu time      0.0019: real time      0.0019
     EDDAV:  cpu time     30.0568: real time     30.0594
       DOS:  cpu time      0.0013: real time      0.0013
    CHARGE:  cpu time      1.8003: real time      1.8109
    MIXING:  cpu time      0.0386: real time      0.0386
    --------------------------------------------
      LOOP:  cpu time     32.6283: real time     32.6460

 eigenvalue-minimisations  :  7648
 total energy-change (2. order) :-0.2718122E-02  (-0.1179945E-03)
 number of electron       5.9999999 magnetization       1.7558383
 augmentation part       -0.8464136 magnetization      -0.3477245

 Broyden mixing:
  rms(total) = 0.13262E-01    rms(broyden)= 0.13260E-01
  rms(prec ) = 0.13394E-01
  weight for this iteration     100.00

 eigenvalues of (default mixing * dielectric matrix)
  average eigenvalue GAMMA=   1.6411
 10.6970  5.0373  2.8327  2.0191  0.4157  1.2975  1.2975  1.1426  1.1426  0.0378
  0.4227  0.4227  0.7678  0.7327  0.7327  0.6471  0.6171  0.5579  0.3606

 Free energy of the ion-electron system (eV)
  ---------------------------------------------------
  alpha Z        PSCENC =         0.00578669
  Ewald energy   TEWEN  =       -21.16206747
  -Hartree energ DENC   =      -207.83777631
  -exchange      EXHF   =         0.00000000
  -V(xc)+E(xc)   XCENC  =        11.24299512
  PAW double counting   =        99.83624721      -96.63636948
  entropy T*S    EENTRO =        -0.00770215
  eigenvalues    EBANDS =       -63.13280506
  atomic energy  EATOM  =       276.81840277
  Solvation  Ediel_sol  =         0.00000000
  ---------------------------------------------------
  free energy    TOTEN  =        -0.87328868 eV

  energy without entropy =       -0.86558654  energy(sigma->0) =       -0.86943761


--------------------------------------------------------------------------------------------------------




--------------------------------------- Iteration      1(  25)  ---------------------------------------


    POTLOK:  cpu time      0.7405: real time      0.7410
    SETDIJ:  cpu time      0.0029: real time      0.0029
     EDDAV:  cpu time     29.5548: real time     29.5571
       DOS:  cpu time      0.0012: real time      0.0012
    CHARGE:  cpu time      1.7977: real time      1.8096
    MIXING:  cpu time      0.0377: real time      0.0377
    --------------------------------------------
      LOOP:  cpu time     32.1350: real time     32.1497

 eigenvalue-minimisations  :  7584
 total energy-change (2. order) :-0.2092861E-02  (-0.1315272E-04)
 number of electron       5.9999999 magnetization       1.8305810
 augmentation part       -0.8464089 magnetization      -0.2729690

 Broyden mixing:
  rms(total) = 0.48719E-02    rms(broyden)= 0.48714E-02
  rms(prec ) = 0.49168E-02
  weight for this iteration     100.00

 eigenvalues of (default mixing * dielectric matrix)
  average eigenvalue GAMMA=   1.7543
 12.0604  5.8894  3.4737  2.1384  0.4157  1.1397  1.1397  1.2439  1.2439  0.0378
  0.4227  0.4227  1.0256  0.7824  0.7824  0.7014  0.6309  0.6145  0.5602  0.3606

 Free energy of the ion-electron system (eV)
  ---------------------------------------------------
  alpha Z        PSCENC =         0.00578669
  Ewald energy   TEWEN  =       -21.16206747
  -Hartree energ DENC   =      -207.83822179
  -exchange      EXHF   =         0.00000000
  -V(xc)+E(xc)   XCENC  =        11.24121732
  PAW double counting   =        99.83410377      -96.63419950
  entropy T*S    EENTRO =        -0.00771183
  eigenvalues    EBANDS =       -63.13269149
  atomic energy  EATOM  =       276.81840277
  Solvation  Ediel_sol  =         0.00000000
  ---------------------------------------------------
  free energy    TOTEN  =        -0.87538154 eV

  energy without entropy =       -0.86766972  energy(sigma->0) =       -0.87152563


--------------------------------------------------------------------------------------------------------




--------------------------------------- Iteration      1(  26)  ---------------------------------------


    POTLOK:  cpu time      0.7384: real time      0.7450
    SETDIJ:  cpu time      0.0020: real time      0.0020
     EDDAV:  cpu time     30.6964: real time     30.7008
       DOS:  cpu time      0.0054: real time      0.0054
    CHARGE:  cpu time      1.8142: real time      1.8289
    MIXING:  cpu time      0.0376: real time      0.0376
    --------------------------------------------
      LOOP:  cpu time     33.2940: real time     33.3197

 eigenvalue-minimisations  :  8000
 total energy-change (2. order) :-0.6933915E-03  (-0.3290881E-05)
 number of electron       5.9999999 magnetization       1.8959121
 augmentation part       -0.8463935 magnetization      -0.2076274

 Broyden mixing:
  rms(total) = 0.97786E-02    rms(broyden)= 0.97784E-02
  rms(prec ) = 0.98782E-02
  weight for this iteration     100.00

 eigenvalues of (default mixing * dielectric matrix)
  average eigenvalue GAMMA=   1.8797
 13.5126  6.6910  3.8372  2.1809  1.8811  0.4157  1.2762  1.2762  1.1104  1.1104
  0.0378  0.4227  0.4227  0.8826  0.7759  0.7759  0.6905  0.5593  0.6410  0.6133
  0.3606

 Free energy of the ion-electron system (eV)
  ---------------------------------------------------
  alpha Z        PSCENC =         0.00578669
  Ewald energy   TEWEN  =       -21.16206747
  -Hartree energ DENC   =      -207.84482996
  -exchange      EXHF   =         0.00000000
  -V(xc)+E(xc)   XCENC  =        11.24098079
  PAW double counting   =        99.83486440      -96.63492211
  entropy T*S    EENTRO =        -0.00770731
  eigenvalues    EBANDS =       -63.12658271
  atomic energy  EATOM  =       276.81840277
  Solvation  Ediel_sol  =         0.00000000
  ---------------------------------------------------
  free energy    TOTEN  =        -0.87607493 eV

  energy without entropy =       -0.86836762  energy(sigma->0) =       -0.87222128


--------------------------------------------------------------------------------------------------------




--------------------------------------- Iteration      1(  27)  ---------------------------------------


    POTLOK:  cpu time      0.7323: real time      0.7348
    SETDIJ:  cpu time      0.0224: real time      0.0224
     EDDAV:  cpu time     29.7514: real time     29.7537
       DOS:  cpu time      0.0891: real time      0.0891
    CHARGE:  cpu time      1.8392: real time      1.8612
    MIXING:  cpu time      0.0440: real time      0.0440
    --------------------------------------------
      LOOP:  cpu time     32.4785: real time     32.5053

 eigenvalue-minimisations  :  7648
 total energy-change (2. order) : 0.4552229E-03  (-0.7828351E-05)
 number of electron       5.9999999 magnetization       1.9339924
 augmentation part       -0.8463916 magnetization      -0.1695416

 Broyden mixing:
  rms(total) = 0.65454E-02    rms(broyden)= 0.65451E-02
  rms(prec ) = 0.66131E-02
  weight for this iteration     100.00

 eigenvalues of (default mixing * dielectric matrix)
  average eigenvalue GAMMA=   2.0522
 16.0780  7.7736  4.2966  2.7405  2.0116  0.4157  1.2702  1.2702  1.1072  1.1072
  0.0378  0.4227  0.4227  0.9236  0.8422  0.8422  0.7065  0.7065  0.5590  0.6388
  0.6140  0.3606

 Free energy of the ion-electron system (eV)
  ---------------------------------------------------
  alpha Z        PSCENC =         0.00578669
  Ewald energy   TEWEN  =       -21.16206747
  -Hartree energ DENC   =      -207.85062315
  -exchange      EXHF   =         0.00000000
  -V(xc)+E(xc)   XCENC  =        11.24141118
  PAW double counting   =        99.83242877      -96.63245636
  entropy T*S    EENTRO =        -0.00771051
  eigenvalues    EBANDS =       -63.12079161
  atomic energy  EATOM  =       276.81840277
  Solvation  Ediel_sol  =         0.00000000
  ---------------------------------------------------
  free energy    TOTEN  =        -0.87561971 eV

  energy without entropy =       -0.86790920  energy(sigma->0) =       -0.87176446


--------------------------------------------------------------------------------------------------------




--------------------------------------- Iteration      1(  28)  ---------------------------------------


    POTLOK:  cpu time      0.7294: real time      0.7351
    SETDIJ:  cpu time      0.0168: real time      0.0168
     EDDAV:  cpu time     29.4206: real time     29.4245
       DOS:  cpu time      0.0045: real time      0.0045
    CHARGE:  cpu time      1.7962: real time      1.8151
    MIXING:  cpu time      0.0386: real time      0.0386
    --------------------------------------------
      LOOP:  cpu time     32.0062: real time     32.0347

 eigenvalue-minimisations  :  7456
 total energy-change (2. order) :-0.4410883E-04  (-0.7592326E-05)
 number of electron       5.9999999 magnetization       1.9691596
 augmentation part       -0.8463904 magnetization      -0.1343723

 Broyden mixing:
  rms(total) = 0.57076E-02    rms(broyden)= 0.57073E-02
  rms(prec ) = 0.57659E-02
  weight for this iteration     100.00

 eigenvalues of (default mixing * dielectric matrix)
  average eigenvalue GAMMA=   2.2978
 20.6364  8.8651  4.7843  3.1043  2.0295  0.4157  1.4917  1.2484  1.2484  1.0824
  1.0824  0.0378  0.4227  0.4227  0.7998  0.7998  0.8474  0.3606  0.6871  0.6871
  0.5593  0.6185  0.6185

 Free energy of the ion-electron system (eV)
  ---------------------------------------------------
  alpha Z        PSCENC =         0.00578669
  Ewald energy   TEWEN  =       -21.16206747
  -Hartree energ DENC   =      -207.85266722
  -exchange      EXHF   =         0.00000000
  -V(xc)+E(xc)   XCENC  =        11.24130821
  PAW double counting   =        99.83403145      -96.63408968
  entropy T*S    EENTRO =        -0.00771113
  eigenvalues    EBANDS =       -63.11865744
  atomic energy  EATOM  =       276.81840277
  Solvation  Ediel_sol  =         0.00000000
  ---------------------------------------------------
  free energy    TOTEN  =        -0.87566382 eV

  energy without entropy =       -0.86795269  energy(sigma->0) =       -0.87180826


--------------------------------------------------------------------------------------------------------




--------------------------------------- Iteration      1(  29)  ---------------------------------------


    POTLOK:  cpu time      0.7318: real time      0.7321
    SETDIJ:  cpu time      0.0023: real time      0.0023
     EDDAV:  cpu time     29.1205: real time     29.1287
       DOS:  cpu time      0.0045: real time      0.0045
    CHARGE:  cpu time      1.8055: real time      1.8205
    MIXING:  cpu time      0.0386: real time      0.0387
    --------------------------------------------
      LOOP:  cpu time     31.7033: real time     31.7267

 eigenvalue-minimisations  :  7424
 total energy-change (2. order) :-0.1075127E-02  (-0.1100785E-04)
 number of electron       5.9999999 magnetization       1.9890331
 augmentation part       -0.8463951 magnetization      -0.1145012

 Broyden mixing:
  rms(total) = 0.95647E-02    rms(broyden)= 0.95643E-02
  rms(prec ) = 0.96635E-02
  weight for this iteration     100.00

 eigenvalues of (default mixing * dielectric matrix)
  average eigenvalue GAMMA=   2.3938
 22.9251  9.2331  4.9746  3.3051  2.1951  0.4157  1.6073  1.3982  1.0868  1.0868
  1.1844  1.1844  0.0378  0.4227  0.4227  0.8020  0.8020  0.8206  0.3606  0.7294
  0.5584  0.6548  0.6218  0.6218

 Free energy of the ion-electron system (eV)
  ---------------------------------------------------
  alpha Z        PSCENC =         0.00578669
  Ewald energy   TEWEN  =       -21.16206747
  -Hartree energ DENC   =      -207.85024227
  -exchange      EXHF   =         0.00000000
  -V(xc)+E(xc)   XCENC  =        11.24004018
  PAW double counting   =        99.83592918      -96.63604113
  entropy T*S    EENTRO =        -0.00770744
  eigenvalues    EBANDS =       -63.12083945
  atomic energy  EATOM  =       276.81840277
  Solvation  Ediel_sol  =         0.00000000
  ---------------------------------------------------
  free energy    TOTEN  =        -0.87673895 eV

  energy without entropy =       -0.86903151  energy(sigma->0) =       -0.87288523


--------------------------------------------------------------------------------------------------------




--------------------------------------- Iteration      1(  30)  ---------------------------------------


    POTLOK:  cpu time      0.7536: real time      0.7587
    SETDIJ:  cpu time      0.0019: real time      0.0019
     EDDAV:  cpu time     29.5434: real time     29.5493
       DOS:  cpu time      0.0066: real time      0.0066
    CHARGE:  cpu time      1.7943: real time      1.8100
    MIXING:  cpu time      0.0419: real time      0.0419
    --------------------------------------------
      LOOP:  cpu time     32.1418: real time     32.1683

 eigenvalue-minimisations  :  7552
 total energy-change (2. order) :-0.5938304E-03  (-0.2106401E-06)
 number of electron       5.9999999 magnetization       1.9955978
 augmentation part       -0.8463950 magnetization      -0.1079363

 Broyden mixing:
  rms(total) = 0.62428E-02    rms(broyden)= 0.62427E-02
  rms(prec ) = 0.63078E-02
  weight for this iteration     100.00

 eigenvalues of (default mixing * dielectric matrix)
  average eigenvalue GAMMA=   2.4647
 24.8425  9.5070  5.2940  3.4979  2.5678  1.8863  0.4157  1.4234  1.2335  1.2335
  1.0920  1.0920  0.0378  0.4227  0.4227  0.8120  0.8120  0.8451  0.3606  0.7079
  0.7079  0.5577  0.6172  0.6172  0.6123

 Free energy of the ion-electron system (eV)
  ---------------------------------------------------
  alpha Z        PSCENC =         0.00578669
  Ewald energy   TEWEN  =       -21.16206747
  -Hartree energ DENC   =      -207.84944209
  -exchange      EXHF   =         0.00000000
  -V(xc)+E(xc)   XCENC  =        11.23957539
  PAW double counting   =        99.83653943      -96.63667894
  entropy T*S    EENTRO =        -0.00771071
  eigenvalues    EBANDS =       -63.12173784
  atomic energy  EATOM  =       276.81840277
  Solvation  Ediel_sol  =         0.00000000
  ---------------------------------------------------
  free energy    TOTEN  =        -0.87733278 eV

  energy without entropy =       -0.86962207  energy(sigma->0) =       -0.87347743


--------------------------------------------------------------------------------------------------------




--------------------------------------- Iteration      1(  31)  ---------------------------------------


    POTLOK:  cpu time      1.7900: real time      1.7914
    SETDIJ:  cpu time      0.0020: real time      0.0020
     EDDAV:  cpu time     29.3339: real time     29.3374
       DOS:  cpu time      0.0035: real time      0.0035
    CHARGE:  cpu time      1.8497: real time      1.8695
    MIXING:  cpu time      0.0438: real time      0.0438
    --------------------------------------------
      LOOP:  cpu time     33.0229: real time     33.0477

 eigenvalue-minimisations  :  7424
 total energy-change (2. order) :-0.4222466E-03  (-0.7598262E-05)
 number of electron       5.9999999 magnetization       1.9977490
 augmentation part       -0.8463995 magnetization      -0.1057847

 Broyden mixing:
[...]
  243          m_sumb_d                              0.028591                         20   4
  244        set_dd_magatom                        0.000000                            1   3
  245        set_dd_paw                            0.007985                            1   3
  246          set_rsgf_all                          0.000001                          1   4
  247          m_sumb_d                              0.007936                          8   4
  248        strkin                                0.037533                            1   3
  249          m_sumb_d                              0.000875                          1   4
  250        strelo                                0.011703                            1   3
  251          m_sumb_d                              0.000401                          2   4
  252        strenl                                1.124579                            1   3
  253          spher                                 0.448314                         19   4
  254          phase                                 0.000003                          9   4
  255          proj1                                 0.534833                        504   4
  256            crexp_mul_wave                        0.194213                      504   5
  257            m_sumb_d                              0.020612                      504   5
  258          m_sumb_d                              0.139701                          1   4
  259        m_sumb_d                              0.002851                            6   3
  260        fft3d_mpi                             0.278518                           22   3
  261          fftbrc_mpi                            0.269611                         22   4
  262            fftbas_plan_mpi                       0.269596                       22   5
  263              dfftw_execute                         0.077401                     66   6
  264              map_forward                           0.086998                     20   6
  265                map_gather                            0.008722                   10   7
  266                m_alltoallv_z                         0.067026                   10   7
  267                map_scatter                           0.011101                   10   7
  268              map_backward                          0.104798                     24   6
  269                map_gather                            0.014214                   12   7
  270                m_alltoallv_z                         0.080757                   12   7
  271                map_scatter                           0.009609                   12   7
  272        forhar                                0.011514                            2   3
  273          m_sumb_d                              0.000448                          2   4
  274        strehar                               0.009725                            1   3
  275          m_sumb_d                              0.000179                          1   4
  276        chggra                                0.051670                            1   3
  277          fft3d_mpi                             0.036549                          3   4
  278            fftbrc_mpi                            0.036092                        3   5
  279              fftbas_plan_mpi                       0.036089                      3   6
  280                dfftw_execute                         0.010572                    9   7
  281                map_backward                          0.006840                    2   7
  282                  map_gather                            0.001207                  1   8
  283                  m_alltoallv_z                         0.005029                  1   8
  284                  map_scatter                           0.000591                  1   8
  285                map_forward                           0.018629                    4   7
  286                  map_gather                            0.002352                  2   8
  287                  m_alltoallv_z                         0.013541                  2   8
  288                  map_scatter                           0.002718                  2   8
  289          m_sumb_d                              0.000030                          2   4
  290          pothar                                0.003883                          1   4
  291            m_sumb_d                              0.000881                        1   5
  292        brmix                                 0.127520                            1   3
  293          m_sumb_d                              0.021902                          6   4
  294          brpre                                 0.000068                          2   4
  295          setg0                                 0.002026                          1   4
  296          broyd                                 0.097716                          1   4
  297            m_sumb_d                              0.088514                       43   5
  298            brget                                 0.002800                      189   5
  299            brsav                                 0.000496                       41   5
  300          m_bcast_z                             0.000893                          1   4
  301        m_bcast_d                             0.003841                            2   3
  302      potlok                                0.727531                              1   2
  303        fft3d_mpi                             0.335268                           26   3
  304          fftbrc_mpi                            0.326146                         26   4
  305            fftbas_plan_mpi                       0.326130                       26   5
  306              dfftw_execute                         0.095501                     78   6
  307              map_forward                           0.133052                     28   6
  308                map_gather                            0.011149                   16   7
  309                m_alltoallv_z                         0.100626                   16   7
  310                map_scatter                           0.021076                   16   7
  311              map_backward                          0.097179                     24   6
  312                map_gather                            0.015628                   12   7
  313                m_alltoallv_z                         0.071627                   12   7
  314                map_scatter                           0.009729                   12   7
  315        m_sumb_d                              0.000565                            5   3
  316        pothar                                0.003982                            1   3
  317          m_sumb_d                              0.001156                          1   4
  318        m_bcast_d                             0.022819                            2   3
  319      potlok_metagga                        0.000000                              1   2
  320      set_dd_magatom                        0.000001                              1   2
  321      set_dd_paw                            0.000170                              1   2
  322        set_rsgf_all                          0.000000                            1   3
  323        m_sumb_d                              0.000149                            8   3
  324      m_alltoall_d                         97.783776                          39712   2
  325      densta                                0.003206                              1   2
  326        m_sumb_d                              0.003101                           48   3
 
 Flat profile
 ============
 
             routine name                   CPU           calls
 ---------------------------------------------------------------
 dfftw_execute                         360.725556       47244
 m_alltoall_d                          253.273360      154124
 orth1                                 169.406965       21818
 total_time                            155.369655           1
 ggemm                                 138.393669        9550
 vhamil                                 89.730944        7254
 lincom                                 49.557782          84
 m_alltoallv_z                          46.176146       15898
 fftwav_mpi                             41.109506        7328
 map_gather                             34.750158       15898
 map_scatter                            31.471467       15898
 fftext_mpi                             28.055482        7254
 set_charge                             25.194719          37
 wfinit                                 23.821769           1
 gemm                                   20.799312        7254
 m_bcast_z                              20.569547       11031
 map_forward                            18.702701       15754
 potlok                                 14.237880          38
 pdssyex_zheevx                         13.807281          82
 eccp                                   12.923521        2296
 lapack                                 12.211471        7254
 m_sumb_d                               10.267145       38455
 proj1                                  10.044692        5518
 redis_pw                                6.728621       19634
 eddav                                   6.583982          41
 work_mul_crexp                          5.138292        7254
 w1_copy                                 4.662485       21762
 crexp_mul_wave                          4.502898        5518
 hamiltmu                                2.473916        7254
 apply_precond                           2.180527        4958
 soft_charge                             1.797126          37
 kinhamil                                1.694116        7254
 setup_precond                           1.402098        2296
 m_bcast_d                               1.225666       14589
 fftbas_plan_mpi                         0.582312       15748
 pw_charge                               0.498814          74
 fft3d_mpi                               0.493129       15748
 spher                                   0.475082          20
 elmin                                   0.464152           1
 force_and_stress                        0.314063           1
 fornl                                   0.231329           1
 brmix                                   0.190543          37
 augmentation_charge                     0.172493          37
 broyd                                   0.137906          37
 pothar                                  0.123577          39
 choleski                                0.120577           2
 setdij_                                 0.102903          65
 fft_gq                                  0.088689          37
 map_backward                            0.081314       15742
 vnlac0                                  0.076556        7254
 setg0                                   0.076505          39
 redis_proj                              0.064918       24594
 brget                                   0.051677        3657
 overl1                                  0.041306        7254
 newband                                 0.039695        7336
 strkin                                  0.036658           1
 overl                                   0.023447       12214
 sphpro_fast                             0.018372           2
 w1_projall                              0.017867        4958
 orthch                                  0.017861           1
 fftbas_mpi                              0.014287       14582
 strelo                                  0.011302           1
 chggra                                  0.011208           1
 forhar                                  0.011066           2
 strehar                                 0.009546           1
 brsav                                   0.009429         858
 forloc                                  0.005021           1
 inisym                                  0.004898           1
 brgrid                                  0.004680           1
 densta                                  0.004105          42
 brpre                                   0.002630          74
 phase                                   0.002577          94
 truncate_high_frequency_w1              0.002387        9550
 stufak                                  0.002063           1
 strenl                                  0.001727           1
 depsum                                  0.000890          37
 set_dd_paw                              0.000810          39
 fftbrc_mpi                              0.000771        1166
 fewald                                  0.000276           1
 proj                                    0.000191           1
 rsp                                     0.000092           1
 fordep                                  0.000038           1
 FERMAT_RAZOR                            0.000029           1
 crpa_reader                             0.000028           1
 posmap                                  0.000022           2
 set_rsgf_all                            0.000017          39
 vectorpot                               0.000013          38
 potlok_metagga                          0.000013          38
 rcp                                     0.000005           1
 proall                                  0.000004           1
 set_dd_magatom                          0.000004          39
 redis_pw_over_bands                     0.000001           1
 rotate_active_occupied_orbital          0.000000           1
 ---------------------------------------------------------------
  summed up times     1623.632329940796     
 
 Accumulative profile
 ====================
 
             routine name                   CPU           calls
 ---------------------------------------------------------------
 total_time                           1623.632330           1
 elmin                                1319.522066           1
 eddav                                1225.842800          41
 fft3d_mpi                             492.997841       15748
 fftbas_plan_mpi                       492.489654       15748
 fftbas_mpi                            476.701620       14582
 hamiltmu                              370.103667        7254
 dfftw_execute                         360.725556       47244
 fftwav_mpi                            297.650493        7328
 m_alltoall_d                          253.273360      154124
 kinhamil                              249.934120        7254
 fftext_mpi                            248.240004        7254
 orth1                                 169.406965       21818
 ggemm                                 138.393669        9550
 newband                               116.177434        7336
 vhamil                                 89.730944        7254
 redis_pw                               86.212261       19634
 map_forward                            75.210465       15754
 set_charge                             64.857936          37
 map_backward                           55.971321       15742
 lincom                                 49.557782          84
 m_alltoallv_z                          46.176146       15898
 wfinit                                 42.760383           1
 map_gather                             34.750158       15898
 map_scatter                            31.471467       15898
 potlok                                 28.928842          38
 vnlac0                                 27.923381        7254
 gemm                                   20.799312        7254
 m_bcast_z                              20.569547       11031
 fftbrc_mpi                             15.803092        1166
 redis_proj                             15.384073       24594
 proj1                                  14.725460        5518
 w1_projall                             14.145793        4958
 pdssyex_zheevx                         13.807310          82
 eccp                                   13.296423        2296
 soft_charge                            12.366751          37
 lapack                                 12.211471        7254
 m_sumb_d                               10.267145       38455
 work_mul_crexp                          5.138292        7254
 w1_copy                                 4.662485       21762
 crexp_mul_wave                          4.502898        5518
 force_and_stress                        4.143713           1
 apply_precond                           2.180527        4958
 orthch                                  2.048960           1
 brmix                                   1.686731          37
 setup_precond                           1.438138        2296
 fft_gq                                  1.329633          37
 m_bcast_d                               1.225666       14589
 augmentation_charge                     1.160182          37
 strenl                                  1.124579           1
 pw_charge                               0.498814          74
 broyd                                   0.482144          37
 spher                                   0.475082          20
 depsum                                  0.312044          37
 fornl                                   0.238194           1
 densta                                  0.232012          42
 pothar                                  0.164461          39
 setdij_                                 0.156115          65
 choleski                                0.120577           2
 fewald                                  0.114588           1
 setg0                                   0.076505          39
 set_dd_paw                              0.074715          39
 proall                                  0.065440           1
 proj                                    0.062891           1
 brget                                   0.051677        3657
 chggra                                  0.051670           1
 overl1                                  0.041306        7254
 strkin                                  0.037533           1
 overl                                   0.023447       12214
 sphpro_fast                             0.019672           2
 fordep                                  0.011742           1
 strelo                                  0.011703           1
 forhar                                  0.011514           2
 strehar                                 0.009725           1
 brsav                                   0.009429         858
 forloc                                  0.008079           1
 inisym                                  0.004920           1
 brgrid                                  0.004680           1
 brpre                                   0.002630          74
 phase                                   0.002577          94
 truncate_high_frequency_w1              0.002387        9550
 stufak                                  0.002063           1
 rsp                                     0.000092           1
 FERMAT_RAZOR                            0.000029           1
 crpa_reader                             0.000028           1
 posmap                                  0.000022           2
 set_rsgf_all                            0.000017          39
 vectorpot                               0.000013          38
 potlok_metagga                          0.000013          38
 rcp                                     0.000005           1
 set_dd_magatom                          0.000004          39
 redis_pw_over_bands                     0.000001           1
 rotate_active_occupied_orbital          0.000000           1
 ---------------------------------------------------------------
 
Profiling took   0.369561  0.098280  0.004162  0.004110 seconds
Profiling took   0.274841 seconds
