 running  256 mpi-ranks, with    1 threads/rank, on    7 nodes
 distrk:  each k-point on  128 cores,    2 groups
 distr:  one band on    4 cores,   32 groups
 vasp.6.4.1 05Apr23 (build May 18 2023 13:19:41) complex                         
 POSCAR found type information on POSCAR S 
 POSCAR found :  1 types and       1 ions
 Reading from existing POTCAR
 -----------------------------------------------------------------------------
|                                                                             |
|           W    W    AA    RRRRR   N    N  II  N    N   GGGG   !!!           |
|           W    W   A  A   R    R  NN   N  II  NN   N  G    G  !!!           |
|           W    W  A    A  R    R  N N  N  II  N N  N  G       !!!           |
|           W WW W  AAAAAA  RRRRR   N  N N  II  N  N N  G  GGG   !            |
|           WW  WW  A    A  R   R   N   NN  II  N   NN  G    G                |
|           W    W  A    A  R    R  N    N  II  N    N   GGGG   !!!           |
|                                                                             |
|     You use a magnetic or noncollinear calculation, but did not specify     |
|     the initial magnetic moment with the MAGMOM tag. Note that a            |
|     default of 1 will be used for all atoms. This ferromagnetic setup       |
|     may break the symmetry of the crystal, in particular it may rule        |
|     out finding an antiferromagnetic solution. Thence, we recommend         |
|     setting the initial magnetic moment manually or verifying carefully     |
|     that this magnetic setup is desired.                                    |
|                                                                             |
 -----------------------------------------------------------------------------

 scaLAPACK will be used
 Reading from existing POTCAR
 LDA part: xc-table for Pade appr. of Perdew
 POSCAR, INCAR and KPOINTS ok, starting setup
 FFT: planning ... GRIDC
 FFT: planning ... GRID_SOFT
 FFT: planning ... GRID
 WAVECAR not read
 WARNING: random wavefunctions but no delay for mixing, default for NELMDL
 entering main loop
       N       E                     dE             d eps       ncg     rms          rms(c)
DAV:   1     0.396862578537E+02    0.39686E+02   -0.26294E+02  7168   0.130E+00
DAV:   2     0.997454284924E+01   -0.29712E+02   -0.26267E+02  8032   0.840E-01
DAV:   3    -0.324332321552E+00   -0.10299E+02   -0.10120E+02  8704   0.481E-01
DAV:   4    -0.654847766313E+00   -0.33052E+00   -0.32871E+00  8352   0.121E-01
DAV:   5    -0.657294765191E+00   -0.24470E-02   -0.24468E-02  8448   0.115E-02    0.278E+00
DAV:   6     0.702235905347E+00    0.13595E+01   -0.10795E+00  7584   0.621E-02    0.809E-01
DAV:   7     0.145531563660E+00   -0.55670E+00   -0.91728E-02  7712   0.187E-02    0.450E-01
DAV:   8    -0.317413381686E+00   -0.46294E+00   -0.14378E-01  7936   0.145E-02    0.316E+00
DAV:   9    -0.280098412637E+00    0.37315E-01   -0.14740E-02  7744   0.418E-03    0.162E+00
DAV:  10    -0.300072695826E+00   -0.19974E-01   -0.17342E-04  7712   0.129E-03    0.164E+00
DAV:  11    -0.296255441175E+00    0.38173E-02   -0.12001E-03  8064   0.120E-03    0.152E+00
DAV:  12    -0.382240991447E+00   -0.85986E-01   -0.24728E-01  7360   0.591E-03    0.304E+00
DAV:  13    -0.470338302771E+00   -0.88097E-01   -0.11373E-02  7360   0.678E-03    0.112E+00
DAV:  14    -0.692994982781E+00   -0.22266E+00   -0.91811E-02  7520   0.875E-03    0.210E+00
DAV:  15    -0.778230717359E+00   -0.85236E-01   -0.66759E-02  7520   0.559E-03    0.141E+00
DAV:  16    -0.823025219755E+00   -0.44795E-01   -0.47345E-02  7648   0.346E-03    0.148E+00
DAV:  17    -0.837576408478E+00   -0.14551E-01   -0.81778E-02  7680   0.311E-03    0.184E+00
DAV:  18    -0.840919730551E+00   -0.33433E-02   -0.78405E-02  7680   0.282E-03    0.140E+00
DAV:  19    -0.853456729207E+00   -0.12537E-01   -0.61142E-02  7808   0.233E-03    0.164E+00
DAV:  20    -0.854033246038E+00   -0.57652E-03   -0.56006E-02  7840   0.204E-03    0.122E+00
DAV:  21    -0.861203511977E+00   -0.71703E-02   -0.76458E-03  7680   0.124E-03    0.258E-01
DAV:  22    -0.870055899608E+00   -0.88524E-02   -0.29276E-03  7680   0.757E-04    0.471E-01
DAV:  23    -0.870570560896E+00   -0.51466E-03   -0.40252E-03  7584   0.734E-04    0.345E-01
DAV:  24    -0.873288682625E+00   -0.27181E-02   -0.11799E-03  7648   0.439E-04    0.133E-01
DAV:  25    -0.875381543430E+00   -0.20929E-02   -0.13153E-04  7584   0.165E-04    0.487E-02
DAV:  26    -0.876074934942E+00   -0.69339E-03   -0.32909E-05  8000   0.129E-04    0.978E-02
DAV:  27    -0.875619712088E+00    0.45522E-03   -0.78284E-05  7648   0.172E-04    0.655E-02
DAV:  28    -0.875663820918E+00   -0.44109E-04   -0.75923E-05  7456   0.190E-04    0.571E-02
DAV:  29    -0.876738948191E+00   -0.10751E-02   -0.11008E-04  7424   0.183E-04    0.956E-02
DAV:  30    -0.877332778636E+00   -0.59383E-03   -0.21064E-06  7552   0.775E-05    0.624E-02
DAV:  31    -0.877755025259E+00   -0.42225E-03   -0.75983E-05  7424   0.882E-05    0.519E-02
DAV:  32    -0.878109653714E+00   -0.35463E-03   -0.41648E-06  7200   0.515E-05    0.166E-02
DAV:  33    -0.878394019263E+00   -0.28437E-03   -0.47466E-06  7360   0.375E-05    0.121E-02
DAV:  34    -0.878524203394E+00   -0.13018E-03   -0.23218E-06  7488   0.250E-05    0.802E-03
DAV:  35    -0.878585794694E+00   -0.61591E-04   -0.29943E-07  7648   0.131E-05    0.270E-03
DAV:  36    -0.878623428898E+00   -0.37634E-04   -0.19590E-07  7520   0.872E-06    0.418E-03
DAV:  37    -0.878641646167E+00   -0.18217E-04   -0.17408E-07  7552   0.619E-06    0.180E-03
DAV:  38    -0.878650577376E+00   -0.89312E-05   -0.33629E-09  7712   0.358E-06    0.419E-04
DAV:  39    -0.878656680344E+00   -0.61030E-05   -0.22967E-09  7616   0.236E-06    0.953E-05
DAV:  40    -0.878659148270E+00   -0.24679E-05    0.98351E-10  7968   0.145E-06    0.269E-04
DAV:  41    -0.878660008490E+00   -0.86022E-06    0.18666E-09  8096   0.646E-07
   1 F= -.87866150E+00 E0= -.87480494E+00  d E =-.771312E-02  mag=     2.0000
 writing wavefunctions
 PROFILE, used timers:     326
