 vasp.6.4.2 20Jul23 (build Oct 12 2023 10:31:02) complex                         
 executed on              LinuxNV date 2024.11.02  01:33:00
 running  128 mpi-ranks, with    1 threads/rank, on    2 nodes
 distrk:  each k-point on   64 cores,    2 groups
 distr:  one band on NCORE=   8 cores,    8 groups


--------------------------------------------------------------------------------------------------------


 INCAR:
   ENCUT = 520.000000
   SIGMA = 0.050000
   EDIFF = 1.00e-06
   ALGO = N
   GGA = PE
   PREC = Accurate
   SYSTEM = 01_AOPT
   ICHARG = 0
   ISMEAR = 0
   ISPIN = 2
   ISTART = 1
   ISYM = -1
   KPAR = 2
   LORBIT = 11
   NBANDS = 220
   NELM = 100
   NELMIN = 5
   NPAR = 8
   LASPH = .TRUE.
   LCHARG = .FALSE.
   LWAVE = .FALSE.
   LREAL = .FALSE.

 POTCAR:    PAW_PBE Ge 05Jan2001                  
 POTCAR:    PAW_PBE Se 06Sep2000                  
 -----------------------------------------------------------------------------
|                                                                             |
|           W    W    AA    RRRRR   N    N  II  N    N   GGGG   !!!           |
|           W    W   A  A   R    R  NN   N  II  NN   N  G    G  !!!           |
|           W    W  A    A  R    R  N N  N  II  N N  N  G       !!!           |
|           W WW W  AAAAAA  RRRRR   N  N N  II  N  N N  G  GGG   !            |
|           WW  WW  A    A  R   R   N   NN  II  N   NN  G    G                |
|           W    W  A    A  R    R  N    N  II  N    N   GGGG   !!!           |
|                                                                             |
|     You use a magnetic or noncollinear calculation, but did not specify     |
|     the initial magnetic moment with the MAGMOM tag. Note that a            |
|     default of 1 will be used for all atoms. This ferromagnetic setup       |
|     may break the symmetry of the crystal, in particular it may rule        |
|     out finding an antiferromagnetic solution. Thence, we recommend         |
|     setting the initial magnetic moment manually or verifying carefully     |
|     that this magnetic setup is desired.                                    |
|                                                                             |
 -----------------------------------------------------------------------------

 POTCAR:    PAW_PBE Ge 05Jan2001                  
   VRHFIN =Ge: s2p2                                                                                 
   LEXCH  = PE                                                                                      
   EATOM  =   104.9960 eV,    7.7170 Ry                                                             
                                                                                                    
   TITEL  = PAW_PBE Ge 05Jan2001                                                                    
   LULTRA =        F    use ultrasoft PP ?                                                          
   IUNSCR =        1    unscreen: 0-lin 1-nonlin 2-no                                               
   RPACOR =    2.170    partial core radius                                                         
   POMASS =   72.610; ZVAL   =    4.000    mass and valenz                                          
   RCORE  =    2.300    outmost cutoff radius                                                       
   RWIGS  =    2.300; RWIGS  =    1.217    wigner-seitz radius (au A)                               
   ENMAX  =  173.807; ENMIN  =  130.355 eV                                                          
   ICORE  =        3    local potential                                                             
   LCOR   =        T    correct aug charges                                                         
   LPAW   =        T    paw PP                                                                      
   EAUG   =  385.843                                                                                
   DEXC   =    0.000                                                                                
   RMAX   =    2.342    core radius for proj-oper                                                   
   RAUG   =    1.300    factor for augmentation sphere                                              
   RDEP   =    2.318    radius for radial grids                                                     
   RDEPT  =    2.103    core radius for aug-charge                                                  
                                                                                                    
   Atomic configuration                                                                             
   10 entries                                                                                       
     n  l   j            E        occ.                                                              
     1  0  0.50    -10959.8463   2.0000                                                             
     2  0  0.50     -1371.6056   2.0000                                                             
     2  1  1.50     -1198.4791   6.0000                                                             
     3  0  0.50      -168.4733   2.0000                                                             
     3  1  1.50      -115.6019   6.0000                                                             
     3  2  2.50       -29.3106  10.0000                                                             
     4  0  0.50       -11.7309   2.0000                                                             
     4  1  0.50        -3.8952   2.0000                                                             
     4  2  1.50        -4.0817   0.0000                                                             
     4  3  2.50        -4.0817   0.0000                                                             
   Description                                                                                      
     l       E           TYP  RCUT    TYP  RCUT                                                     
     0    -11.7309493     23  2.300                                                                 
     0     -7.4578696     23  2.300                                                                 
     1     -3.8952261     23  2.300                                                                 
     1      6.1178114     23  2.300                                                                 
     2     -4.0817478     23  2.300                                                                 
     3     -1.3605826      7  2.300                                                                 
  local pseudopotential read in
  partial core-charges read in
  partial kinetic energy density read in
  atomic valenz-charges read in
  non local Contribution for L=            0  read in
    real space projection operators read in
  non local Contribution for L=            0  read in
    real space projection operators read in
  non local Contribution for L=            1  read in
    real space projection operators read in
  non local Contribution for L=            1  read in
    real space projection operators read in
  non local Contribution for L=            2  read in
    real space projection operators read in
    PAW grid and wavefunctions read in
 
   number of l-projection  operators is LMAX  =            5
   number of lm-projection operators is LMMAX =           13
 
 POTCAR:    PAW_PBE Se 06Sep2000                  
   VRHFIN =Se: s2p4                                                                                 
   LEXCH  = PE                                                                                      
   EATOM  =   257.1286 eV,   18.8984 Ry                                                             
                                                                                                    
   TITEL  = PAW_PBE Se 06Sep2000                                                                    
   LULTRA =        F    use ultrasoft PP ?                                                          
   IUNSCR =        1    unscreen: 0-lin 1-nonlin 2-no                                               
   RPACOR =    1.900    partial core radius                                                         
   POMASS =   78.960; ZVAL   =    6.000    mass and valenz                                          
   RCORE  =    2.100    outmost cutoff radius                                                       
   RWIGS  =    2.200; RWIGS  =    1.164    wigner-seitz radius (au A)                               
   ENMAX  =  211.555; ENMIN  =  158.666 eV                                                          
   ICORE  =        3    local potential                                                             
   LCOR   =        T    correct aug charges                                                         
   LPAW   =        T    paw PP                                                                      
   EAUG   =  446.842                                                                                
   DEXC   =    0.000                                                                                
   RMAX   =    2.147    core radius for proj-oper                                                   
   RAUG   =    1.300    factor for augmentation sphere                                              
   RDEP   =    2.177    radius for radial grids                                                     
   RDEPT  =    1.928    core radius for aug-charge                                                  
                                                                                                    
   Atomic configuration                                                                             
   10 entries                                                                                       
     n  l   j            E        occ.                                                              
     1  0  0.50    -12503.4787   2.0000                                                             
     2  0  0.50     -1606.9547   2.0000                                                             
     2  1  1.50     -1413.3140   6.0000                                                             
     3  0  0.50      -213.4885   2.0000                                                             
     3  1  1.50      -152.9538   6.0000                                                             
     3  2  2.50       -53.1221  10.0000                                                             
     4  0  0.50       -17.2865   2.0000                                                             
     4  1  0.50        -6.5110   4.0000                                                             
     4  2  2.50        -6.8029   0.0000                                                             
     4  3  2.50        -6.8029   0.0000                                                             
   Description                                                                                      
     l       E           TYP  RCUT    TYP  RCUT                                                     
     0    -17.2865377     23  2.100                                                                 
     0    -15.3094411     23  2.100                                                                 
     1     -6.5110275     23  2.100                                                                 
     1     -0.0695192     23  2.100                                                                 
     2     -6.8029130     23  2.100                                                                 
     3     -1.3605826      7  2.100                                                                 
  local pseudopotential read in
  partial core-charges read in
  partial kinetic energy density read in
  atomic valenz-charges read in
  non local Contribution for L=            0  read in
    real space projection operators read in
  non local Contribution for L=            0  read in
    real space projection operators read in
  non local Contribution for L=            1  read in
    real space projection operators read in
  non local Contribution for L=            1  read in
    real space projection operators read in
  non local Contribution for L=            2  read in
    real space projection operators read in
    PAW grid and wavefunctions read in
 
   number of l-projection  operators is LMAX  =            5
   number of lm-projection operators is LMMAX =           13
 
 -----------------------------------------------------------------------------
|                                                                             |
|               ----> ADVICE to this user running VASP <----                  |
|                                                                             |
|     You have a (more or less) 'large supercell' and for larger cells it     |
|     might be more efficient to use real-space projection operators.         |
|     Therefore, try LREAL= Auto in the INCAR file.                           |
|     Mind: For very accurate calculation, you might also keep the            |
|     reciprocal projection scheme (i.e. LREAL=.FALSE.).                      |
|                                                                             |
 -----------------------------------------------------------------------------

  PAW_PBE Ge 05Jan2001                  :
 energy of atom  1       EATOM= -104.9960
 kinetic energy error for atom=    0.0002 (will be added to EATOM!!)
  PAW_PBE Se 06Sep2000                  :
 energy of atom  2       EATOM= -257.1286
 kinetic energy error for atom=    0.0007 (will be added to EATOM!!)
 
 
 POSCAR: Ge Se
  positions in cartesian coordinates
  No initial velocities read in
 exchange correlation table for  LEXCH =        8
   RHO(1)=    0.500       N(1)  =     2000
   RHO(2)=  100.500       N(2)  =     4000
 


--------------------------------------------------------------------------------------------------------


 ion  position               nearest neighbor table
   1  0.066  0.017  0.120-  45 2.58  53 2.65  55 2.69
   2  0.234  0.865  0.385-  45 2.55  67 2.71
   3  0.574  0.210  0.371-  49 2.56  68 2.65  56 2.74
   4  0.561  0.525  0.370-  50 2.59  69 2.63  49 2.67
   5  0.562  0.882  0.382-  48 2.53  70 2.67
   6  0.889  0.186  0.384-  56 2.50  55 2.55  44 2.76
   7  0.918  0.539  0.382-  72 2.67  71 2.68  47 2.69
   8  0.888  0.855  0.367-  53 2.57  44 2.62  72 2.75
   9  0.092  0.137  0.634-  51 2.55  57 2.58  37 2.84
  10  0.067  0.453  0.599-  43 2.61  38 2.62
  11  0.039  0.852  0.605-  37 2.59  52 2.59  59 2.73
  12  0.406  0.153  0.630-  40 2.47  60 2.53  51 2.71
  13  0.374  0.494  0.636-  61 2.48  38 2.53  39 2.70
  14  0.416  0.794  0.626-  39 2.50  62 2.65  42 2.69
  15  0.716  0.173  0.645-  63 2.46  40 2.66  41 2.70
  16  0.747  0.471  0.641-  64 2.51  41 2.59  43 2.64
  17  0.230  0.541  0.375-  47 2.53  66 2.54
  18  0.222  0.168  0.369-  54 2.59  45 2.59  46 2.70
  19  0.733  0.825  0.617-  65 2.60  52 2.68  42 2.71
  20  0.903  0.644  0.864-  64 2.52  52 2.62  58 2.72
  21  0.875  0.004  0.866-  63 2.58  37 2.59  65 2.59
  22  0.050  0.341  0.135-  71 2.50  46 2.54  55 2.64
  23  0.065  0.700  0.124-  47 2.53  53 2.64  67 2.83
  24  0.395  0.061  0.127-  54 2.42  48 2.61  68 2.81
  25  0.394  0.367  0.140-  49 2.56  66 2.65  54 2.82
  26  0.741  0.031  0.151-  44 2.44  68 2.63
  27  0.746  0.377  0.109-  69 2.48  56 2.59  71 2.78
  28  0.402  0.704  0.114-  50 2.54  67 2.57  70 2.73
  29  0.225  0.329  0.875-  38 2.55  57 2.62  60 2.77
  30  0.209  0.670  0.892-  39 2.57  58 2.70  59 2.72
  31  0.252  0.964  0.892-  51 2.58  62 2.60  59 2.66
  32  0.536  0.341  0.894-  61 2.60  60 2.64  41 2.75
  33  0.577  0.644  0.865-  42 2.49  61 2.65  64 2.74
  34  0.563  0.992  0.875-  65 2.57  40 2.59  62 2.63
  35  0.908  0.313  0.877-  43 2.54  57 2.68  63 2.75
  36  0.718  0.694  0.115-  70 2.48  72 2.64
  37  0.905  0.008  0.634-  11 2.59  21 2.59   9 2.84
  38  0.241  0.342  0.646-  13 2.53  29 2.55  10 2.62
  39  0.258  0.675  0.667-  14 2.50  30 2.57  13 2.70
  40  0.559  0.028  0.645-  12 2.47  34 2.59  15 2.66
  41  0.583  0.344  0.652-  16 2.59  15 2.70  32 2.75
  42  0.588  0.665  0.642-  33 2.49  14 2.69  19 2.71
  43  0.904  0.328  0.649-  35 2.54  10 2.61  16 2.64
  44  0.751  0.014  0.370-  26 2.44   8 2.62   6 2.76
  45  0.091  0.008  0.351-   2 2.55   1 2.58  18 2.59
  46  0.079  0.330  0.362-  22 2.54  18 2.70
  47  0.082  0.676  0.350-  17 2.53  23 2.53   7 2.69
  48  0.416  0.021  0.357-   5 2.53  24 2.61
  49  0.430  0.356  0.367-  25 2.56   3 2.56   4 2.67
  50  0.424  0.679  0.340-  28 2.54   4 2.59
  51  0.248  0.007  0.664-   9 2.55  31 2.58  12 2.71
  52  0.904  0.696  0.635-  11 2.59  20 2.62  19 2.68
  53  0.925  0.858  0.139-   8 2.57  23 2.64   1 2.65
  54  0.252  0.191  0.140-  24 2.42  18 2.59  25 2.82
  55  0.922  0.174  0.158-   6 2.55  22 2.64   1 2.69
  56  0.756  0.330  0.336-   6 2.50  27 2.59   3 2.74
  57  0.077  0.180  0.861-   9 2.58  29 2.62  35 2.68
  58  0.072  0.507  0.851-  30 2.70  20 2.72
  59  0.081  0.843  0.846-  31 2.66  30 2.72  11 2.73
  60  0.395  0.187  0.854-  12 2.53  32 2.64  29 2.77
  61  0.415  0.507  0.854-  13 2.48  32 2.60  33 2.65
  62  0.418  0.840  0.859-  31 2.60  34 2.63  14 2.65
  63  0.746  0.165  0.864-  15 2.46  21 2.58  35 2.75
  64  0.751  0.510  0.862-  16 2.51  20 2.52  33 2.74
  65  0.723  0.864  0.848-  34 2.57  21 2.59  19 2.60
  66  0.242  0.516  0.148-  17 2.54  25 2.65
  67  0.246  0.836  0.143-  28 2.57   2 2.71  23 2.83
  68  0.589  0.176  0.135-  26 2.63   3 2.65  24 2.81
  69  0.593  0.502  0.137-  27 2.48   4 2.63
  70  0.578  0.832  0.148-  36 2.48   5 2.67  28 2.73
  71  0.930  0.501  0.144-  22 2.50   7 2.68  27 2.78
  72  0.758  0.678  0.349-  36 2.64   7 2.67   8 2.75
 

IMPORTANT INFORMATION: All symmetrisations will be switched off!
NOSYMM: (Re-)initialisation of all symmetry stuff for point group C_1.


----------------------------------------------------------------------------------------

                                     Primitive cell                                     

  volume of cell :    1724.0201

  direct lattice vectors                    reciprocal lattice vectors
    12.428500522 -0.000001076 -0.000002438     0.080460229  0.000000007  0.000000020
    -0.000001083 12.518734288  0.000001447     0.000000007  0.079880280 -0.000000012
    -0.000002798  0.000001649 11.080596897     0.000000018 -0.000000010  0.090247846

  length of vectors
    12.428500522 12.518734288 11.080596897     0.080460229  0.079880280  0.090247846

  position of ions in fractional coordinates (direct lattice)
     0.065809896  0.016652039  0.119963992
     0.234077616  0.865058094  0.385190042
     0.573686049  0.210479687  0.370708298
     0.560996907  0.525025229  0.370358967
     0.561813757  0.882329789  0.381893201
     0.889102917  0.186457302  0.384136867
     0.917728236  0.538628095  0.382193676
     0.887839389  0.854884315  0.366715478
     0.092388254  0.137185226  0.633766388
     0.066827357  0.452765250  0.599146549
     0.038975821  0.852049589  0.604771158
     0.406158482  0.153048240  0.629582339
     0.373680236  0.494343884  0.635784604
     0.415563867  0.794253402  0.625758902
     0.716363956  0.173072399  0.644504723
     0.746951604  0.470810344  0.640519047
     0.230388317  0.540581229  0.375230635
     0.222176976  0.168322175  0.369420340
     0.732853273  0.825384491  0.617433654
     0.902552370  0.643599957  0.863804806
     0.875281642  0.004262700  0.865561307
     0.049807061  0.340706472  0.135395896
     0.064930317  0.699942023  0.123894898
     0.395017238  0.061392710  0.127023715
     0.393690792  0.367356067  0.140115952
     0.740960004  0.030615005  0.150658240
     0.746076264  0.377375469  0.109112400
     0.402142210  0.704460093  0.114494515
     0.224855460  0.328993235  0.875050628
     0.208565485  0.670268717  0.891683930
     0.252061114  0.964222745  0.892188373
     0.535944286  0.340851529  0.894451453
     0.576654793  0.644211199  0.864732149
     0.563481793  0.992421333  0.875362015
     0.908346990  0.312982098  0.877381235
     0.718019321  0.693861026  0.115376314
     0.904525221  0.007545189  0.634365443
     0.240767041  0.342000029  0.646012356
     0.258377109  0.675122275  0.667095409
     0.559448758  0.028285719  0.644821954
     0.583214378  0.343634969  0.651677094
     0.587569622  0.664991477  0.641671239
     0.903711619  0.328322992  0.648652365
     0.751478942  0.014379999  0.370077184
     0.091374505  0.007686423  0.350504916
     0.078624207  0.330059796  0.362312667
     0.081617932  0.676366633  0.350294936
     0.416057144  0.021273560  0.356878656
     0.429652022  0.356400510  0.366854530
     0.424114570  0.678708669  0.340115342
     0.248346945  0.007425928  0.664277083
     0.904234282  0.696327613  0.634902734
     0.924965479  0.858448153  0.138504979
     0.251629132  0.191485944  0.139570109
     0.922023812  0.173716343  0.157586467
     0.756226084  0.329724351  0.336280856
     0.077112129  0.180182092  0.860992292
     0.072393986  0.506579147  0.851012685
     0.081358366  0.842686824  0.845866274
     0.394918487  0.186865406  0.853968163
     0.414859880  0.506774301  0.854449820
     0.417582285  0.840359416  0.859476849
     0.745644545  0.165124450  0.864143092
     0.750959815  0.510428841  0.862298505
     0.723216979  0.863854115  0.847758681
     0.241782013  0.516079118  0.147636087
     0.245699189  0.835729477  0.143177776
     0.589338488  0.176404374  0.134900664
     0.592727230  0.501524058  0.137111228
     0.577567092  0.831967371  0.148261383
     0.929634260  0.500600773  0.144390404
     0.757985213  0.678187747  0.348983283

  ion indices of the primitive-cell ions
   primitive index   ion index
                 1           1
                 2           2
                 3           3
                 4           4
                 5           5
                 6           6
                 7           7
                 8           8
                 9           9
                10          10
                11          11
                12          12
                13          13
                14          14
                15          15
                16          16
                17          17
                18          18
                19          19
                20          20
                21          21
                22          22
                23          23
                24          24
                25          25
                26          26
                27          27
                28          28
                29          29
                30          30
                31          31
                32          32
                33          33
                34          34
                35          35
                36          36
                37          37
                38          38
                39          39
                40          40
                41          41
                42          42
                43          43
                44          44
                45          45
                46          46
                47          47
                48          48
                49          49
                50          50
                51          51
                52          52
                53          53
                54          54
                55          55
                56          56
                57          57
                58          58
                59          59
                60          60
                61          61
                62          62
                63          63
                64          64
                65          65
                66          66
                67          67
                68          68
                69          69
                70          70
                71          71
                72          72

----------------------------------------------------------------------------------------

 
 
 KPOINTS: KPOINTS created by Atomic Simulation Env

Automatic generation of k-mesh.
 Grid dimensions read from file:
 generate k-points for:    2    2    2

 Generating k-lattice:

  Cartesian coordinates                     Fractional coordinates (reciprocal lattice)
     0.040230115  0.000000003  0.000000010     0.500000000 -0.000000000 -0.000000000
     0.000000003  0.039940140 -0.000000006     0.000000000  0.500000000  0.000000000
     0.000000009 -0.000000005  0.045123923     0.000000000  0.000000000  0.500000000

  Length of vectors
     0.040230115  0.039940140  0.045123923

  Shift w.r.t. Gamma in fractional coordinates (k-lattice)
     0.000000000  0.000000000  0.000000000

 
 Subroutine IBZKPT returns following result:
 ===========================================
 
 Found      8 irreducible k-points:
 
 Following reciprocal coordinates:
            Coordinates               Weight
  0.000000  0.000000  0.000000      1.000000
  0.500000  0.000000  0.000000      1.000000
  0.000000  0.500000  0.000000      1.000000
  0.500000  0.500000  0.000000      1.000000
  0.000000  0.000000  0.500000      1.000000
  0.500000  0.000000  0.500000      1.000000
  0.000000  0.500000  0.500000      1.000000
  0.500000  0.500000  0.500000      1.000000
 
 Following cartesian coordinates:
            Coordinates               Weight
  0.000000  0.000000  0.000000      1.000000
  0.040230  0.000000  0.000000      1.000000
  0.000000  0.039940 -0.000000      1.000000
  0.040230  0.039940  0.000000      1.000000
  0.000000 -0.000000  0.045124      1.000000
  0.040230 -0.000000  0.045124      1.000000
  0.000000  0.039940  0.045124      1.000000
  0.040230  0.039940  0.045124      1.000000
 
 -----------------------------------------------------------------------------
|                                                                             |
|           W    W    AA    RRRRR   N    N  II  N    N   GGGG   !!!           |
|           W    W   A  A   R    R  NN   N  II  NN   N  G    G  !!!           |
|           W    W  A    A  R    R  N N  N  II  N N  N  G       !!!           |
|           W WW W  AAAAAA  RRRRR   N  N N  II  N  N N  G  GGG   !            |
|           WW  WW  A    A  R   R   N   NN  II  N   NN  G    G                |
|           W    W  A    A  R    R  N    N  II  N    N   GGGG   !!!           |
|                                                                             |
|     The number of bands has been changed from the values supplied in        |
|     the INCAR file. This is a result of running the parallel version.       |
|     The orbitals not found in the WAVECAR file will be initialized with     |
|     random numbers, which is usually adequate. For correlated               |
|     calculations, however, you should redo the groundstate calculation.     |
|     I found NBANDS = 220. Now, NBANDS = 224.                                |
|                                                                             |
 -----------------------------------------------------------------------------



--------------------------------------------------------------------------------------------------------




 Dimension of arrays:
   k-points           NKPTS =      8   k-points in BZ     NKDIM =      8   number of bands    NBANDS=    224
   number of dos      NEDOS =    301   number of ions     NIONS =     72
   non local maximal  LDIM  =      5   non local SUM 2l+1 LMDIM =     13
   total plane-waves  NPLWV = 774144
   max r-space proj   IRMAX =      1   max aug-charges    IRDMAX=  24602
   dimension x,y,z NGX =    96 NGY =   96 NGZ =   84
   dimension x,y,z NGXF=   192 NGYF=  192 NGZF=  168
   support grid    NGXF=   192 NGYF=  192 NGZF=  168
   ions per type =              36  36
   NGX,Y,Z   is equivalent  to a cutoff of  12.84, 12.75, 12.60 a.u.
   NGXF,Y,Z  is equivalent  to a cutoff of  25.68, 25.50, 25.21 a.u.

 SYSTEM =  01_AOPT                                 
 POSCAR =  Ge Se                                   

 Startparameter for this run:
   NWRITE =      2    write-flag & timer
   PREC   = accura    normal or accurate (medium, high low for compatibility)
   ISTART =      0    job   : 0-new  1-cont  2-samecut
   ICHARG =      2    charge: 1-file 2-atom 10-const
   ISPIN  =      2    spin polarized calculation?
   LNONCOLLINEAR =      F non collinear calculations
   LSORBIT =      F    spin-orbit coupling
   INIWAV =      1    electr: 0-lowe 1-rand  2-diag
   LASPH  =      T    aspherical Exc in radial PAW
 Electronic Relaxation 1
   ENCUT  =  520.0 eV  38.22 Ry    6.18 a.u.  23.11 23.28 20.60*2*pi/ulx,y,z
   ENINI  =  520.0     initial cutoff
   ENAUG  =  446.8 eV  augmentation charge cutoff
   NELM   =    100;   NELMIN=  5; NELMDL=  0     # of ELM steps 
   EDIFF  = 0.1E-05   stopping-criterion for ELM
   LREAL  =      F    real-space projection
   NLSPLINE    = F    spline interpolate recip. space projectors
   LCOMPAT=      F    compatible to vasp.4.4
   GGA_COMPAT  = T    GGA compatible to vasp.4.4-vasp.4.6
   LMAXPAW     = -100 max onsite density
   LMAXMIX     =    2 max onsite mixed and CHGCAR
   VOSKOWN=      0    Vosko Wilk Nusair interpolation
   ROPT   =    0.00000   0.00000
 Ionic relaxation
   EDIFFG = 0.1E-04   stopping-criterion for IOM
   NSW    =      0    number of steps for IOM
   NBLOCK =      1;   KBLOCK =      1    inner block; outer block 
   IBRION =     -1    ionic relax: 0-MD 1-quasi-New 2-CG
   NFREE  =      0    steps in history (QN), initial steepest desc. (CG)
   ISIF   =      2    stress and relaxation
   IWAVPR =     10    prediction:  0-non 1-charg 2-wave 3-comb
   ISYM   =     -1    0-nonsym 1-usesym 2-fastsym
   LCORR  =      T    Harris-Foulkes like correction to forces

   POTIM  = 0.5000    time-step for ionic-motion
   TEIN   =    0.0    initial temperature
   TEBEG  =    0.0;   TEEND  =   0.0 temperature during run
   SMASS  =  -3.00    Nose mass-parameter (am)
   estimated Nose-frequenzy (Omega)   =  0.10E-29 period in steps = 0.13E+47 mass=  -0.353E-26a.u.
   SCALEE = 1.0000    scale energy and forces
   NPACO  =    256;   APACO  = 10.0  distance and # of slots for P.C.
   PSTRESS=    0.0 pullay stress

  Mass of Ions in am
   POMASS =  72.61 78.96
  Ionic Valenz
   ZVAL   =   4.00  6.00
  Atomic Wigner-Seitz radii
   RWIGS  =  -1.00 -1.00
  virtual crystal weights 
   VCA    =   1.00  1.00
   NELECT =     360.0000    total number of electrons
   NUPDOWN=      -1.0000    fix difference up-down

 DOS related values:
   EMIN   =  10.00;   EMAX   =-10.00  energy-range for DOS
   EFERMI =   0.00;   METHOD = LEGACY      
   ISMEAR =     0;   SIGMA  =   0.05  broadening in eV -4-tet -1-fermi 0-gaus

 Electronic relaxation 2 (details)
   IALGO  =     38    algorithm
   LDIAG  =      T    sub-space diagonalisation (order eigenvalues)
   LSUBROT=      F    optimize rotation matrix (better conditioning)
   TURBO    =      0    0=normal 1=particle mesh
   IRESTART =      0    0=no restart 2=restart with 2 vectors
   NREBOOT  =      0    no. of reboots
   NMIN     =      0    reboot dimension
   EREF     =   0.00    reference energy to select bands
   IMIX   =      4    mixing-type and parameters
     AMIX     =   0.40;   BMIX     =  1.00
     AMIX_MAG =   1.60;   BMIX_MAG =  1.00
     AMIN     =   0.10
     WC   =   100.;   INIMIX=   1;  MIXPRE=   1;  MAXMIX= -45

 Intra band minimization:
   WEIMIN = 0.0000     energy-eigenvalue tresh-hold
   EBREAK =  0.11E-08  absolut break condition
   DEPER  =   0.30     relativ break condition  

   TIME   =   0.40     timestep for ELM

  volume/ion in A,a.u.               =      23.94       161.59
  Fermi-wavevector in a.u.,A,eV,Ry     =   0.971244  1.835385 12.834571  0.943314
  Thomas-Fermi vector in A             =   2.101445
 
 Write flags
   LWAVE        =      F    write WAVECAR
   LDOWNSAMPLE  =      F    k-point downsampling of WAVECAR
   LCHARG       =      F    write CHGCAR
   LVTOT        =      F    write LOCPOT, total local potential
   LVHAR        =      F    write LOCPOT, Hartree potential only
   LELF         =      F    write electronic localiz. function (ELF)
   LORBIT       =     11    0 simple, 1 ext, 2 COOP (PROOUT), +10 PAW based schemes


 Dipole corrections
   LMONO  =      F    monopole corrections only (constant potential shift)
   LDIPOL =      F    correct potential (dipole corrections)
   IDIPOL =      0    1-x, 2-y, 3-z, 4-all directions 
   EPSILON=  1.0000000 bulk dielectric constant

 Exchange correlation treatment:
   GGA     =    PE    GGA type
   LEXCH   =     8    internal setting for exchange type
   LIBXC   =     F    Libxc                    
   VOSKOWN =     0    Vosko Wilk Nusair interpolation
   LHFCALC =     F    Hartree Fock is set to
   LHFONE  =     F    Hartree Fock one center treatment
   AEXX    =    0.0000 exact exchange contribution

 Linear response parameters
   LEPSILON=     F    determine dielectric tensor
   LRPA    =     F    only Hartree local field effects (RPA)
   LNABLA  =     F    use nabla operator in PAW spheres
   LVEL    =     F    velocity operator in full k-point grid
   CSHIFT  =0.1000    complex shift for real part using Kramers Kronig
   OMEGAMAX=  -1.0    maximum frequency
   DEG_THRESHOLD= 0.2000000E-02 threshold for treating states as degnerate
   RTIME   =   -0.100 relaxation time in fs
  (WPLASMAI=    0.000 imaginary part of plasma frequency in eV, 0.658/RTIME)
   DFIELD  = 0.0000000 0.0000000 0.0000000 field for delta impulse in time
 
  Optional k-point grid parameters
   LKPOINTS_OPT  =     F    use optional k-point grid
   KPOINTS_OPT_MODE=     1    mode for optional k-point grid
 
 Orbital magnetization related:
   ORBITALMAG=     F  switch on orbital magnetization
   LCHIMAG   =     F  perturbation theory with respect to B field
   DQ        =  0.001000  dq finite difference perturbation B field
   LLRAUG    =     F  two centre corrections for induced B field
   LBONE     =     F  B-component reconstruction in AE one-centre
   LVGVCALC  =     T  calculate vGv susceptibility
   LVGVAPPL  =     F  apply vGv susceptibility instead of pGv for G=0

 Random number generation:
   RANDOM_GENERATOR = DEFAULT
   PCG_SEED         = not used


--------------------------------------------------------------------------------------------------------


 Static calculation
 charge density and potential will be updated during run
 spin polarized calculation
 Variant of blocked Davidson
 Davidson routine will perform the subspace rotation
 perform sub-space diagonalisation
    after iterative eigenvector-optimisation
 modified Broyden-mixing scheme, WC =      100.0
 initial mixing is a Kerker type mixing with AMIX =  0.4000 and BMIX =      1.0000
 Hartree-type preconditioning will be used
 using additional bands            44
 reciprocal scheme for non local part
 use partial core corrections
 calculate Harris-corrections to forces 
   (improved forces if not selfconsistent)
 use gradient corrections 
 use of overlap-Matrix (Vanderbilt PP)
 Gauss-broadening in eV      SIGMA  =   0.05


--------------------------------------------------------------------------------------------------------


  energy-cutoff  :      520.00
  volume of cell :     1724.02
      direct lattice vectors                 reciprocal lattice vectors
    12.428500522 -0.000001076 -0.000002438     0.080460229  0.000000007  0.000000020
    -0.000001083 12.518734288  0.000001447     0.000000007  0.079880280 -0.000000012
    -0.000002798  0.000001649 11.080596897     0.000000018 -0.000000010  0.090247846

  length of vectors
    12.428500522 12.518734288 11.080596897     0.080460229  0.079880280  0.090247846


 
 k-points in units of 2pi/SCALE and weight: KPOINTS created by Atomic Simulation Env
   0.00000000  0.00000000  0.00000000       0.125
   0.04023011  0.00000000  0.00000001       0.125
   0.00000000  0.03994014 -0.00000001       0.125
   0.04023012  0.03994014  0.00000000       0.125
   0.00000001 -0.00000001  0.04512392       0.125
   0.04023012 -0.00000000  0.04512393       0.125
   0.00000001  0.03994013  0.04512392       0.125
   0.04023013  0.03994014  0.04512393       0.125
 
 k-points in reciprocal lattice and weights: KPOINTS created by Atomic Simulation Env
   0.00000000  0.00000000  0.00000000       0.125
   0.50000000  0.00000000  0.00000000       0.125
   0.00000000  0.50000000  0.00000000       0.125
   0.50000000  0.50000000  0.00000000       0.125
   0.00000000  0.00000000  0.50000000       0.125
   0.50000000  0.00000000  0.50000000       0.125
   0.00000000  0.50000000  0.50000000       0.125
   0.50000000  0.50000000  0.50000000       0.125
 
 position of ions in fractional coordinates (direct lattice) 
   0.06580990  0.01665204  0.11996399
   0.23407762  0.86505809  0.38519004
   0.57368605  0.21047969  0.37070830
   0.56099691  0.52502523  0.37035897
   0.56181376  0.88232979  0.38189320
   0.88910292  0.18645730  0.38413687
   0.91772824  0.53862809  0.38219368
   0.88783939  0.85488432  0.36671548
   0.09238825  0.13718523  0.63376639
   0.06682736  0.45276525  0.59914655
   0.03897582  0.85204959  0.60477116
   0.40615848  0.15304824  0.62958234
   0.37368024  0.49434388  0.63578460
   0.41556387  0.79425340  0.62575890
   0.71636396  0.17307240  0.64450472
   0.74695160  0.47081034  0.64051905
   0.23038832  0.54058123  0.37523063
   0.22217698  0.16832217  0.36942034
   0.73285327  0.82538449  0.61743365
   0.90255237  0.64359996  0.86380481
   0.87528164  0.00426270  0.86556131
   0.04980706  0.34070647  0.13539590
   0.06493032  0.69994202  0.12389490
   0.39501724  0.06139271  0.12702372
   0.39369079  0.36735607  0.14011595
   0.74096000  0.03061501  0.15065824
   0.74607626  0.37737547  0.10911240
   0.40214221  0.70446009  0.11449452
   0.22485546  0.32899323  0.87505063
   0.20856548  0.67026872  0.89168393
   0.25206111  0.96422274  0.89218837
   0.53594429  0.34085153  0.89445145
   0.57665479  0.64421120  0.86473215
   0.56348179  0.99242133  0.87536202
   0.90834699  0.31298210  0.87738124
   0.71801932  0.69386103  0.11537631
   0.90452522  0.00754519  0.63436544
   0.24076704  0.34200003  0.64601236
   0.25837711  0.67512227  0.66709541
   0.55944876  0.02828572  0.64482195
   0.58321438  0.34363497  0.65167709
   0.58756962  0.66499148  0.64167124
   0.90371162  0.32832299  0.64865237
   0.75147894  0.01438000  0.37007718
   0.09137451  0.00768642  0.35050492
   0.07862421  0.33005980  0.36231267
   0.08161793  0.67636663  0.35029494
   0.41605714  0.02127356  0.35687866
   0.42965202  0.35640051  0.36685453
   0.42411457  0.67870867  0.34011534
   0.24834694  0.00742593  0.66427708
   0.90423428  0.69632761  0.63490273
   0.92496548  0.85844815  0.13850498
   0.25162913  0.19148594  0.13957011
   0.92202381  0.17371634  0.15758647
   0.75622608  0.32972435  0.33628086
   0.07711213  0.18018209  0.86099229
   0.07239399  0.50657915  0.85101269
   0.08135837  0.84268682  0.84586627
   0.39491849  0.18686541  0.85396816
   0.41485988  0.50677430  0.85444982
   0.41758229  0.84035942  0.85947685
   0.74564455  0.16512445  0.86414309
   0.75095981  0.51042884  0.86229851
   0.72321698  0.86385412  0.84775868
   0.24178201  0.51607912  0.14763609
   0.24569919  0.83572948  0.14317778
   0.58933849  0.17640437  0.13490066
   0.59272723  0.50152406  0.13711123
   0.57756709  0.83196737  0.14826138
   0.92963426  0.50060077  0.14439040
   0.75798521  0.67818775  0.34898328
 
 position of ions in cartesian coordinates  (Angst):
   0.81791797  0.20846258  1.32927250
   2.90923175 10.82943280  4.26813627
   7.13005609  2.63493927  4.10766812
   6.97234874  6.57265135  4.10379781
   6.98250055 11.04565220  4.23160453
  11.05021479  2.33420910  4.25646388
  11.40598421  6.74294164  4.23493260
  11.03451036 10.70206924  4.06342546
   1.14824554  1.71738634  7.02250985
   0.83056168  5.66804878  6.63890189
   0.48440840 10.66658336  6.70122655
   5.04793898  1.91597085  6.97614734
   4.64428270  6.18856038  7.04487272
   5.16483313  9.94304789  6.93378228
   8.90332781  2.16664767  7.14149554
   9.28348610  5.89394985  7.09733223
   2.86337969  6.76739314  4.15777963
   2.76132545  2.10718095  4.09339758
   9.10826466 10.33276936  6.84153284
  11.21736949  8.05705730  9.57147159
  10.87843591  0.05336410  9.59093380
   0.61902633  4.26521397  1.50026771
   0.80698537  8.76238834  1.37283028
   4.90947152  0.76855881  1.40749771
   4.89298542  4.59883280  1.55256795
   9.20902134  0.38326057  1.66938147
   9.27260852  4.72426260  1.20902925
   4.99802359  8.81894848  1.26866761
   2.79461340  4.11858009  9.69608321
   2.59215302  8.39091721  9.88039065
   3.13273815 12.07084954  9.88598050
   6.66098097  4.26703063  9.91105518
   7.16695128  8.06470963  9.58174789
   7.00323023 12.42385981  9.69953369
  11.28938824  3.91814019  9.72190603
   8.92390242  8.68626124  1.27843768
  11.24189040  0.09445629  7.02914556
   2.99237112  4.28140830  7.15820241
   3.21123744  8.45167719  7.39181567
   6.95310734  0.35410186  7.14501082
   7.24847801  4.30187531  7.22097026
   7.30260684  8.32485204  7.11009987
  11.23177816  4.11018839  7.18745366
   9.33975537  0.18001918  4.10067428
   1.13564709  0.09622477  3.88380347
   0.97717963  4.13193139  4.01464090
   1.01438680  8.46725464  3.88147776
   5.17096542  0.26631818  3.95442754
   5.33992897  4.46168343  4.06496663
   5.27110647  8.49657360  3.76868095
   3.08657827  0.09296405  7.36058599
  11.23827372  8.71714044  7.03510007
  11.49593263 10.74668356  1.53471683
   3.12737221  2.39716162  1.54651978
  11.45937280  2.17470801  1.74615013
   9.39875498  4.12773128  3.72619124
   0.95838553  2.25565306  9.54030859
   0.89974576  6.34173106  9.42972908
   1.01115921 10.54937375  9.37270423
   4.90824202  2.33931935  9.46247628
   5.15608330  6.34417378  9.46781374
   5.18991834 10.52023720  9.52351671
   9.26724103  2.06714974  9.57521969
   9.33330149  6.38992365  9.55478105
   8.98849929 10.81436075  9.39367170
   3.00498691  6.46065733  1.63589612
   3.05367119 10.46227523  1.58649584
   7.32459314  2.20835908  1.49477870
   7.36670976  6.27844600  1.51927353
   7.17829159 10.41517808  1.64282442
  11.55395893  6.26688730  1.59993032
   9.42061790  8.49005196  3.86694222
 


--------------------------------------------------------------------------------------------------------


 k-point   1 :   0.0000 0.0000 0.0000  plane waves:   46389
 k-point   2 :   0.5000 0.0000 0.0000  plane waves:   46450
 k-point   3 :   0.0000 0.5000 0.0000  plane waves:   46366
 k-point   4 :   0.5000 0.5000 0.0000  plane waves:   46472
 k-point   5 :   0.0000 0.0000 0.5000  plane waves:   46470
 k-point   6 :   0.5000 0.0000 0.5000  plane waves:   46396
 k-point   7 :   0.0000 0.5000 0.5000  plane waves:   46444
 k-point   8 :   0.5000 0.5000 0.5000  plane waves:   46392

 maximum and minimum number of plane-waves per node :      5852     5746

 maximum number of plane-waves:     46472
 maximum index in each direction: 
   IXMAX=   23   IYMAX=   23   IZMAX=   20
   IXMIN=  -23   IYMIN=  -23   IZMIN=  -21


 parallel 3D FFT for wavefunctions:
    minimum data exchange during FFTs selected (reduces bandwidth)
 parallel 3D FFT for charge:
    minimum data exchange during FFTs selected (reduces bandwidth)


 total amount of memory used by VASP MPI-rank0   111004. kBytes
=======================================================================

   base      :      30000. kBytes
   nonl-proj :      16422. kBytes
   fftplans  :       6180. kBytes
   grid      :      15593. kBytes
   one-center:        146. kBytes
   wavefun   :      42663. kBytes
 
     INWAV:  cpu time      0.0000: real time      0.0001
 Broyden mixing: mesh for mixing (old mesh)
   NGX = 47   NGY = 47   NGZ = 41
  (NGX  =192   NGY  =192   NGZ  =168)
  gives a total of  90569 points

 initial charge density was supplied:
 charge density of overlapping atoms calculated
 number of electron     360.0000000 magnetization      72.0000000
 keeping initial charge density in first step


--------------------------------------------------------------------------------------------------------


 Maximum index for augmentation-charges           815 (set IRDMAX)


--------------------------------------------------------------------------------------------------------


 First call to EWALD:  gamma=   0.148
 Maximum number of real-space cells 3x 3x 3
 Maximum number of reciprocal cells 3x 3x 3

    FEWALD:  cpu time      0.0092: real time      0.0093


--------------------------------------- Ionic step        1  -------------------------------------------




--------------------------------------- Iteration      1(   1)  ---------------------------------------


    POTLOK:  cpu time      0.1399: real time      0.1409
    SETDIJ:  cpu time      0.5981: real time      0.6000
     EDDAV:  cpu time      8.6370: real time      8.6881
       DOS:  cpu time      0.0016: real time      0.0016
    --------------------------------------------
      LOOP:  cpu time      9.3766: real time      9.4306

 eigenvalue-minimisations  :  7168
 total energy-change (2. order) : 0.1816533E+04  (-0.1419218E+05)
 number of electron     360.0000000 magnetization      72.0000000
 augmentation part      360.0000000 magnetization      72.0000000

 Free energy of the ion-electron system (eV)
  ---------------------------------------------------
  alpha Z        PSCENC =       796.10447712
  Ewald energy   TEWEN  =    -12844.42453485
  -Hartree energ DENC   =     -1125.06304654
  -exchange      EXHF   =         0.00000000
  -V(xc)+E(xc)   XCENC  =      -293.68571330
  PAW double counting   =     10738.42099860    -9719.93139476
  entropy T*S    EENTRO =        -0.01598121
  eigenvalues    EBANDS =      1228.67697133
  atomic energy  EATOM  =     13036.45147835
  Solvation  Ediel_sol  =         0.00000000
  ---------------------------------------------------
  free energy    TOTEN  =      1816.53325475 eV

  energy without entropy =     1816.54923596  energy(sigma->0) =     1816.54124535


--------------------------------------------------------------------------------------------------------




--------------------------------------- Iteration      1(   2)  ---------------------------------------


     EDDAV:  cpu time      9.7880: real time      9.8425
       DOS:  cpu time      0.0012: real time      0.0012
    --------------------------------------------
      LOOP:  cpu time      9.7891: real time      9.8437

 eigenvalue-minimisations  :  8496
 total energy-change (2. order) :-0.1881088E+04  (-0.1807079E+04)
 number of electron     360.0000000 magnetization      72.0000000
 augmentation part      360.0000000 magnetization      72.0000000

 Free energy of the ion-electron system (eV)
  ---------------------------------------------------
  alpha Z        PSCENC =       796.10447712
  Ewald energy   TEWEN  =    -12844.42453485
  -Hartree energ DENC   =     -1125.06304654
  -exchange      EXHF   =         0.00000000
  -V(xc)+E(xc)   XCENC  =      -293.68571330
  PAW double counting   =     10738.42099860    -9719.93139476
  entropy T*S    EENTRO =        -0.01620913
  eigenvalues    EBANDS =      -652.41092892
  atomic energy  EATOM  =     13036.45147835
  Solvation  Ediel_sol  =         0.00000000
  ---------------------------------------------------
  free energy    TOTEN  =       -64.55487343 eV

  energy without entropy =      -64.53866430  energy(sigma->0) =      -64.54676886


--------------------------------------------------------------------------------------------------------




--------------------------------------- Iteration      1(   3)  ---------------------------------------


     EDDAV:  cpu time      9.8779: real time      9.9491
       DOS:  cpu time      0.0010: real time      0.0010
    --------------------------------------------
      LOOP:  cpu time      9.8790: real time      9.9501

 eigenvalue-minimisations  :  8600
 total energy-change (2. order) :-0.2173426E+03  (-0.2114569E+03)
 number of electron     360.0000000 magnetization      72.0000000
 augmentation part      360.0000000 magnetization      72.0000000

 Free energy of the ion-electron system (eV)
  ---------------------------------------------------
  alpha Z        PSCENC =       796.10447712
  Ewald energy   TEWEN  =    -12844.42453485
  -Hartree energ DENC   =     -1125.06304654
  -exchange      EXHF   =         0.00000000
  -V(xc)+E(xc)   XCENC  =      -293.68571330
  PAW double counting   =     10738.42099860    -9719.93139476
  entropy T*S    EENTRO =        -0.00014106
  eigenvalues    EBANDS =      -869.76964224
  atomic energy  EATOM  =     13036.45147835
  Solvation  Ediel_sol  =         0.00000000
  ---------------------------------------------------
  free energy    TOTEN  =      -281.89751868 eV

  energy without entropy =     -281.89737762  energy(sigma->0) =     -281.89744815


--------------------------------------------------------------------------------------------------------




--------------------------------------- Iteration      1(   4)  ---------------------------------------


     EDDAV:  cpu time      9.9824: real time     10.0396
       DOS:  cpu time      0.0011: real time      0.0011
    --------------------------------------------
      LOOP:  cpu time      9.9835: real time     10.0407

 eigenvalue-minimisations  :  8752
 total energy-change (2. order) :-0.7841375E+01  (-0.7751688E+01)
 number of electron     360.0000000 magnetization      72.0000000
 augmentation part      360.0000000 magnetization      72.0000000

 Free energy of the ion-electron system (eV)
  ---------------------------------------------------
  alpha Z        PSCENC =       796.10447712
  Ewald energy   TEWEN  =    -12844.42453485
  -Hartree energ DENC   =     -1125.06304654
  -exchange      EXHF   =         0.00000000
  -V(xc)+E(xc)   XCENC  =      -293.68571330
  PAW double counting   =     10738.42099860    -9719.93139476
  entropy T*S    EENTRO =        -0.00001562
  eigenvalues    EBANDS =      -877.61114274
  atomic energy  EATOM  =     13036.45147835
  Solvation  Ediel_sol  =         0.00000000
  ---------------------------------------------------
  free energy    TOTEN  =      -289.73889374 eV

  energy without entropy =     -289.73887811  energy(sigma->0) =     -289.73888593


--------------------------------------------------------------------------------------------------------




--------------------------------------- Iteration      1(   5)  ---------------------------------------


     EDDAV:  cpu time     10.2844: real time     10.3443
       DOS:  cpu time      0.0020: real time      0.0020
    CHARGE:  cpu time      0.4164: real time      0.4241
    MIXING:  cpu time      0.0070: real time      0.0071
    --------------------------------------------
      LOOP:  cpu time     10.7098: real time     10.7774

 eigenvalue-minimisations  :  9072
 total energy-change (2. order) :-0.2873651E+00  (-0.2865488E+00)
 number of electron     359.9999991 magnetization      48.8197155
 augmentation part      -66.7729725 magnetization      49.0329274

 Broyden mixing:
  rms(total) = 0.29143E+01    rms(broyden)= 0.29143E+01
  rms(prec ) = 0.30698E+01
  weight for this iteration     100.00

 Free energy of the ion-electron system (eV)
  ---------------------------------------------------
  alpha Z        PSCENC =       796.10447712
  Ewald energy   TEWEN  =    -12844.42453485
  -Hartree energ DENC   =     -1125.06304654
  -exchange      EXHF   =         0.00000000
  -V(xc)+E(xc)   XCENC  =      -293.68571330
  PAW double counting   =     10738.42099860    -9719.93139476
  entropy T*S    EENTRO =        -0.00001716
  eigenvalues    EBANDS =      -877.89850627
  atomic energy  EATOM  =     13036.45147835
  Solvation  Ediel_sol  =         0.00000000
  ---------------------------------------------------
  free energy    TOTEN  =      -290.02625881 eV

  energy without entropy =     -290.02624165  energy(sigma->0) =     -290.02625023


--------------------------------------------------------------------------------------------------------




--------------------------------------- Iteration      1(   6)  ---------------------------------------


    POTLOK:  cpu time      0.1367: real time      0.1383
    SETDIJ:  cpu time      0.6062: real time      0.6082
     EDDAV:  cpu time      9.2783: real time      9.3329
       DOS:  cpu time      0.0011: real time      0.0011
    CHARGE:  cpu time      0.4236: real time      0.4256
    MIXING:  cpu time      0.0073: real time      0.0073
    --------------------------------------------
      LOOP:  cpu time     10.4531: real time     10.5135

 eigenvalue-minimisations  :  7904
 total energy-change (2. order) : 0.4721641E+00  (-0.2666437E+01)
 number of electron     359.9999992 magnetization      27.9682868
 augmentation part      -66.1675924 magnetization      29.1523095

 Broyden mixing:
  rms(total) = 0.17243E+01    rms(broyden)= 0.17243E+01
  rms(prec ) = 0.17613E+01
  weight for this iteration     100.00

 eigenvalues of (default mixing * dielectric matrix)
  average eigenvalue GAMMA=   1.0079
  1.0079

 Free energy of the ion-electron system (eV)
  ---------------------------------------------------
  alpha Z        PSCENC =       796.10447712
  Ewald energy   TEWEN  =    -12844.42453485
  -Hartree energ DENC   =     -1178.20797912
  -exchange      EXHF   =         0.00000000
  -V(xc)+E(xc)   XCENC  =      -287.09176055
  PAW double counting   =     13030.93671694   -12015.98651326
  entropy T*S    EENTRO =        -0.00000607
  eigenvalues    EBANDS =      -827.33597330
  atomic energy  EATOM  =     13036.45147835
  Solvation  Ediel_sol  =         0.00000000
  ---------------------------------------------------
  free energy    TOTEN  =      -289.55409474 eV

  energy without entropy =     -289.55408867  energy(sigma->0) =     -289.55409171


--------------------------------------------------------------------------------------------------------




--------------------------------------- Iteration      1(   7)  ---------------------------------------


    POTLOK:  cpu time      0.1313: real time      0.1320
    SETDIJ:  cpu time      0.6087: real time      0.6104
     EDDAV:  cpu time      9.3648: real time      9.4136
       DOS:  cpu time      0.0010: real time      0.0010
    CHARGE:  cpu time      0.4201: real time      0.4219
    MIXING:  cpu time      0.0073: real time      0.0073
    --------------------------------------------
      LOOP:  cpu time     10.5331: real time     10.5862

 eigenvalue-minimisations  :  7984
 total energy-change (2. order) :-0.7453136E+01  (-0.8855936E+00)
 number of electron     359.9999991 magnetization       9.1603242
 augmentation part      -66.1534259 magnetization       9.8309989

 Broyden mixing:
  rms(total) = 0.91075E+00    rms(broyden)= 0.91075E+00
  rms(prec ) = 0.92722E+00
  weight for this iteration     100.00

 eigenvalues of (default mixing * dielectric matrix)
  average eigenvalue GAMMA=   1.4606
  0.8636  2.0577

 Free energy of the ion-electron system (eV)
  ---------------------------------------------------
  alpha Z        PSCENC =       796.10447712
  Ewald energy   TEWEN  =    -12844.42453485
  -Hartree energ DENC   =     -1195.01755535
  -exchange      EXHF   =         0.00000000
  -V(xc)+E(xc)   XCENC  =      -290.01744469
  PAW double counting   =     15129.61733840   -14116.31576428
  entropy T*S    EENTRO =        -0.00000000
  eigenvalues    EBANDS =      -813.40522581
  atomic energy  EATOM  =     13036.45147835
  Solvation  Ediel_sol  =         0.00000000
  ---------------------------------------------------
  free energy    TOTEN  =      -297.00723110 eV

  energy without entropy =     -297.00723110  energy(sigma->0) =     -297.00723110


--------------------------------------------------------------------------------------------------------




--------------------------------------- Iteration      1(   8)  ---------------------------------------


    POTLOK:  cpu time      0.1309: real time      0.1316
    SETDIJ:  cpu time      0.6092: real time      0.6112
     EDDAV:  cpu time      9.5310: real time      9.5817
       DOS:  cpu time      0.0008: real time      0.0008
    CHARGE:  cpu time      0.4127: real time      0.4143
    MIXING:  cpu time      0.0084: real time      0.0084
    --------------------------------------------
      LOOP:  cpu time     10.6930: real time     10.7482

 eigenvalue-minimisations  :  8160
 total energy-change (2. order) :-0.3228520E+01  (-0.1760015E+00)
 number of electron     359.9999991 magnetization       4.2976011
 augmentation part      -66.1672198 magnetization       4.6009554

 Broyden mixing:
  rms(total) = 0.32535E+00    rms(broyden)= 0.32535E+00
  rms(prec ) = 0.33056E+00
  weight for this iteration     100.00

 eigenvalues of (default mixing * dielectric matrix)
  average eigenvalue GAMMA=   1.3649
  2.5099  0.9260  0.6588

 Free energy of the ion-electron system (eV)
  ---------------------------------------------------
  alpha Z        PSCENC =       796.10447712
  Ewald energy   TEWEN  =    -12844.42453485
  -Hartree energ DENC   =     -1199.42297146
  -exchange      EXHF   =         0.00000000
  -V(xc)+E(xc)   XCENC  =      -289.71701286
  PAW double counting   =     16923.50443409   -15911.15595182
  entropy T*S    EENTRO =        -0.00000000
  eigenvalues    EBANDS =      -811.57566938
  atomic energy  EATOM  =     13036.45147835
  Solvation  Ediel_sol  =         0.00000000
  ---------------------------------------------------
  free energy    TOTEN  =      -300.23575081 eV

  energy without entropy =     -300.23575081  energy(sigma->0) =     -300.23575081


--------------------------------------------------------------------------------------------------------




--------------------------------------- Iteration      1(   9)  ---------------------------------------


    POTLOK:  cpu time      0.1304: real time      0.1311
    SETDIJ:  cpu time      0.6058: real time      0.6106
     EDDAV:  cpu time     10.3153: real time     10.3674
       DOS:  cpu time      0.0008: real time      0.0008
    CHARGE:  cpu time      0.4209: real time      0.4228
    MIXING:  cpu time      0.0078: real time      0.0078
    --------------------------------------------
      LOOP:  cpu time     11.4810: real time     11.5406

 eigenvalue-minimisations  :  9064
 total energy-change (2. order) :-0.3778508E+00  (-0.4287475E-01)
 number of electron     359.9999991 magnetization       2.2940593
 augmentation part      -66.2041879 magnetization       2.4426052

 Broyden mixing:
  rms(total) = 0.14709E+00    rms(broyden)= 0.14709E+00
  rms(prec ) = 0.14869E+00
  weight for this iteration     100.00

 eigenvalues of (default mixing * dielectric matrix)
  average eigenvalue GAMMA=   1.3289
  2.6364  1.2240  0.8336  0.6217

 Free energy of the ion-electron system (eV)
  ---------------------------------------------------
  alpha Z        PSCENC =       796.10447712
  Ewald energy   TEWEN  =    -12844.42453485
  -Hartree energ DENC   =     -1198.54958814
  -exchange      EXHF   =         0.00000000
  -V(xc)+E(xc)   XCENC  =      -289.74136861
  PAW double counting   =     17214.77188711   -16202.76837752
  entropy T*S    EENTRO =        -0.00000000
  eigenvalues    EBANDS =      -812.45757511
  atomic energy  EATOM  =     13036.45147835
  Solvation  Ediel_sol  =         0.00000000
  ---------------------------------------------------
  free energy    TOTEN  =      -300.61360164 eV

  energy without entropy =     -300.61360164  energy(sigma->0) =     -300.61360164


--------------------------------------------------------------------------------------------------------




--------------------------------------- Iteration      1(  10)  ---------------------------------------


    POTLOK:  cpu time      0.1331: real time      0.1339
    SETDIJ:  cpu time      0.6061: real time      0.6080
     EDDAV:  cpu time      9.4972: real time      9.5453
       DOS:  cpu time      0.0009: real time      0.0009
    CHARGE:  cpu time      0.4166: real time      0.4183
    MIXING:  cpu time      0.0077: real time      0.0077
    --------------------------------------------
      LOOP:  cpu time     10.6617: real time     10.7141

 eigenvalue-minimisations  :  8160
 total energy-change (2. order) :-0.9685017E-01  (-0.8781428E-02)
 number of electron     359.9999991 magnetization       0.7555273
 augmentation part      -66.2031288 magnetization       0.8230076

 Broyden mixing:
  rms(total) = 0.73424E-01    rms(broyden)= 0.73424E-01
  rms(prec ) = 0.74488E-01
  weight for this iteration     100.00

 eigenvalues of (default mixing * dielectric matrix)
  average eigenvalue GAMMA=   1.3761
  2.7014  1.7589  0.9685  0.8254  0.6266

 Free energy of the ion-electron system (eV)
  ---------------------------------------------------
  alpha Z        PSCENC =       796.10447712
  Ewald energy   TEWEN  =    -12844.42453485
  -Hartree energ DENC   =     -1198.88200018
  -exchange      EXHF   =         0.00000000
  -V(xc)+E(xc)   XCENC  =      -289.73194294
  PAW double counting   =     17219.04397313   -16207.05615222
  entropy T*S    EENTRO =        -0.00000000
  eigenvalues    EBANDS =      -812.21575022
  atomic energy  EATOM  =     13036.45147835
  Solvation  Ediel_sol  =         0.00000000
  ---------------------------------------------------
  free energy    TOTEN  =      -300.71045181 eV

  energy without entropy =     -300.71045181  energy(sigma->0) =     -300.71045181


--------------------------------------------------------------------------------------------------------




--------------------------------------- Iteration      1(  11)  ---------------------------------------


    POTLOK:  cpu time      0.1304: real time      0.1312
    SETDIJ:  cpu time      0.6067: real time      0.6087
     EDDAV:  cpu time     10.1156: real time     10.1665
       DOS:  cpu time      0.0008: real time      0.0008
    CHARGE:  cpu time      0.4198: real time      0.4218
    MIXING:  cpu time      0.0077: real time      0.0078
    --------------------------------------------
      LOOP:  cpu time     11.2812: real time     11.3368

 eigenvalue-minimisations  :  8824
 total energy-change (2. order) :-0.3149166E-01  (-0.3520314E-02)
 number of electron     359.9999991 magnetization       0.1893567
 augmentation part      -66.1891012 magnetization       0.2087398

 Broyden mixing:
  rms(total) = 0.28571E-01    rms(broyden)= 0.28571E-01
  rms(prec ) = 0.29042E-01
  weight for this iteration     100.00

 eigenvalues of (default mixing * dielectric matrix)
  average eigenvalue GAMMA=   1.4028
  2.9002  2.1687  1.1621  0.8579  0.7039  0.6237

 Free energy of the ion-electron system (eV)
  ---------------------------------------------------
  alpha Z        PSCENC =       796.10447712
  Ewald energy   TEWEN  =    -12844.42453485
  -Hartree energ DENC   =     -1199.97745659
  -exchange      EXHF   =         0.00000000
  -V(xc)+E(xc)   XCENC  =      -289.69358961
  PAW double counting   =     17140.43751530   -16128.42017715
  entropy T*S    EENTRO =        -0.00000000
  eigenvalues    EBANDS =      -811.21965604
  atomic energy  EATOM  =     13036.45147835
  Solvation  Ediel_sol  =         0.00000000
  ---------------------------------------------------
  free energy    TOTEN  =      -300.74194347 eV

  energy without entropy =     -300.74194347  energy(sigma->0) =     -300.74194347


--------------------------------------------------------------------------------------------------------




--------------------------------------- Iteration      1(  12)  ---------------------------------------


    POTLOK:  cpu time      0.1328: real time      0.1354
    SETDIJ:  cpu time      0.6053: real time      0.6074
     EDDAV:  cpu time      9.9275: real time      9.9799
       DOS:  cpu time      0.0008: real time      0.0008
    CHARGE:  cpu time      0.4196: real time      0.4216
    MIXING:  cpu time      0.0080: real time      0.0080
    --------------------------------------------
      LOOP:  cpu time     11.0939: real time     11.1531

 eigenvalue-minimisations  :  8608
 total energy-change (2. order) :-0.3484494E-02  (-0.4740612E-03)
 number of electron     359.9999991 magnetization       0.0597642
 augmentation part      -66.1890240 magnetization       0.0644958

 Broyden mixing:
  rms(total) = 0.10666E-01    rms(broyden)= 0.10666E-01
  rms(prec ) = 0.11254E-01
  weight for this iteration     100.00

 eigenvalues of (default mixing * dielectric matrix)
  average eigenvalue GAMMA=   1.3679
  3.0097  2.3266  1.2026  0.8858  0.8858  0.6093  0.6556

 Free energy of the ion-electron system (eV)
  ---------------------------------------------------
  alpha Z        PSCENC =       796.10447712
  Ewald energy   TEWEN  =    -12844.42453485
  -Hartree energ DENC   =     -1200.05610487
  -exchange      EXHF   =         0.00000000
  -V(xc)+E(xc)   XCENC  =      -289.69655163
  PAW double counting   =     17105.00869217   -16092.96842856
  entropy T*S    EENTRO =        -0.00000000
  eigenvalues    EBANDS =      -811.16445569
  atomic energy  EATOM  =     13036.45147835
  Solvation  Ediel_sol  =         0.00000000
  ---------------------------------------------------
  free energy    TOTEN  =      -300.74542797 eV

  energy without entropy =     -300.74542797  energy(sigma->0) =     -300.74542797


--------------------------------------------------------------------------------------------------------




--------------------------------------- Iteration      1(  13)  ---------------------------------------


    POTLOK:  cpu time      0.1325: real time      0.1332
    SETDIJ:  cpu time      0.6092: real time      0.6108
     EDDAV:  cpu time     10.8945: real time     10.9503
       DOS:  cpu time      0.0007: real time      0.0007
    CHARGE:  cpu time      0.4202: real time      0.4222
    MIXING:  cpu time      0.0080: real time      0.0080
    --------------------------------------------
      LOOP:  cpu time     12.0650: real time     12.1252

 eigenvalue-minimisations  :  9800
 total energy-change (2. order) :-0.1445415E-03  (-0.6067103E-04)
 number of electron     359.9999991 magnetization       0.0156796
 augmentation part      -66.1904150 magnetization       0.0165433

 Broyden mixing:
  rms(total) = 0.43206E-02    rms(broyden)= 0.43206E-02
  rms(prec ) = 0.45221E-02
  weight for this iteration     100.00

 eigenvalues of (default mixing * dielectric matrix)
  average eigenvalue GAMMA=   1.3466
  3.0588  2.4265  1.0924  1.0924  0.9782  0.8643  0.6503  0.6099

 Free energy of the ion-electron system (eV)
  ---------------------------------------------------
  alpha Z        PSCENC =       796.10447712
  Ewald energy   TEWEN  =    -12844.42453485
  -Hartree energ DENC   =     -1199.96137207
  -exchange      EXHF   =         0.00000000
  -V(xc)+E(xc)   XCENC  =      -289.70601912
  PAW double counting   =     17091.72248095   -16079.67132661
  entropy T*S    EENTRO =        -0.00000000
  eigenvalues    EBANDS =      -811.26075629
  atomic energy  EATOM  =     13036.45147835
  Solvation  Ediel_sol  =         0.00000000
  ---------------------------------------------------
  free energy    TOTEN  =      -300.74557251 eV

  energy without entropy =     -300.74557251  energy(sigma->0) =     -300.74557251


--------------------------------------------------------------------------------------------------------




--------------------------------------- Iteration      1(  14)  ---------------------------------------


    POTLOK:  cpu time      0.1299: real time      0.1305
    SETDIJ:  cpu time      0.6111: real time      0.6129
     EDDAV:  cpu time      9.6719: real time      9.7237
       DOS:  cpu time      0.0012: real time      0.0012
    CHARGE:  cpu time      0.4122: real time      0.4141
    MIXING:  cpu time      0.0087: real time      0.0088
    --------------------------------------------
      LOOP:  cpu time     10.8349: real time     10.8912

 eigenvalue-minimisations  :  8280
 total energy-change (2. order) :-0.1817723E-04  (-0.9401431E-05)
 number of electron     359.9999991 magnetization       0.0048496
 augmentation part      -66.1900301 magnetization       0.0051796

 Broyden mixing:
  rms(total) = 0.16390E-02    rms(broyden)= 0.16390E-02
  rms(prec ) = 0.17467E-02
  weight for this iteration     100.00

 eigenvalues of (default mixing * dielectric matrix)
  average eigenvalue GAMMA=   1.3341
  3.0849  2.4551  1.4784  1.1677  0.8909  0.8909  0.7828  0.6132  0.6430

 Free energy of the ion-electron system (eV)
  ---------------------------------------------------
  alpha Z        PSCENC =       796.10447712
  Ewald energy   TEWEN  =    -12844.42453485
  -Hartree energ DENC   =     -1199.96695516
  -exchange      EXHF   =         0.00000000
  -V(xc)+E(xc)   XCENC  =      -289.70652022
  PAW double counting   =     17087.23561755   -16075.18153896
  entropy T*S    EENTRO =        -0.00000000
  eigenvalues    EBANDS =      -811.25761452
  atomic energy  EATOM  =     13036.45147835
  Solvation  Ediel_sol  =         0.00000000
  ---------------------------------------------------
  free energy    TOTEN  =      -300.74559069 eV

  energy without entropy =     -300.74559069  energy(sigma->0) =     -300.74559069


--------------------------------------------------------------------------------------------------------




--------------------------------------- Iteration      1(  15)  ---------------------------------------


    POTLOK:  cpu time      0.1308: real time      0.1315
    SETDIJ:  cpu time      0.6082: real time      0.6099
     EDDAV:  cpu time      9.8830: real time      9.9327
       DOS:  cpu time      0.0011: real time      0.0011
    CHARGE:  cpu time      0.4212: real time      0.4231
    MIXING:  cpu time      0.0107: real time      0.0107
    --------------------------------------------
      LOOP:  cpu time     11.0550: real time     11.1090

 eigenvalue-minimisations  :  8608
 total energy-change (2. order) :-0.3129121E-05  (-0.1584881E-05)
 number of electron     359.9999991 magnetization       0.0017226
 augmentation part      -66.1901597 magnetization       0.0019233

 Broyden mixing:
  rms(total) = 0.76634E-03    rms(broyden)= 0.76634E-03
  rms(prec ) = 0.81296E-03
  weight for this iteration     100.00

 eigenvalues of (default mixing * dielectric matrix)
  average eigenvalue GAMMA=   1.3011
  3.0948  2.4295  1.6882  1.1003  0.9595  0.9595  0.8281  0.7106  0.6204  0.6204

 Free energy of the ion-electron system (eV)
  ---------------------------------------------------
  alpha Z        PSCENC =       796.10447712
  Ewald energy   TEWEN  =    -12844.42453485
  -Hartree energ DENC   =     -1199.95597703
  -exchange      EXHF   =         0.00000000
  -V(xc)+E(xc)   XCENC  =      -289.70678015
  PAW double counting   =     17086.78862652   -16074.73380078
  entropy T*S    EENTRO =        -0.00000000
  eigenvalues    EBANDS =      -811.26908300
  atomic energy  EATOM  =     13036.45147835
  Solvation  Ediel_sol  =         0.00000000
  ---------------------------------------------------
  free energy    TOTEN  =      -300.74559382 eV

  energy without entropy =     -300.74559382  energy(sigma->0) =     -300.74559382


--------------------------------------------------------------------------------------------------------




--------------------------------------- Iteration      1(  16)  ---------------------------------------


    POTLOK:  cpu time      0.1307: real time      0.1314
    SETDIJ:  cpu time      0.6101: real time      0.6119
     EDDAV:  cpu time      6.6962: real time      6.7323
       DOS:  cpu time      0.0010: real time      0.0010
    --------------------------------------------
      LOOP:  cpu time      7.4379: real time      7.4766

 eigenvalue-minimisations  :  4840
 total energy-change (2. order) :-0.5512361E-06  (-0.1564658E-06)
 number of electron     359.9999991 magnetization       0.0017226
 augmentation part      -66.1901597 magnetization       0.0019233

 Free energy of the ion-electron system (eV)
  ---------------------------------------------------
  alpha Z        PSCENC =       796.10447712
  Ewald energy   TEWEN  =    -12844.42453485
  -Hartree energ DENC   =     -1199.95009877
  -exchange      EXHF   =         0.00000000
  -V(xc)+E(xc)   XCENC  =      -289.70705149
  PAW double counting   =     17086.73896491   -16074.68387757
  entropy T*S    EENTRO =        -0.00000000
  eigenvalues    EBANDS =      -811.27495207
  atomic energy  EATOM  =     13036.45147835
  Solvation  Ediel_sol  =         0.00000000
  ---------------------------------------------------
  free energy    TOTEN  =      -300.74559437 eV

  energy without entropy =     -300.74559437  energy(sigma->0) =     -300.74559437


--------------------------------------------------------------------------------------------------------




 average (electrostatic) potential at core
  the test charge radii are     1.1631  1.0808
  (the norm of the test charge is              1.0000)
       1 -33.5914       2 -33.7830       3 -33.4379       4 -33.4511       5 -33.6433
       6 -33.4023       7 -33.6686       8 -33.6420       9 -33.5086      10 -33.6681
      11 -33.4764      12 -33.2240      13 -33.3342      14 -33.4425      15 -33.3384
      16 -33.3338      17 -33.5348      18 -33.5294      19 -33.5719      20 -33.4513
      21 -33.3437      22 -33.3643      23 -33.5836      24 -33.3488      25 -33.5459
      26 -33.5047      27 -33.3789      28 -33.3453      29 -33.4545      30 -33.5143
      31 -33.3882      32 -33.5201      33 -33.5607      34 -33.3259      35 -33.5501
      36 -33.5511      37 -54.8842      38 -55.0465      39 -54.7767      40 -54.8185
      41 -54.7208      42 -54.9220      43 -54.9857      44 -55.1605      45 -55.0849
      46 -54.7042      47 -55.1224      48 -54.8597      49 -54.8946      50 -54.7258
      51 -54.8084      52 -54.8113      53 -54.9894      54 -54.9801      55 -54.9546
      56 -54.6987      57 -54.8122      58 -54.6841      59 -54.6387      60 -54.7050
      61 -54.9484      62 -54.8548      63 -54.8693      64 -55.0062      65 -54.8286
      66 -54.6002      67 -54.7638      68 -54.7144      69 -54.9001      70 -54.8166
      71 -54.8338      72 -54.8415
 
 
 
 E-fermi :   3.3912     XC(G=0):  -9.3661     alpha+bet : -8.8122

 Fermi energy:         3.3911614122

 spin component 1

 k-point     1 :       0.0000    0.0000    0.0000
  band No.  band energies     occupation 
      1     -10.9244      1.00000
      2     -10.6285      1.00000
      3     -10.4115      1.00000
      4     -10.3729      1.00000
      5     -10.3470      1.00000
      6     -10.2868      1.00000
      7     -10.2015      1.00000
      8     -10.1463      1.00000
      9     -10.0351      1.00000
     10      -9.9735      1.00000
     11      -9.9068      1.00000
     12      -9.8894      1.00000
     13      -9.8607      1.00000
     14      -9.8207      1.00000
     15      -9.6843      1.00000
     16      -9.6631      1.00000
     17      -9.6295      1.00000
     18      -9.5724      1.00000
     19      -9.5313      1.00000
     20      -9.5032      1.00000
     21      -9.4523      1.00000
     22      -9.4204      1.00000
     23      -9.3940      1.00000
     24      -9.3535      1.00000
     25      -9.3111      1.00000
     26      -9.2532      1.00000
     27      -9.2467      1.00000
     28      -9.1662      1.00000
     29      -9.1350      1.00000
     30      -9.1114      1.00000
     31      -9.0753      1.00000
     32      -9.0717      1.00000
     33      -9.0400      1.00000
     34      -9.0027      1.00000
     35      -8.9339      1.00000
     36      -8.9126      1.00000
     37      -5.5528      1.00000
     38      -5.4258      1.00000
     39      -5.3255      1.00000
     40      -5.2839      1.00000
     41      -5.1465      1.00000
     42      -5.1228      1.00000
     43      -5.0452      1.00000
     44      -5.0101      1.00000
     45      -4.7724      1.00000
     46      -4.7261      1.00000
     47      -4.6648      1.00000
     48      -4.6435      1.00000
     49      -4.5480      1.00000
     50      -4.4887      1.00000
     51      -4.4615      1.00000
     52      -4.4475      1.00000
     53      -4.4023      1.00000
     54      -4.3665      1.00000
     55      -4.3229      1.00000
     56      -4.3054      1.00000
     57      -4.2847      1.00000
     58      -4.2280      1.00000
     59      -4.1735      1.00000
     60      -4.1571      1.00000
     61      -4.0852      1.00000
     62      -4.0774      1.00000
     63      -3.9988      1.00000
     64      -3.9505      1.00000
     65      -3.9280      1.00000
     66      -3.8329      1.00000
     67      -3.7097      1.00000
     68      -3.6516      1.00000
     69      -3.4885      1.00000
     70      -3.4574      1.00000
     71      -2.4826      1.00000
     72      -2.3337      1.00000
     73      -1.8039      1.00000
     74      -1.6109      1.00000
     75      -1.5493      1.00000
     76      -1.5060      1.00000
     77      -1.4668      1.00000
     78      -1.4248      1.00000
     79      -1.3186      1.00000
     80      -1.3046      1.00000
     81      -1.1929      1.00000
     82      -1.1391      1.00000
     83      -1.0950      1.00000
     84      -1.0698      1.00000
     85      -1.0260      1.00000
     86      -0.8436      1.00000
     87      -0.7924      1.00000
     88      -0.7256      1.00000
     89      -0.6890      1.00000
     90      -0.6802      1.00000
     91      -0.6612      1.00000
     92      -0.5789      1.00000
     93      -0.5269      1.00000
     94      -0.2479      1.00000
     95      -0.1594      1.00000
     96      -0.1115      1.00000
     97      -0.0946      1.00000
     98      -0.0082      1.00000
     99       0.0253      1.00000
    100       0.0402      1.00000
    101       0.0969      1.00000
    102       0.1338      1.00000
    103       0.1626      1.00000
    104       0.1795      1.00000
    105       0.2117      1.00000
    106       0.2550      1.00000
    107       0.2901      1.00000
    108       0.3091      1.00000
    109       0.3600      1.00000
    110       0.3875      1.00000
    111       0.4307      1.00000
    112       0.4661      1.00000
    113       0.5068      1.00000
    114       0.5680      1.00000
    115       0.5775      1.00000
    116       0.6469      1.00000
    117       0.7070      1.00000
    118       0.7293      1.00000
    119       0.7408      1.00000
    120       0.7803      1.00000
    121       0.7963      1.00000
    122       0.8226      1.00000
    123       0.8556      1.00000
    124       0.8880      1.00000
    125       0.9578      1.00000
    126       0.9982      1.00000
    127       1.0455      1.00000
    128       1.0736      1.00000
    129       1.1236      1.00000
    130       1.1374      1.00000
    131       1.1530      1.00000
    132       1.1746      1.00000
    133       1.2346      1.00000
    134       1.2868      1.00000
    135       1.3255      1.00000
    136       1.3750      1.00000
    137       1.3810      1.00000
    138       1.4142      1.00000
    139       1.4564      1.00000
    140       1.5209      1.00000
    141       1.5431      1.00000
    142       1.5829      1.00000
    143       1.6099      1.00000
    144       1.6430      1.00000
    145       1.6938      1.00000
    146       1.7662      1.00000
    147       1.7832      1.00000
    148       1.8175      1.00000
    149       1.8558      1.00000
    150       1.8756      1.00000
[...]
   0.176E+01 -.105E+02 -.218E+02   -.190E+01 0.121E+02 0.245E+02   0.223E+00 -.195E+01 -.276E+01   -.109E-03 0.831E-04 -.280E-03
   -.190E+02 0.148E+01 0.226E+02   0.210E+02 -.229E+01 -.252E+02   -.184E+01 0.389E+00 0.296E+01   0.178E-03 0.161E-03 -.254E-04
   0.273E+01 -.648E+01 0.171E+02   -.351E+01 0.746E+01 -.189E+02   0.135E+01 -.754E+00 0.197E+01   0.306E-03 -.196E-03 0.265E-03
   -.320E+01 0.664E+01 0.368E+02   0.349E+01 -.817E+01 -.385E+02   -.844E+00 0.138E+01 0.157E+01   -.829E-04 0.158E-03 -.417E-03
   0.292E+02 -.172E+01 0.374E+02   -.311E+02 0.170E+01 -.388E+02   0.160E+01 -.528E+00 0.104E+01   -.324E-03 -.103E-03 -.341E-03
   -.268E+01 0.241E+02 0.301E+02   0.319E+01 -.257E+02 -.316E+02   0.153E+00 0.110E+01 0.166E+01   -.762E-04 0.748E-04 0.831E-04
   0.129E+02 -.963E+01 0.277E+02   -.142E+02 0.988E+01 -.289E+02   0.149E+01 -.497E+00 0.154E+01   0.264E-03 0.146E-03 -.100E-03
   -.367E+01 0.987E+01 0.391E+02   0.394E+01 -.111E+02 -.411E+02   -.348E+00 0.155E+01 0.170E+01   0.884E-04 -.864E-05 -.358E-03
   -.278E+01 -.108E+00 0.301E+02   0.274E+01 -.137E+01 -.317E+02   0.306E+00 0.154E+01 0.144E+01   -.399E-04 0.311E-03 0.470E-04
   0.173E+02 0.552E+01 -.278E+02   -.180E+02 -.522E+01 0.300E+02   0.242E+00 -.677E+00 -.182E+01   -.838E-04 -.277E-03 0.116E-03
   0.777E+01 0.525E+01 -.270E+02   -.939E+01 -.514E+01 0.283E+02   0.144E+01 -.164E-01 -.122E+01   0.823E-04 -.131E-03 0.364E-03
   -.103E+02 -.152E+02 -.296E+02   0.102E+02 0.156E+02 0.309E+02   0.227E+00 -.520E+00 -.105E+01   0.361E-03 0.272E-03 0.276E-03
   -.109E+01 -.968E+01 -.394E+02   0.937E+00 0.110E+02 0.409E+02   -.495E-01 -.981E+00 -.120E+01   0.253E-03 -.127E-03 0.389E-03
   0.612E+01 0.303E+01 -.199E+02   -.633E+01 -.211E+01 0.216E+02   -.795E-01 -.111E+01 -.167E+01   -.974E-04 0.126E-03 -.156E-03
   0.220E+02 -.174E+01 -.309E+02   -.236E+02 0.166E+01 0.329E+02   0.122E+01 0.873E-01 -.219E+01   -.340E-03 0.355E-04 0.199E-03
   0.579E+01 -.720E+01 -.363E+02   -.618E+01 0.810E+01 0.377E+02   0.255E-01 -.113E+01 -.743E+00   -.183E-03 -.690E-04 0.162E-03
   -.392E+01 0.224E+02 0.295E+02   0.430E+01 -.239E+02 -.307E+02   -.197E+00 0.151E+01 0.837E+00   -.109E-03 -.207E-06 -.117E-03
   -.102E+02 0.270E+02 0.134E+02   0.102E+02 -.285E+02 -.150E+02   -.347E+00 0.131E+01 0.167E+01   0.380E-03 -.639E-04 0.360E-05
   0.212E+02 0.135E+02 0.375E+02   -.225E+02 -.138E+02 -.395E+02   0.111E+01 0.385E-01 0.207E+01   -.370E-04 -.463E-03 -.494E-03
   0.920E+01 -.910E+01 0.200E+02   -.103E+02 0.976E+01 -.216E+02   0.725E+00 -.158E+00 0.196E+01   0.359E-03 -.258E-03 -.824E-04
   0.662E+01 0.478E+01 0.327E+02   -.739E+01 -.472E+01 -.343E+02   0.533E+00 -.750E+00 0.109E+01   -.106E-05 0.124E-03 -.349E-03
   0.842E+01 -.311E+02 -.325E+02   -.875E+01 0.328E+02 0.339E+02   -.147E+00 -.109E+01 -.882E+00   -.110E-03 0.251E-03 0.238E-03
   0.146E+01 0.208E+02 -.239E+02   -.140E+01 -.223E+02 0.257E+02   -.137E+00 0.146E+01 -.185E+01   -.157E-03 -.356E-04 -.802E-04
   0.173E+01 -.582E+01 -.800E+01   -.177E+01 0.515E+01 0.876E+01   -.230E+00 0.118E+01 -.126E+01   -.152E-03 0.390E-03 -.223E-03
   0.225E+02 0.355E+01 -.132E+02   -.238E+02 -.332E+01 0.144E+02   0.160E+01 -.446E+00 -.123E+01   -.189E-03 -.243E-03 0.173E-04
   -.187E+01 0.114E+02 -.276E+02   0.149E+01 -.124E+02 0.293E+02   0.517E+00 0.140E+01 -.116E+01   0.107E-03 -.148E-03 0.212E-04
   0.140E+02 -.112E+02 -.291E+02   -.154E+02 0.119E+02 0.311E+02   0.144E+01 -.701E+00 -.136E+01   -.161E-03 0.875E-04 -.980E-05
   -.453E+01 0.120E+02 -.195E+02   0.490E+01 -.132E+02 0.207E+02   -.206E+00 0.117E+01 -.156E+01   0.191E-04 0.793E-04 0.160E-03
   0.128E+02 -.924E+01 -.343E+02   -.141E+02 0.995E+01 0.365E+02   0.149E+01 -.302E+00 -.174E+01   0.165E-03 0.398E-04 -.669E-04
   -.806E+00 -.339E+00 -.206E+02   0.595E+00 -.812E+00 0.224E+02   -.371E-01 0.934E+00 -.162E+01   0.431E-03 -.963E-04 -.234E-03
   -.105E+02 0.288E+02 -.319E+02   0.107E+02 -.305E+02 0.335E+02   0.743E-01 0.125E+01 -.169E+01   0.376E-03 0.114E-04 0.275E-03
   0.267E+01 0.109E+01 0.249E+02   -.333E+01 -.745E+00 -.265E+02   0.107E+01 -.789E+00 0.178E+01   -.197E-04 0.236E-03 0.162E-03
   -.461E+01 -.125E+02 0.114E+02   0.439E+01 0.138E+02 -.124E+02   0.800E-01 -.113E+01 0.136E+01   0.357E-04 -.177E-03 -.361E-03
   0.820E+01 -.937E+00 0.251E+02   -.810E+01 0.194E+01 -.267E+02   -.393E+00 -.101E+01 0.212E+01   -.304E-03 -.134E-03 -.204E-03
   0.126E+02 -.134E+02 0.122E+02   -.138E+02 0.140E+02 -.137E+02   0.892E+00 0.330E+00 0.167E+01   -.355E-05 -.112E-03 -.142E-03
   0.295E+00 -.195E+02 0.181E+02   -.771E+00 0.209E+02 -.196E+02   0.478E+00 -.714E+00 0.159E+01   -.106E-03 0.127E-03 -.150E-03
   0.767E+01 -.268E+02 0.197E+02   -.795E+01 0.280E+02 -.209E+02   -.346E+00 -.805E+00 0.161E+01   0.171E-03 0.690E-04 -.374E-03
   0.149E+02 0.840E+01 -.211E+02   -.160E+02 -.836E+01 0.224E+02   0.150E+01 0.175E+00 -.162E+01   -.101E-04 0.482E-04 0.326E-03
 -----------------------------------------------------------------------------------------------
   0.170E+02 0.293E+01 -.232E+01   0.391E-13 -.639E-13 -.249E-13   -.170E+02 -.293E+01 0.232E+01   -.145E-03 -.441E-03 -.655E-03
 
 
 POSITION                                       TOTAL-FORCE (eV/Angst)
 -----------------------------------------------------------------------------------
      0.81792      0.20846      1.32927        -0.093664      0.176694     -0.025134
      2.90923     10.82943      4.26814         0.380539      0.038434     -0.520200
      7.13006      2.63494      4.10767         0.323207     -0.037995     -0.430519
      6.97235      6.57265      4.10380         0.113559      0.019037     -0.111319
      6.98250     11.04565      4.23160         0.027002     -0.438595     -0.286170
     11.05021      2.33421      4.25646         0.505435      0.219423      0.143738
     11.40598      6.74294      4.23493        -0.324258      0.074970     -0.464925
     11.03451     10.70207      4.06343        -0.017895     -0.264594     -0.123869
      1.14825      1.71739      7.02251        -0.365322      0.062805      0.195318
      0.83056      5.66805      6.63890         0.004940      0.304394      0.493568
      0.48441     10.66658      6.70123         0.125836     -0.225508      0.605716
      5.04794      1.91597      6.97615        -0.591019      0.298786     -0.232516
      4.64428      6.18856      7.04487         0.389054      0.547158     -0.581844
      5.16483      9.94305      6.93378         0.222560      0.288241      0.273428
      8.90333      2.16665      7.14150        -0.403790      0.072225     -0.547015
      9.28349      5.89395      7.09733        -0.149469      0.122509     -0.540085
      2.86338      6.76739      4.15778         0.457926     -0.258314     -0.421629
      2.76133      2.10718      4.09340        -0.073638      0.631236     -0.008533
      9.10826     10.33277      6.84153         0.003126     -0.366313      0.333788
     11.21737      8.05706      9.57147         0.595765      0.321452      0.048851
     10.87844      0.05336      9.59093         0.205678     -0.143016     -0.059293
      0.61903      4.26521      1.50027         0.615377      0.253000      0.043645
      0.80699      8.76239      1.37283         0.324288      0.175006     -0.160936
      4.90947      0.76856      1.40750         1.011191     -0.890017     -0.243184
      4.89299      4.59883      1.55257        -0.297776      0.179579      0.109814
      9.20902      0.38326      1.66938        -0.286406      0.152776     -0.751012
      9.27261      4.72426      1.20903         0.408411     -0.506958      0.041748
      4.99802      8.81895      1.26867        -0.147038     -0.323858     -0.072192
      2.79461      4.11858      9.69608         0.008562     -0.304107      0.036824
      2.59215      8.39092      9.88039        -0.359437     -0.021528     -0.219438
      3.13274     12.07085      9.88598        -0.324084      0.053785     -0.070450
      6.66098      4.26703      9.91106        -0.013147     -0.319866     -0.553971
      7.16695      8.06471      9.58175         0.003224      0.009498      0.220004
      7.00323     12.42386      9.69953        -0.223673      0.071366     -0.055106
     11.28939      3.91814      9.72191         0.080976     -0.297341     -0.074227
      8.92390      8.68626      1.27844         0.170906     -0.416070      0.393814
     11.24189      0.09446      7.02915         0.569801      0.225128      0.169423
      2.99237      4.28141      7.15820        -0.561657     -0.147807     -0.153863
      3.21124      8.45168      7.39182        -0.304279     -0.547326     -0.441716
      6.95311      0.35410      7.14501         0.659388     -0.527411      0.170957
      7.24848      4.30188      7.22097         0.202774     -0.252465      0.324988
      7.30261      8.32485      7.11010        -0.080721      0.309272     -0.319977
     11.23178      4.11019      7.18745         0.265620      0.063163     -0.074353
      9.33976      0.18002      4.10067        -0.407485     -0.378890      0.347601
      1.13565      0.09622      3.88380        -0.169724      0.090774      0.124704
      0.97718      4.13193      4.01464         0.120147     -0.130556      0.238558
      1.01439      8.46725      3.88148        -0.206250      0.326407      0.284175
      5.17097      0.26632      3.95443        -0.295488     -0.196722      0.008881
      5.33993      4.46168      4.06497        -0.302277      0.010391     -0.269027
      5.27111      8.49657      3.76868        -0.363692     -0.228216      0.669113
      3.08658      0.09296      7.36059         0.186191      0.026737     -0.374017
     11.23827      8.71714      7.03510        -0.349521     -0.147698      0.091759
     11.49593     10.74668      1.53472        -0.170389     -0.269472      0.057315
      3.12737      2.39716      1.54652        -0.344790      0.497416      0.369701
     11.45937      2.17471      1.74615        -0.231181     -0.690553     -0.483776
      9.39875      4.12773      3.72619        -0.477755      0.543190      0.493396
      0.95839      2.25565      9.54031        -0.070714     -0.009993     -0.052624
      0.89975      6.34173      9.42973        -0.270803      0.518286     -0.501231
      1.01116     10.54937      9.37270         0.352813     -0.216000     -0.026448
      4.90824      2.33932      9.46248         0.129166      0.380834      0.499107
      5.15608      6.34417      9.46781         0.046119      0.020022      0.651690
      5.18992     10.52024      9.52352         0.164145     -0.124633     -0.315604
      9.26724      2.06715      9.57522         0.187979      0.414678      0.469378
      9.33330      6.38992      9.55478        -0.247404     -0.216966      0.110751
      8.98850     10.81436      9.39367         0.239772     -0.482298     -0.070478
      3.00499      6.46066      1.63590         0.412072     -0.439030      0.203726
      3.05367     10.46228      1.58650        -0.145761      0.121803      0.435537
      7.32459      2.20836      1.49478        -0.296616     -0.007231      0.505220
      7.36671      6.27845      1.51927        -0.253273      0.850929      0.197938
      7.17829     10.41518      1.64282         0.000752      0.764578      0.114979
     11.55396      6.26689      1.59993        -0.626355      0.374518      0.415249
      9.42062      8.49005      3.86694         0.332453      0.216847     -0.257720
 -----------------------------------------------------------------------------------
    total drift:                               -0.001548     -0.000478      0.000058


--------------------------------------------------------------------------------------------------------



  FREE ENERGIE OF THE ION-ELECTRON SYSTEM (eV)
  ---------------------------------------------------
  free  energy   TOTEN  =      -300.74559437 eV

  energy  without entropy=     -300.74559437  energy(sigma->0) =     -300.74559437
 


--------------------------------------------------------------------------------------------------------


    POTLOK:  cpu time      0.7328: real time      0.7361


--------------------------------------------------------------------------------------------------------


     LOOP+:  cpu time    181.6247: real time    182.6092
    4ORBIT:  cpu time      0.0000: real time      0.0000



 total charge

# of ion       s       p       d       tot
------------------------------------------
    1        1.334   0.737   0.055   2.126
    2        1.336   0.705   0.047   2.089
    3        1.320   0.758   0.053   2.131
    4        1.331   0.746   0.053   2.130
    5        1.327   0.736   0.050   2.112
    6        1.326   0.779   0.063   2.168
    7        1.326   0.724   0.049   2.099
    8        1.310   0.777   0.054   2.142
    9        1.316   0.771   0.052   2.139
   10        1.321   0.738   0.049   2.108
   11        1.315   0.767   0.055   2.136
   12        1.314   0.813   0.065   2.192
   13        1.314   0.813   0.062   2.189
   14        1.311   0.786   0.054   2.151
   15        1.314   0.799   0.062   2.175
   16        1.316   0.799   0.059   2.175
   17        1.311   0.771   0.052   2.134
   18        1.322   0.765   0.055   2.142
   19        1.321   0.746   0.052   2.119
   20        1.321   0.769   0.052   2.142
   21        1.316   0.792   0.058   2.166
   22        1.309   0.809   0.065   2.183
   23        1.320   0.756   0.056   2.132
   24        1.314   0.800   0.058   2.172
   25        1.310   0.765   0.052   2.126
   26        1.319   0.782   0.057   2.158
   27        1.323   0.776   0.060   2.159
   28        1.323   0.767   0.059   2.150
   29        1.326   0.756   0.058   2.140
   30        1.321   0.747   0.053   2.120
   31        1.319   0.768   0.057   2.143
   32        1.326   0.740   0.051   2.116
   33        1.318   0.774   0.057   2.150
   34        1.325   0.770   0.059   2.155
   35        1.321   0.754   0.055   2.131
   36        1.319   0.761   0.051   2.130
   37        1.479   2.288   0.032   3.798
   38        1.480   2.314   0.038   3.831
   39        1.476   2.312   0.031   3.819
   40        1.475   2.324   0.034   3.834
   41        1.476   2.284   0.027   3.788
   42        1.478   2.296   0.032   3.805
   43        1.476   2.309   0.034   3.819
   44        1.481   2.307   0.040   3.827
   45        1.475   2.321   0.036   3.832
   46        1.474   2.290   0.027   3.792
   47        1.474   2.317   0.035   3.827
   48        1.476   2.295   0.030   3.801
   49        1.478   2.299   0.032   3.810
   50        1.474   2.299   0.028   3.801
   51        1.475   2.306   0.031   3.812
   52        1.475   2.296   0.028   3.799
   53        1.479   2.291   0.032   3.802
   54        1.481   2.313   0.037   3.831
   55        1.474   2.311   0.035   3.820
   56        1.471   2.321   0.030   3.822
   57        1.476   2.296   0.029   3.801
   58        1.476   2.271   0.024   3.770
   59        1.477   2.273   0.025   3.776
   60        1.475   2.304   0.030   3.809
   61        1.476   2.318   0.035   3.828
   62        1.475   2.299   0.031   3.805
   63        1.478   2.316   0.035   3.829
   64        1.476   2.322   0.036   3.835
   65        1.473   2.314   0.032   3.819
   66        1.478   2.277   0.026   3.781
   67        1.475   2.289   0.027   3.791
   68        1.480   2.270   0.027   3.776
   69        1.475   2.307   0.032   3.813
   70        1.475   2.303   0.030   3.808
   71        1.478   2.295   0.030   3.802
   72        1.478   2.272   0.026   3.777
--------------------------------------------------
tot        100.660 110.436   3.125 214.221



 magnetization (x)

# of ion       s       p       d       tot
------------------------------------------
    1       -0.000   0.000   0.000   0.000
    2       -0.000   0.000   0.000   0.000
    3       -0.000   0.000  -0.000   0.000
    4       -0.000   0.000   0.000   0.000
    5       -0.000   0.000   0.000   0.000
    6       -0.000   0.000   0.000   0.000
    7       -0.000   0.000   0.000   0.000
    8       -0.000   0.000   0.000   0.000
    9       -0.000   0.000   0.000   0.000
   10       -0.000   0.000   0.000   0.000
   11       -0.000   0.000   0.000   0.000
   12       -0.000   0.000  -0.000   0.000
   13       -0.000   0.000  -0.000   0.000
   14       -0.000   0.000   0.000   0.000
   15       -0.000   0.000   0.000   0.000
   16       -0.000   0.000  -0.000   0.000
   17       -0.000   0.000   0.000   0.000
   18       -0.000   0.000   0.000   0.000
   19       -0.000   0.000   0.000   0.000
   20       -0.000   0.000   0.000   0.000
   21       -0.000   0.000   0.000   0.000
   22       -0.000   0.000  -0.000  -0.000
   23       -0.000   0.000   0.000   0.000
   24       -0.000   0.000  -0.000  -0.000
   25       -0.000  -0.000  -0.000  -0.000
   26       -0.000   0.000  -0.000   0.000
   27       -0.000   0.000  -0.000  -0.000
   28       -0.000   0.000  -0.000   0.000
   29       -0.000  -0.000  -0.000  -0.000
   30       -0.000   0.000   0.000   0.000
   31       -0.000   0.000   0.000   0.000
   32       -0.000  -0.000  -0.000  -0.000
   33       -0.000   0.000  -0.000   0.000
   34       -0.000   0.000  -0.000   0.000
   35       -0.000   0.000  -0.000  -0.000
   36       -0.000   0.000   0.000   0.000
   37       -0.000  -0.000   0.000  -0.000
   38       -0.000  -0.000  -0.000  -0.000
   39       -0.000  -0.000   0.000  -0.000
   40       -0.000  -0.000   0.000  -0.000
   41       -0.000  -0.000   0.000  -0.000
   42       -0.000  -0.000   0.000  -0.000
   43       -0.000  -0.000   0.000  -0.000
   44       -0.000  -0.000   0.000  -0.000
   45       -0.000  -0.000   0.000  -0.000
   46       -0.000  -0.000   0.000  -0.000
   47       -0.000  -0.000   0.000  -0.000
   48       -0.000  -0.000   0.000  -0.000
   49       -0.000  -0.000  -0.000  -0.000
   50       -0.000  -0.000   0.000  -0.000
   51       -0.000  -0.000   0.000  -0.000
   52       -0.000  -0.000   0.000  -0.000
   53       -0.000  -0.000   0.000  -0.000
   54       -0.000  -0.000  -0.000  -0.000
   55       -0.000  -0.000   0.000  -0.000
   56       -0.000  -0.000   0.000  -0.000
   57       -0.000  -0.000   0.000  -0.000
   58       -0.000  -0.000   0.000  -0.000
   59       -0.000  -0.000   0.000  -0.000
   60       -0.000  -0.000  -0.000  -0.000
   61       -0.000  -0.000  -0.000  -0.000
   62       -0.000  -0.000   0.000  -0.000
   63       -0.000  -0.000   0.000  -0.000
   64       -0.000  -0.000  -0.000  -0.000
   65       -0.000  -0.000   0.000  -0.000
   66       -0.000  -0.000  -0.000  -0.000
   67       -0.000  -0.000   0.000  -0.000
   68       -0.000  -0.000  -0.000  -0.000
   69       -0.000  -0.000  -0.000  -0.000
   70       -0.000  -0.000   0.000  -0.000
   71       -0.000  -0.000   0.000  -0.000
   72       -0.000  -0.000   0.000  -0.000
--------------------------------------------------
tot         -0.000  -0.000   0.000  -0.000
 

 total amount of memory used by VASP MPI-rank0   111004. kBytes
=======================================================================

   base      :      30000. kBytes
   nonl-proj :      16422. kBytes
   fftplans  :       6180. kBytes
   grid      :      15593. kBytes
   one-center:        146. kBytes
   wavefun   :      42663. kBytes
 
  
  
 General timing and accounting informations for this job:
 ========================================================
  
                  Total CPU time used (sec):      193.420
                            User time (sec):      187.810
                          System time (sec):        5.610
                         Elapsed time (sec):      196.205
  
                   Maximum memory used (kb):      330380.
                   Average memory used (kb):          N/A
  
                          Minor page faults:        96897
                          Major page faults:           71
                 Voluntary context switches:        10387
