 vasp.6.4.2 20Jul23 (build Oct 12 2023 10:31:02) complex                         
 executed on              LinuxNV date 2025.05.29  02:43:51
 running  128 mpi-ranks, with    1 threads/rank, on    2 nodes
 distrk:  each k-point on   64 cores,    2 groups
 distr:  one band on NCORE=   4 cores,   16 groups


--------------------------------------------------------------------------------------------------------


 INCAR:
   ENCUT = 360.000000
   SIGMA = 0.050000
   EDIFF = 1.00e-06
   ALGO = Normal
   GGA = PE
   PREC = Normal
   SYSTEM = ./
   ICHARG = 2
   ISMEAR = 0
   ISPIN = 1
   ISTART = 0
   ISYM = 0
   KPAR = 2
   LMAXMIX = 4
   NELM = 100
   NPAR = 16
   LASPH = .TRUE.
   LCHARG = .FALSE.
   LWAVE = .FALSE.

 POTCAR:    PAW_PBE Ge 05Jan2001                  
 POTCAR:    PAW_PBE Se 06Sep2000                  
 POTCAR:    PAW_PBE Ge 05Jan2001                  
   VRHFIN =Ge: s2p2                                                                                 
   LEXCH  = PE                                                                                      
   EATOM  =   104.9960 eV,    7.7170 Ry                                                             
                                                                                                    
   TITEL  = PAW_PBE Ge 05Jan2001                                                                    
   LULTRA =        F    use ultrasoft PP ?                                                          
   IUNSCR =        1    unscreen: 0-lin 1-nonlin 2-no                                               
   RPACOR =    2.170    partial core radius                                                         
   POMASS =   72.610; ZVAL   =    4.000    mass and valenz                                          
   RCORE  =    2.300    outmost cutoff radius                                                       
   RWIGS  =    2.300; RWIGS  =    1.217    wigner-seitz radius (au A)                               
   ENMAX  =  173.807; ENMIN  =  130.355 eV                                                          
   ICORE  =        3    local potential                                                             
   LCOR   =        T    correct aug charges                                                         
   LPAW   =        T    paw PP                                                                      
   EAUG   =  385.843                                                                                
   DEXC   =    0.000                                                                                
   RMAX   =    2.342    core radius for proj-oper                                                   
   RAUG   =    1.300    factor for augmentation sphere                                              
   RDEP   =    2.318    radius for radial grids                                                     
   RDEPT  =    2.103    core radius for aug-charge                                                  
                                                                                                    
   Atomic configuration                                                                             
   10 entries                                                                                       
     n  l   j            E        occ.                                                              
     1  0  0.50    -10959.8463   2.0000                                                             
     2  0  0.50     -1371.6056   2.0000                                                             
     2  1  1.50     -1198.4791   6.0000                                                             
     3  0  0.50      -168.4733   2.0000                                                             
     3  1  1.50      -115.6019   6.0000                                                             
     3  2  2.50       -29.3106  10.0000                                                             
     4  0  0.50       -11.7309   2.0000                                                             
     4  1  0.50        -3.8952   2.0000                                                             
     4  2  1.50        -4.0817   0.0000                                                             
     4  3  2.50        -4.0817   0.0000                                                             
   Description                                                                                      
     l       E           TYP  RCUT    TYP  RCUT                                                     
     0    -11.7309493     23  2.300                                                                 
     0     -7.4578696     23  2.300                                                                 
     1     -3.8952261     23  2.300                                                                 
     1      6.1178114     23  2.300                                                                 
     2     -4.0817478     23  2.300                                                                 
     3     -1.3605826      7  2.300                                                                 
  local pseudopotential read in
  partial core-charges read in
  partial kinetic energy density read in
  atomic valenz-charges read in
  non local Contribution for L=            0  read in
    real space projection operators read in
  non local Contribution for L=            0  read in
    real space projection operators read in
  non local Contribution for L=            1  read in
    real space projection operators read in
  non local Contribution for L=            1  read in
    real space projection operators read in
  non local Contribution for L=            2  read in
    real space projection operators read in
    PAW grid and wavefunctions read in
 
   number of l-projection  operators is LMAX  =            5
   number of lm-projection operators is LMMAX =           13
 
 POTCAR:    PAW_PBE Se 06Sep2000                  
   VRHFIN =Se: s2p4                                                                                 
   LEXCH  = PE                                                                                      
   EATOM  =   257.1286 eV,   18.8984 Ry                                                             
                                                                                                    
   TITEL  = PAW_PBE Se 06Sep2000                                                                    
   LULTRA =        F    use ultrasoft PP ?                                                          
   IUNSCR =        1    unscreen: 0-lin 1-nonlin 2-no                                               
   RPACOR =    1.900    partial core radius                                                         
   POMASS =   78.960; ZVAL   =    6.000    mass and valenz                                          
   RCORE  =    2.100    outmost cutoff radius                                                       
   RWIGS  =    2.200; RWIGS  =    1.164    wigner-seitz radius (au A)                               
   ENMAX  =  211.555; ENMIN  =  158.666 eV                                                          
   ICORE  =        3    local potential                                                             
   LCOR   =        T    correct aug charges                                                         
   LPAW   =        T    paw PP                                                                      
   EAUG   =  446.842                                                                                
   DEXC   =    0.000                                                                                
   RMAX   =    2.147    core radius for proj-oper                                                   
   RAUG   =    1.300    factor for augmentation sphere                                              
   RDEP   =    2.177    radius for radial grids                                                     
   RDEPT  =    1.928    core radius for aug-charge                                                  
                                                                                                    
   Atomic configuration                                                                             
   10 entries                                                                                       
     n  l   j            E        occ.                                                              
     1  0  0.50    -12503.4787   2.0000                                                             
     2  0  0.50     -1606.9547   2.0000                                                             
     2  1  1.50     -1413.3140   6.0000                                                             
     3  0  0.50      -213.4885   2.0000                                                             
     3  1  1.50      -152.9538   6.0000                                                             
     3  2  2.50       -53.1221  10.0000                                                             
     4  0  0.50       -17.2865   2.0000                                                             
     4  1  0.50        -6.5110   4.0000                                                             
     4  2  2.50        -6.8029   0.0000                                                             
     4  3  2.50        -6.8029   0.0000                                                             
   Description                                                                                      
     l       E           TYP  RCUT    TYP  RCUT                                                     
     0    -17.2865377     23  2.100                                                                 
     0    -15.3094411     23  2.100                                                                 
     1     -6.5110275     23  2.100                                                                 
     1     -0.0695192     23  2.100                                                                 
     2     -6.8029130     23  2.100                                                                 
     3     -1.3605826      7  2.100                                                                 
  local pseudopotential read in
  partial core-charges read in
  partial kinetic energy density read in
  atomic valenz-charges read in
  non local Contribution for L=            0  read in
    real space projection operators read in
  non local Contribution for L=            0  read in
    real space projection operators read in
  non local Contribution for L=            1  read in
    real space projection operators read in
  non local Contribution for L=            1  read in
    real space projection operators read in
  non local Contribution for L=            2  read in
    real space projection operators read in
    PAW grid and wavefunctions read in
 
   number of l-projection  operators is LMAX  =            5
   number of lm-projection operators is LMMAX =           13
 
  PAW_PBE Ge 05Jan2001                  :
 energy of atom  1       EATOM= -104.9960
 kinetic energy error for atom=    0.0005 (will be added to EATOM!!)
  PAW_PBE Se 06Sep2000                  :
 energy of atom  2       EATOM= -257.1286
 kinetic energy error for atom=    0.0030 (will be added to EATOM!!)
 
 
 POSCAR: Ge Se
  positions in cartesian coordinates
  No initial velocities read in
 exchange correlation table for  LEXCH =        8
   RHO(1)=    0.500       N(1)  =     2000
   RHO(2)=  100.500       N(2)  =     4000
 


--------------------------------------------------------------------------------------------------------


 ion  position               nearest neighbor table
   1  0.109  0.250  0.139-   5 2.50   6 2.81   6 2.81
   2  0.609  0.750  0.361-   6 2.50   5 2.81   5 2.81
   3  0.891  0.750  0.861-   7 2.50   8 2.81   8 2.81
   4  0.391  0.250  0.639-   8 2.50   7 2.81   7 2.81
   5  0.930  0.250  0.350-   1 2.50   2 2.81   2 2.81
   6  0.430  0.750  0.150-   2 2.50   1 2.81   1 2.81
   7  0.070  0.750  0.650-   3 2.50   4 2.81   4 2.81
   8  0.570  0.250  0.850-   4 2.50   3 2.81   3 2.81
 

IMPORTANT INFORMATION: All symmetrisations will be switched off!
NOSYMM: (Re-)initialisation of all symmetry stuff for point group C_1.


----------------------------------------------------------------------------------------

                                     Primitive cell                                     

  volume of cell :     251.3685

  direct lattice vectors                    reciprocal lattice vectors
     4.800000000  0.000000000  0.000000000     0.208333333  0.000000000  0.000000000
     0.000000000  4.700000000  0.000000000     0.000000000  0.212765957  0.000000000
     0.000000000  0.000000000 11.142221000     0.000000000  0.000000000  0.089748713

  length of vectors
     4.800000000  4.700000000 11.142221000     0.208333333  0.212765957  0.089748713

  position of ions in fractional coordinates (direct lattice)
     0.108997975  0.250000000  0.138559442
     0.608997975  0.750000000  0.361440558
     0.891002025  0.750000000  0.861440558
     0.391002025  0.250000000  0.638559442
     0.930192379  0.250000000  0.349511144
     0.430192379  0.750000000  0.150488856
     0.069807621  0.750000000  0.650488856
     0.569807621  0.250000000  0.849511144

  ion indices of the primitive-cell ions
   primitive index   ion index
                 1           1
                 2           2
                 3           3
                 4           4
                 5           5
                 6           6
                 7           7
                 8           8

----------------------------------------------------------------------------------------

 
 
 KPOINTS: KPOINTS created by Atomic Simulation Env

Automatic generation of k-mesh.
 Grid dimensions read from file:
 generate k-points for:    6    6    2

 Generating k-lattice:

  Cartesian coordinates                     Fractional coordinates (reciprocal lattice)
     0.034722222  0.000000000  0.000000000     0.166666667  0.000000000  0.000000000
     0.000000000  0.035460993  0.000000000     0.000000000  0.166666667  0.000000000
     0.000000000  0.000000000  0.044874357     0.000000000  0.000000000  0.500000000

  Length of vectors
     0.034722222  0.035460993  0.044874357

  Shift w.r.t. Gamma in fractional coordinates (k-lattice)
     0.000000000  0.000000000  0.000000000

 
 Subroutine IBZKPT returns following result:
 ===========================================
 
 Found     40 irreducible k-points:
 
 Following reciprocal coordinates:
            Coordinates               Weight
  0.000000  0.000000  0.000000      1.000000
  0.166667  0.000000  0.000000      2.000000
  0.333333  0.000000  0.000000      2.000000
  0.500000  0.000000  0.000000      1.000000
  0.000000  0.166667  0.000000      2.000000
  0.166667  0.166667  0.000000      2.000000
 -0.166667  0.166667  0.000000      2.000000
  0.333333  0.166667  0.000000      2.000000
 -0.333333  0.166667  0.000000      2.000000
  0.500000  0.166667  0.000000      2.000000
  0.000000  0.333333  0.000000      2.000000
  0.166667  0.333333  0.000000      2.000000
 -0.166667  0.333333  0.000000      2.000000
  0.333333  0.333333  0.000000      2.000000
 -0.333333  0.333333  0.000000      2.000000
  0.500000  0.333333  0.000000      2.000000
  0.000000  0.500000  0.000000      1.000000
  0.166667  0.500000  0.000000      2.000000
  0.333333  0.500000  0.000000      2.000000
  0.500000  0.500000  0.000000      1.000000
  0.000000  0.000000  0.500000      1.000000
  0.166667  0.000000  0.500000      2.000000
  0.333333  0.000000  0.500000      2.000000
  0.500000  0.000000  0.500000      1.000000
  0.000000  0.166667  0.500000      2.000000
  0.166667  0.166667  0.500000      2.000000
 -0.166667  0.166667  0.500000      2.000000
  0.333333  0.166667  0.500000      2.000000
 -0.333333  0.166667  0.500000      2.000000
  0.500000  0.166667  0.500000      2.000000
  0.000000  0.333333  0.500000      2.000000
  0.166667  0.333333  0.500000      2.000000
 -0.166667  0.333333  0.500000      2.000000
  0.333333  0.333333  0.500000      2.000000
 -0.333333  0.333333  0.500000      2.000000
  0.500000  0.333333  0.500000      2.000000
  0.000000  0.500000  0.500000      1.000000
  0.166667  0.500000  0.500000      2.000000
  0.333333  0.500000  0.500000      2.000000
  0.500000  0.500000  0.500000      1.000000
 
 Following cartesian coordinates:
            Coordinates               Weight
  0.000000  0.000000  0.000000      1.000000
  0.034722  0.000000  0.000000      2.000000
  0.069444  0.000000  0.000000      2.000000
  0.104167  0.000000  0.000000      1.000000
  0.000000  0.035461  0.000000      2.000000
  0.034722  0.035461  0.000000      2.000000
 -0.034722  0.035461  0.000000      2.000000
  0.069444  0.035461  0.000000      2.000000
 -0.069444  0.035461  0.000000      2.000000
  0.104167  0.035461  0.000000      2.000000
  0.000000  0.070922  0.000000      2.000000
  0.034722  0.070922  0.000000      2.000000
 -0.034722  0.070922  0.000000      2.000000
  0.069444  0.070922  0.000000      2.000000
 -0.069444  0.070922  0.000000      2.000000
  0.104167  0.070922  0.000000      2.000000
  0.000000  0.106383  0.000000      1.000000
  0.034722  0.106383  0.000000      2.000000
  0.069444  0.106383  0.000000      2.000000
  0.104167  0.106383  0.000000      1.000000
  0.000000  0.000000  0.044874      1.000000
  0.034722  0.000000  0.044874      2.000000
  0.069444  0.000000  0.044874      2.000000
  0.104167  0.000000  0.044874      1.000000
  0.000000  0.035461  0.044874      2.000000
  0.034722  0.035461  0.044874      2.000000
 -0.034722  0.035461  0.044874      2.000000
  0.069444  0.035461  0.044874      2.000000
 -0.069444  0.035461  0.044874      2.000000
  0.104167  0.035461  0.044874      2.000000
  0.000000  0.070922  0.044874      2.000000
  0.034722  0.070922  0.044874      2.000000
 -0.034722  0.070922  0.044874      2.000000
  0.069444  0.070922  0.044874      2.000000
 -0.069444  0.070922  0.044874      2.000000
  0.104167  0.070922  0.044874      2.000000
  0.000000  0.106383  0.044874      1.000000
  0.034722  0.106383  0.044874      2.000000
  0.069444  0.106383  0.044874      2.000000
  0.104167  0.106383  0.044874      1.000000
 


--------------------------------------------------------------------------------------------------------




 Dimension of arrays:
   k-points           NKPTS =     40   k-points in BZ     NKDIM =     40   number of bands    NBANDS=     32
   number of dos      NEDOS =    301   number of ions     NIONS =      8
   non local maximal  LDIM  =      5   non local SUM 2l+1 LMDIM =     13
   total plane-waves  NPLWV =  31104
   max r-space proj   IRMAX =      1   max aug-charges    IRDMAX=   6924
   dimension x,y,z NGX =    24 NGY =   24 NGZ =   54
   dimension x,y,z NGXF=    48 NGYF=   48 NGZF=  108
   support grid    NGXF=    48 NGYF=   48 NGZF=  108
   ions per type =               4   4
   NGX,Y,Z   is equivalent  to a cutoff of   8.31,  8.49,  8.06 a.u.
   NGXF,Y,Z  is equivalent  to a cutoff of  16.62, 16.98, 16.11 a.u.

 SYSTEM =  ./                                      
 POSCAR =  Ge Se                                   

 Startparameter for this run:
   NWRITE =      2    write-flag & timer
   PREC   = normal    normal or accurate (medium, high low for compatibility)
   ISTART =      0    job   : 0-new  1-cont  2-samecut
   ICHARG =      2    charge: 1-file 2-atom 10-const
   ISPIN  =      1    spin polarized calculation?
   LNONCOLLINEAR =      F non collinear calculations
   LSORBIT =      F    spin-orbit coupling
   INIWAV =      1    electr: 0-lowe 1-rand  2-diag
   LASPH  =      T    aspherical Exc in radial PAW
 Electronic Relaxation 1
   ENCUT  =  360.0 eV  26.46 Ry    5.14 a.u.   7.43  7.27 17.24*2*pi/ulx,y,z
   ENINI  =  360.0     initial cutoff
   ENAUG  =  446.8 eV  augmentation charge cutoff
   NELM   =    100;   NELMIN=  2; NELMDL= -5     # of ELM steps 
   EDIFF  = 0.1E-05   stopping-criterion for ELM
   LREAL  =      F    real-space projection
   NLSPLINE    = F    spline interpolate recip. space projectors
   LCOMPAT=      F    compatible to vasp.4.4
   GGA_COMPAT  = T    GGA compatible to vasp.4.4-vasp.4.6
   LMAXPAW     = -100 max onsite density
   LMAXMIX     =    4 max onsite mixed and CHGCAR
   VOSKOWN=      0    Vosko Wilk Nusair interpolation
   ROPT   =    0.00000   0.00000
 Ionic relaxation
   EDIFFG = 0.1E-04   stopping-criterion for IOM
   NSW    =      0    number of steps for IOM
   NBLOCK =      1;   KBLOCK =      1    inner block; outer block 
   IBRION =     -1    ionic relax: 0-MD 1-quasi-New 2-CG
   NFREE  =      0    steps in history (QN), initial steepest desc. (CG)
   ISIF   =      2    stress and relaxation
   IWAVPR =     10    prediction:  0-non 1-charg 2-wave 3-comb
   ISYM   =      0    0-nonsym 1-usesym 2-fastsym
   LCORR  =      T    Harris-Foulkes like correction to forces

   POTIM  = 0.5000    time-step for ionic-motion
   TEIN   =    0.0    initial temperature
   TEBEG  =    0.0;   TEEND  =   0.0 temperature during run
   SMASS  =  -3.00    Nose mass-parameter (am)
   estimated Nose-frequenzy (Omega)   =  0.10E-29 period in steps = 0.13E+47 mass=  -0.527E-27a.u.
   SCALEE = 1.0000    scale energy and forces
   NPACO  =    256;   APACO  = 10.0  distance and # of slots for P.C.
   PSTRESS=    0.0 pullay stress

  Mass of Ions in am
   POMASS =  72.61 78.96
  Ionic Valenz
   ZVAL   =   4.00  6.00
  Atomic Wigner-Seitz radii
   RWIGS  =  -1.00 -1.00
  virtual crystal weights 
   VCA    =   1.00  1.00
   NELECT =      40.0000    total number of electrons
   NUPDOWN=      -1.0000    fix difference up-down

 DOS related values:
   EMIN   =  10.00;   EMAX   =-10.00  energy-range for DOS
   EFERMI =   0.00;   METHOD = LEGACY      
   ISMEAR =     0;   SIGMA  =   0.05  broadening in eV -4-tet -1-fermi 0-gaus

 Electronic relaxation 2 (details)
   IALGO  =     38    algorithm
   LDIAG  =      T    sub-space diagonalisation (order eigenvalues)
   LSUBROT=      F    optimize rotation matrix (better conditioning)
   TURBO    =      0    0=normal 1=particle mesh
   IRESTART =      0    0=no restart 2=restart with 2 vectors
   NREBOOT  =      0    no. of reboots
   NMIN     =      0    reboot dimension
   EREF     =   0.00    reference energy to select bands
   IMIX   =      4    mixing-type and parameters
     AMIX     =   0.40;   BMIX     =  1.00
     AMIX_MAG =   1.60;   BMIX_MAG =  1.00
     AMIN     =   0.10
     WC   =   100.;   INIMIX=   1;  MIXPRE=   1;  MAXMIX= -45

 Intra band minimization:
   WEIMIN = 0.0000     energy-eigenvalue tresh-hold
   EBREAK =  0.78E-08  absolut break condition
   DEPER  =   0.30     relativ break condition  

   TIME   =   0.40     timestep for ELM

  volume/ion in A,a.u.               =      31.42       212.04
  Fermi-wavevector in a.u.,A,eV,Ry     =   0.887138  1.676448 10.707974  0.787014
  Thomas-Fermi vector in A             =   2.008397
 
 Write flags
   LWAVE        =      F    write WAVECAR
   LDOWNSAMPLE  =      F    k-point downsampling of WAVECAR
   LCHARG       =      F    write CHGCAR
   LVTOT        =      F    write LOCPOT, total local potential
   LVHAR        =      F    write LOCPOT, Hartree potential only
   LELF         =      F    write electronic localiz. function (ELF)
   LORBIT       =      0    0 simple, 1 ext, 2 COOP (PROOUT), +10 PAW based schemes


 Dipole corrections
   LMONO  =      F    monopole corrections only (constant potential shift)
   LDIPOL =      F    correct potential (dipole corrections)
   IDIPOL =      0    1-x, 2-y, 3-z, 4-all directions 
   EPSILON=  1.0000000 bulk dielectric constant

 Exchange correlation treatment:
   GGA     =    PE    GGA type
   LEXCH   =     8    internal setting for exchange type
   LIBXC   =     F    Libxc                    
   VOSKOWN =     0    Vosko Wilk Nusair interpolation
   LHFCALC =     F    Hartree Fock is set to
   LHFONE  =     F    Hartree Fock one center treatment
   AEXX    =    0.0000 exact exchange contribution

 Linear response parameters
   LEPSILON=     F    determine dielectric tensor
   LRPA    =     F    only Hartree local field effects (RPA)
   LNABLA  =     F    use nabla operator in PAW spheres
   LVEL    =     F    velocity operator in full k-point grid
   CSHIFT  =0.1000    complex shift for real part using Kramers Kronig
   OMEGAMAX=  -1.0    maximum frequency
   DEG_THRESHOLD= 0.2000000E-02 threshold for treating states as degnerate
   RTIME   =   -0.100 relaxation time in fs
  (WPLASMAI=    0.000 imaginary part of plasma frequency in eV, 0.658/RTIME)
   DFIELD  = 0.0000000 0.0000000 0.0000000 field for delta impulse in time
 
  Optional k-point grid parameters
   LKPOINTS_OPT  =     F    use optional k-point grid
   KPOINTS_OPT_MODE=     1    mode for optional k-point grid
 
 Orbital magnetization related:
   ORBITALMAG=     F  switch on orbital magnetization
   LCHIMAG   =     F  perturbation theory with respect to B field
   DQ        =  0.001000  dq finite difference perturbation B field
   LLRAUG    =     F  two centre corrections for induced B field
   LBONE     =     F  B-component reconstruction in AE one-centre
   LVGVCALC  =     T  calculate vGv susceptibility
   LVGVAPPL  =     F  apply vGv susceptibility instead of pGv for G=0

 Random number generation:
   RANDOM_GENERATOR = DEFAULT
   PCG_SEED         = not used


--------------------------------------------------------------------------------------------------------


 Static calculation
 charge density and potential will be updated during run
 non-spin polarized calculation
 Variant of blocked Davidson
 Davidson routine will perform the subspace rotation
 perform sub-space diagonalisation
    after iterative eigenvector-optimisation
 modified Broyden-mixing scheme, WC =      100.0
 initial mixing is a Kerker type mixing with AMIX =  0.4000 and BMIX =      1.0000
 Hartree-type preconditioning will be used
 using additional bands            12
 reciprocal scheme for non local part
 use partial core corrections
 calculate Harris-corrections to forces 
   (improved forces if not selfconsistent)
 use gradient corrections 
 use of overlap-Matrix (Vanderbilt PP)
 Gauss-broadening in eV      SIGMA  =   0.05


--------------------------------------------------------------------------------------------------------


  energy-cutoff  :      360.00
  volume of cell :      251.37
      direct lattice vectors                 reciprocal lattice vectors
     4.800000000  0.000000000  0.000000000     0.208333333  0.000000000  0.000000000
     0.000000000  4.700000000  0.000000000     0.000000000  0.212765957  0.000000000
     0.000000000  0.000000000 11.142221000     0.000000000  0.000000000  0.089748713

  length of vectors
     4.800000000  4.700000000 11.142221000     0.208333333  0.212765957  0.089748713


 
 k-points in units of 2pi/SCALE and weight: KPOINTS created by Atomic Simulation Env
   0.00000000  0.00000000  0.00000000       0.014
   0.03472222  0.00000000  0.00000000       0.028
   0.06944444  0.00000000  0.00000000       0.028
   0.10416667  0.00000000  0.00000000       0.014
   0.00000000  0.03546099  0.00000000       0.028
   0.03472222  0.03546099  0.00000000       0.028
  -0.03472222  0.03546099  0.00000000       0.028
   0.06944444  0.03546099  0.00000000       0.028
  -0.06944444  0.03546099  0.00000000       0.028
   0.10416667  0.03546099  0.00000000       0.028
   0.00000000  0.07092199  0.00000000       0.028
   0.03472222  0.07092199  0.00000000       0.028
  -0.03472222  0.07092199  0.00000000       0.028
   0.06944444  0.07092199  0.00000000       0.028
  -0.06944444  0.07092199  0.00000000       0.028
   0.10416667  0.07092199  0.00000000       0.028
   0.00000000  0.10638298  0.00000000       0.014
   0.03472222  0.10638298  0.00000000       0.028
   0.06944444  0.10638298  0.00000000       0.028
   0.10416667  0.10638298  0.00000000       0.014
   0.00000000  0.00000000  0.04487436       0.014
   0.03472222  0.00000000  0.04487436       0.028
   0.06944444  0.00000000  0.04487436       0.028
   0.10416667  0.00000000  0.04487436       0.014
   0.00000000  0.03546099  0.04487436       0.028
   0.03472222  0.03546099  0.04487436       0.028
  -0.03472222  0.03546099  0.04487436       0.028
   0.06944444  0.03546099  0.04487436       0.028
  -0.06944444  0.03546099  0.04487436       0.028
   0.10416667  0.03546099  0.04487436       0.028
   0.00000000  0.07092199  0.04487436       0.028
   0.03472222  0.07092199  0.04487436       0.028
  -0.03472222  0.07092199  0.04487436       0.028
   0.06944444  0.07092199  0.04487436       0.028
  -0.06944444  0.07092199  0.04487436       0.028
   0.10416667  0.07092199  0.04487436       0.028
   0.00000000  0.10638298  0.04487436       0.014
   0.03472222  0.10638298  0.04487436       0.028
   0.06944444  0.10638298  0.04487436       0.028
   0.10416667  0.10638298  0.04487436       0.014
 
 k-points in reciprocal lattice and weights: KPOINTS created by Atomic Simulation Env
   0.00000000  0.00000000  0.00000000       0.014
   0.16666667  0.00000000  0.00000000       0.028
   0.33333333  0.00000000  0.00000000       0.028
   0.50000000  0.00000000  0.00000000       0.014
   0.00000000  0.16666667  0.00000000       0.028
   0.16666667  0.16666667  0.00000000       0.028
  -0.16666667  0.16666667  0.00000000       0.028
   0.33333333  0.16666667  0.00000000       0.028
  -0.33333333  0.16666667  0.00000000       0.028
   0.50000000  0.16666667  0.00000000       0.028
   0.00000000  0.33333333  0.00000000       0.028
   0.16666667  0.33333333  0.00000000       0.028
  -0.16666667  0.33333333  0.00000000       0.028
   0.33333333  0.33333333  0.00000000       0.028
  -0.33333333  0.33333333  0.00000000       0.028
   0.50000000  0.33333333  0.00000000       0.028
   0.00000000  0.50000000  0.00000000       0.014
   0.16666667  0.50000000  0.00000000       0.028
   0.33333333  0.50000000  0.00000000       0.028
   0.50000000  0.50000000  0.00000000       0.014
   0.00000000  0.00000000  0.50000000       0.014
   0.16666667  0.00000000  0.50000000       0.028
   0.33333333  0.00000000  0.50000000       0.028
   0.50000000  0.00000000  0.50000000       0.014
   0.00000000  0.16666667  0.50000000       0.028
   0.16666667  0.16666667  0.50000000       0.028
  -0.16666667  0.16666667  0.50000000       0.028
   0.33333333  0.16666667  0.50000000       0.028
  -0.33333333  0.16666667  0.50000000       0.028
   0.50000000  0.16666667  0.50000000       0.028
   0.00000000  0.33333333  0.50000000       0.028
   0.16666667  0.33333333  0.50000000       0.028
  -0.16666667  0.33333333  0.50000000       0.028
   0.33333333  0.33333333  0.50000000       0.028
  -0.33333333  0.33333333  0.50000000       0.028
   0.50000000  0.33333333  0.50000000       0.028
   0.00000000  0.50000000  0.50000000       0.014
   0.16666667  0.50000000  0.50000000       0.028
   0.33333333  0.50000000  0.50000000       0.028
   0.50000000  0.50000000  0.50000000       0.014
 
 position of ions in fractional coordinates (direct lattice) 
   0.10899797  0.25000000  0.13855944
   0.60899797  0.75000000  0.36144056
   0.89100203  0.75000000  0.86144056
   0.39100203  0.25000000  0.63855944
   0.93019238  0.25000000  0.34951114
   0.43019238  0.75000000  0.15048886
   0.06980762  0.75000000  0.65048886
   0.56980762  0.25000000  0.84951114
 
 position of ions in cartesian coordinates  (Angst):
   0.52319028  1.17500000  1.54385992
   2.92319028  3.52500000  4.02725058
   4.27680972  3.52500000  9.59836108
   1.87680972  1.17500000  7.11497042
   4.46492342  1.17500000  3.89433041
   2.06492342  3.52500000  1.67678009
   0.33507658  3.52500000  7.24789059
   2.73507658  1.17500000  9.46544091
 


--------------------------------------------------------------------------------------------------------


 k-point   1 :   0.0000 0.0000 0.0000  plane waves:    3923
 k-point   2 :   0.1667 0.0000 0.0000  plane waves:    3899
 k-point   3 :   0.3333 0.0000 0.0000  plane waves:    3901
 k-point   4 :   0.5000 0.0000 0.0000  plane waves:    3894
 k-point   5 :   0.0000 0.1667 0.0000  plane waves:    3895
 k-point   6 :   0.1667 0.1667 0.0000  plane waves:    3921
 k-point   7 :  -0.1667 0.1667 0.0000  plane waves:    3921
 k-point   8 :   0.3333 0.1667 0.0000  plane waves:    3883
 k-point   9 :  -0.3333 0.1667 0.0000  plane waves:    3883
 k-point  10 :   0.5000 0.1667 0.0000  plane waves:    3896
 k-point  11 :   0.0000 0.3333 0.0000  plane waves:    3912
 k-point  12 :   0.1667 0.3333 0.0000  plane waves:    3899
 k-point  13 :  -0.1667 0.3333 0.0000  plane waves:    3899
 k-point  14 :   0.3333 0.3333 0.0000  plane waves:    3894
 k-point  15 :  -0.3333 0.3333 0.0000  plane waves:    3894
 k-point  16 :   0.5000 0.3333 0.0000  plane waves:    3896
 k-point  17 :   0.0000 0.5000 0.0000  plane waves:    3906
 k-point  18 :   0.1667 0.5000 0.0000  plane waves:    3902
 k-point  19 :   0.3333 0.5000 0.0000  plane waves:    3900
 k-point  20 :   0.5000 0.5000 0.0000  plane waves:    3888
 k-point  21 :   0.0000 0.0000 0.5000  plane waves:    3946
 k-point  22 :   0.1667 0.0000 0.5000  plane waves:    3902
 k-point  23 :   0.3333 0.0000 0.5000  plane waves:    3900
 k-point  24 :   0.5000 0.0000 0.5000  plane waves:    3900
 k-point  25 :   0.0000 0.1667 0.5000  plane waves:    3932
 k-point  26 :   0.1667 0.1667 0.5000  plane waves:    3906
 k-point  27 :  -0.1667 0.1667 0.5000  plane waves:    3906
 k-point  28 :   0.3333 0.1667 0.5000  plane waves:    3892
 k-point  29 :  -0.3333 0.1667 0.5000  plane waves:    3892
 k-point  30 :   0.5000 0.1667 0.5000  plane waves:    3880
 k-point  31 :   0.0000 0.3333 0.5000  plane waves:    3894
 k-point  32 :   0.1667 0.3333 0.5000  plane waves:    3906
 k-point  33 :  -0.1667 0.3333 0.5000  plane waves:    3906
 k-point  34 :   0.3333 0.3333 0.5000  plane waves:    3892
 k-point  35 :  -0.3333 0.3333 0.5000  plane waves:    3892
 k-point  36 :   0.5000 0.3333 0.5000  plane waves:    3884
 k-point  37 :   0.0000 0.5000 0.5000  plane waves:    3896
 k-point  38 :   0.1667 0.5000 0.5000  plane waves:    3908
 k-point  39 :   0.3333 0.5000 0.5000  plane waves:    3896
 k-point  40 :   0.5000 0.5000 0.5000  plane waves:    3912

 maximum and minimum number of plane-waves per node :      1005      953

 maximum number of plane-waves:      3946
 maximum index in each direction: 
   IXMAX=    7   IYMAX=    7   IZMAX=   17
   IXMIN=   -7   IYMIN=   -7   IZMIN=  -17


 parallel 3D FFT for wavefunctions:
    minimum data exchange during FFTs selected (reduces bandwidth)
 parallel 3D FFT for charge:
    minimum data exchange during FFTs selected (reduces bandwidth)


 total amount of memory used by VASP MPI-rank0    40888. kBytes
=======================================================================

   base      :      30000. kBytes
   nonl-proj :       8515. kBytes
   fftplans  :        419. kBytes
   grid      :        607. kBytes
   one-center:         16. kBytes
   wavefun   :       1331. kBytes
 
     INWAV:  cpu time      0.0000: real time      0.0001
 Broyden mixing: mesh for mixing (old mesh)
   NGX = 15   NGY = 15   NGZ = 35
  (NGX  = 48   NGY  = 48   NGZ  =108)
  gives a total of   7875 points

 initial charge density was supplied:
 charge density of overlapping atoms calculated
 number of electron      40.0000000 magnetization 
 keeping initial charge density in first step


--------------------------------------------------------------------------------------------------------


 Maximum index for augmentation-charges           335 (set IRDMAX)


--------------------------------------------------------------------------------------------------------


 First call to EWALD:  gamma=   0.281
 Maximum number of real-space cells 3x 4x 2
 Maximum number of reciprocal cells 2x 2x 4

    FEWALD:  cpu time      0.0012: real time      0.0012


--------------------------------------- Ionic step        1  -------------------------------------------




--------------------------------------- Iteration      1(   1)  ---------------------------------------


    POTLOK:  cpu time      0.0109: real time      0.0113
    SETDIJ:  cpu time      0.1378: real time      0.1383
     EDDAV:  cpu time      0.2768: real time      0.2796
       DOS:  cpu time      0.0014: real time      0.0014
    --------------------------------------------
      LOOP:  cpu time      0.4269: real time      0.4305

 eigenvalue-minimisations  :  2560
 total energy-change (2. order) : 0.1372081E+03  (-0.1231690E+04)
 number of electron      40.0000000 magnetization 
 augmentation part       40.0000000 magnetization 

 Free energy of the ion-electron system (eV)
  ---------------------------------------------------
  alpha Z        PSCENC =        67.40878452
  Ewald energy   TEWEN  =     -1272.89707911
  -Hartree energ DENC   =      -185.79106932
  -exchange      EXHF   =         0.00000000
  -V(xc)+E(xc)   XCENC  =       -36.07530292
  PAW double counting   =      1193.78262552    -1080.73714043
  entropy T*S    EENTRO =        -0.00455245
  eigenvalues    EBANDS =         3.03723289
  atomic energy  EATOM  =      1448.48460880
  Solvation  Ediel_sol  =         0.00000000
  ---------------------------------------------------
  free energy    TOTEN  =       137.20810750 eV

  energy without entropy =      137.21265995  energy(sigma->0) =      137.21038372


--------------------------------------------------------------------------------------------------------




--------------------------------------- Iteration      1(   2)  ---------------------------------------


     EDDAV:  cpu time      0.3539: real time      0.3575
       DOS:  cpu time      0.0006: real time      0.0006
    --------------------------------------------
      LOOP:  cpu time      0.3544: real time      0.3581

 eigenvalue-minimisations  :  3680
 total energy-change (2. order) :-0.1596861E+03  (-0.1548223E+03)
 number of electron      40.0000000 magnetization 
 augmentation part       40.0000000 magnetization 

 Free energy of the ion-electron system (eV)
  ---------------------------------------------------
  alpha Z        PSCENC =        67.40878452
  Ewald energy   TEWEN  =     -1272.89707911
  -Hartree energ DENC   =      -185.79106932
  -exchange      EXHF   =         0.00000000
  -V(xc)+E(xc)   XCENC  =       -36.07530292
  PAW double counting   =      1193.78262552    -1080.73714043
  entropy T*S    EENTRO =        -0.00000000
  eigenvalues    EBANDS =      -156.65337623
  atomic energy  EATOM  =      1448.48460880
  Solvation  Ediel_sol  =         0.00000000
  ---------------------------------------------------
  free energy    TOTEN  =       -22.47794918 eV

  energy without entropy =      -22.47794918  energy(sigma->0) =      -22.47794918


--------------------------------------------------------------------------------------------------------




--------------------------------------- Iteration      1(   3)  ---------------------------------------


     EDDAV:  cpu time      0.3330: real time      0.3364
       DOS:  cpu time      0.0006: real time      0.0006
    --------------------------------------------
      LOOP:  cpu time      0.3336: real time      0.3370

 eigenvalue-minimisations  :  3232
 total energy-change (2. order) :-0.1069047E+02  (-0.1065724E+02)
 number of electron      40.0000000 magnetization 
 augmentation part       40.0000000 magnetization 

 Free energy of the ion-electron system (eV)
  ---------------------------------------------------
  alpha Z        PSCENC =        67.40878452
  Ewald energy   TEWEN  =     -1272.89707911
  -Hartree energ DENC   =      -185.79106932
  -exchange      EXHF   =         0.00000000
  -V(xc)+E(xc)   XCENC  =       -36.07530292
  PAW double counting   =      1193.78262552    -1080.73714043
  entropy T*S    EENTRO =        -0.00000000
  eigenvalues    EBANDS =      -167.34384748
  atomic energy  EATOM  =      1448.48460880
  Solvation  Ediel_sol  =         0.00000000
  ---------------------------------------------------
  free energy    TOTEN  =       -33.16842042 eV

  energy without entropy =      -33.16842042  energy(sigma->0) =      -33.16842042


--------------------------------------------------------------------------------------------------------




--------------------------------------- Iteration      1(   4)  ---------------------------------------


     EDDAV:  cpu time      0.2974: real time      0.3027
       DOS:  cpu time      0.0006: real time      0.0006
    --------------------------------------------
      LOOP:  cpu time      0.2979: real time      0.3033

 eigenvalue-minimisations  :  2992
 total energy-change (2. order) :-0.9214862E-01  (-0.9214017E-01)
 number of electron      40.0000000 magnetization 
 augmentation part       40.0000000 magnetization 

 Free energy of the ion-electron system (eV)
  ---------------------------------------------------
  alpha Z        PSCENC =        67.40878452
  Ewald energy   TEWEN  =     -1272.89707911
  -Hartree energ DENC   =      -185.79106932
  -exchange      EXHF   =         0.00000000
  -V(xc)+E(xc)   XCENC  =       -36.07530292
  PAW double counting   =      1193.78262552    -1080.73714043
  entropy T*S    EENTRO =        -0.00000000
  eigenvalues    EBANDS =      -167.43599610
  atomic energy  EATOM  =      1448.48460880
  Solvation  Ediel_sol  =         0.00000000
  ---------------------------------------------------
  free energy    TOTEN  =       -33.26056905 eV

  energy without entropy =      -33.26056905  energy(sigma->0) =      -33.26056905


--------------------------------------------------------------------------------------------------------




--------------------------------------- Iteration      1(   5)  ---------------------------------------


     EDDAV:  cpu time      0.3172: real time      0.3208
       DOS:  cpu time      0.0007: real time      0.0007
    CHARGE:  cpu time      0.0050: real time      0.0051
    MIXING:  cpu time      0.0008: real time      0.0008
    --------------------------------------------
      LOOP:  cpu time      0.3237: real time      0.3273

 eigenvalue-minimisations  :  3184
 total energy-change (2. order) :-0.6899522E-03  (-0.6899477E-03)
 number of electron      39.9999971 magnetization 
 augmentation part       -7.4442661 magnetization 

 Broyden mixing:
  rms(total) = 0.61277E+00    rms(broyden)= 0.61276E+00
  rms(prec ) = 0.78090E+00
  weight for this iteration     100.00

 Free energy of the ion-electron system (eV)
  ---------------------------------------------------
  alpha Z        PSCENC =        67.40878452
  Ewald energy   TEWEN  =     -1272.89707911
  -Hartree energ DENC   =      -185.79106932
  -exchange      EXHF   =         0.00000000
  -V(xc)+E(xc)   XCENC  =       -36.07530292
  PAW double counting   =      1193.78262552    -1080.73714043
  entropy T*S    EENTRO =        -0.00000000
  eigenvalues    EBANDS =      -167.43668606
  atomic energy  EATOM  =      1448.48460880
  Solvation  Ediel_sol  =         0.00000000
  ---------------------------------------------------
  free energy    TOTEN  =       -33.26125900 eV

  energy without entropy =      -33.26125900  energy(sigma->0) =      -33.26125900


--------------------------------------------------------------------------------------------------------




--------------------------------------- Iteration      1(   6)  ---------------------------------------


    POTLOK:  cpu time      0.0060: real time      0.0062
    SETDIJ:  cpu time      0.1384: real time      0.1390
     EDDAV:  cpu time      0.3240: real time      0.3271
       DOS:  cpu time      0.0006: real time      0.0006
    CHARGE:  cpu time      0.0050: real time      0.0051
    MIXING:  cpu time      0.0006: real time      0.0006
    --------------------------------------------
      LOOP:  cpu time      0.4746: real time      0.4786

 eigenvalue-minimisations  :  2896
 total energy-change (2. order) : 0.8614182E+00  (-0.2042405E+00)
 number of electron      39.9999971 magnetization 
 augmentation part       -7.3456186 magnetization 

 Broyden mixing:
  rms(total) = 0.36591E+00    rms(broyden)= 0.36591E+00
  rms(prec ) = 0.39509E+00
  weight for this iteration     100.00

 eigenvalues of (default mixing * dielectric matrix)
  average eigenvalue GAMMA=   1.5937
  1.5937

 Free energy of the ion-electron system (eV)
  ---------------------------------------------------
  alpha Z        PSCENC =        67.40878452
  Ewald energy   TEWEN  =     -1272.89707911
  -Hartree energ DENC   =      -195.16245011
  -exchange      EXHF   =         0.00000000
  -V(xc)+E(xc)   XCENC  =       -35.31197564
  PAW double counting   =      1406.13247872    -1293.36365860
  entropy T*S    EENTRO =        -0.00000000
  eigenvalues    EBANDS =      -157.69054941
  atomic energy  EATOM  =      1448.48460880
  Solvation  Ediel_sol  =         0.00000000
  ---------------------------------------------------
  free energy    TOTEN  =       -32.39984085 eV

  energy without entropy =      -32.39984085  energy(sigma->0) =      -32.39984085


--------------------------------------------------------------------------------------------------------




--------------------------------------- Iteration      1(   7)  ---------------------------------------


    POTLOK:  cpu time      0.0059: real time      0.0061
    SETDIJ:  cpu time      0.1385: real time      0.1391
     EDDAV:  cpu time      0.2969: real time      0.2998
       DOS:  cpu time      0.0006: real time      0.0006
    CHARGE:  cpu time      0.0048: real time      0.0048
    MIXING:  cpu time      0.0005: real time      0.0005
    --------------------------------------------
      LOOP:  cpu time      0.4471: real time      0.4509

 eigenvalue-minimisations  :  2832
 total energy-change (2. order) : 0.5621994E-02  (-0.3414170E-01)
 number of electron      39.9999971 magnetization 
 augmentation part       -7.3424289 magnetization 

 Broyden mixing:
  rms(total) = 0.18151E+00    rms(broyden)= 0.18151E+00
  rms(prec ) = 0.19519E+00
  weight for this iteration     100.00

 eigenvalues of (default mixing * dielectric matrix)
  average eigenvalue GAMMA=   1.7513
  1.1456  2.3571

 Free energy of the ion-electron system (eV)
  ---------------------------------------------------
  alpha Z        PSCENC =        67.40878452
  Ewald energy   TEWEN  =     -1272.89707911
  -Hartree energ DENC   =      -197.16709904
  -exchange      EXHF   =         0.00000000
  -V(xc)+E(xc)   XCENC  =       -34.98778878
  PAW double counting   =      1592.91033302    -1480.23051725
  entropy T*S    EENTRO =        -0.00000000
  eigenvalues    EBANDS =      -155.91546102
  atomic energy  EATOM  =      1448.48460880
  Solvation  Ediel_sol  =         0.00000000
  ---------------------------------------------------
  free energy    TOTEN  =       -32.39421885 eV

  energy without entropy =      -32.39421885  energy(sigma->0) =      -32.39421885


--------------------------------------------------------------------------------------------------------




--------------------------------------- Iteration      1(   8)  ---------------------------------------


    POTLOK:  cpu time      0.0058: real time      0.0060
    SETDIJ:  cpu time      0.1379: real time      0.1387
     EDDAV:  cpu time      0.3097: real time      0.3127
       DOS:  cpu time      0.0006: real time      0.0006
    CHARGE:  cpu time      0.0051: real time      0.0051
    MIXING:  cpu time      0.0006: real time      0.0006
    --------------------------------------------
      LOOP:  cpu time      0.4596: real time      0.4637

 eigenvalue-minimisations  :  3024
 total energy-change (2. order) : 0.4538254E-03  (-0.3690203E-02)
 number of electron      39.9999971 magnetization 
 augmentation part       -7.3574399 magnetization 

 Broyden mixing:
  rms(total) = 0.20422E-01    rms(broyden)= 0.20422E-01
  rms(prec ) = 0.30417E-01
  weight for this iteration     100.00

 eigenvalues of (default mixing * dielectric matrix)
  average eigenvalue GAMMA=   1.5435
  2.3891  1.1208  1.1208

 Free energy of the ion-electron system (eV)
  ---------------------------------------------------
  alpha Z        PSCENC =        67.40878452
  Ewald energy   TEWEN  =     -1272.89707911
  -Hartree energ DENC   =      -197.59728063
  -exchange      EXHF   =         0.00000000
  -V(xc)+E(xc)   XCENC  =       -34.78022737
  PAW double counting   =      1760.32784891    -1647.68598861
  entropy T*S    EENTRO =        -0.00000000
  eigenvalues    EBANDS =      -155.65443154
  atomic energy  EATOM  =      1448.48460880
  Solvation  Ediel_sol  =         0.00000000
  ---------------------------------------------------
  free energy    TOTEN  =       -32.39376503 eV

  energy without entropy =      -32.39376503  energy(sigma->0) =      -32.39376503


--------------------------------------------------------------------------------------------------------




--------------------------------------- Iteration      1(   9)  ---------------------------------------


    POTLOK:  cpu time      0.0057: real time      0.0060
    SETDIJ:  cpu time      0.1380: real time      0.1387
     EDDAV:  cpu time      0.3003: real time      0.3021
       DOS:  cpu time      0.0003: real time      0.0003
    CHARGE:  cpu time      0.0040: real time      0.0040
    MIXING:  cpu time      0.0003: real time      0.0003
    --------------------------------------------
      LOOP:  cpu time      0.4487: real time      0.4514

 eigenvalue-minimisations  :  3152
 total energy-change (2. order) : 0.6267378E-03  (-0.8207947E-03)
 number of electron      39.9999971 magnetization 
 augmentation part       -7.3527258 magnetization 

 Broyden mixing:
  rms(total) = 0.91641E-02    rms(broyden)= 0.91641E-02
  rms(prec ) = 0.11136E-01
  weight for this iteration     100.00

 eigenvalues of (default mixing * dielectric matrix)
  average eigenvalue GAMMA=   1.6778
  2.2554  2.2554  1.1001  1.1001

 Free energy of the ion-electron system (eV)
  ---------------------------------------------------
  alpha Z        PSCENC =        67.40878452
  Ewald energy   TEWEN  =     -1272.89707911
  -Hartree energ DENC   =      -198.23548256
  -exchange      EXHF   =         0.00000000
  -V(xc)+E(xc)   XCENC  =       -34.73320175
  PAW double counting   =      1765.41639439    -1652.78256994
  entropy T*S    EENTRO =        -0.00000000
  eigenvalues    EBANDS =      -155.05459264
  atomic energy  EATOM  =      1448.48460880
  Solvation  Ediel_sol  =         0.00000000
  ---------------------------------------------------
  free energy    TOTEN  =       -32.39313829 eV

  energy without entropy =      -32.39313829  energy(sigma->0) =      -32.39313829


--------------------------------------------------------------------------------------------------------




--------------------------------------- Iteration      1(  10)  ---------------------------------------


    POTLOK:  cpu time      0.0041: real time      0.0042
    SETDIJ:  cpu time      0.1376: real time      0.1381
     EDDAV:  cpu time      0.1796: real time      0.1805
       DOS:  cpu time      0.0003: real time      0.0003
    CHARGE:  cpu time      0.0037: real time      0.0037
    MIXING:  cpu time      0.0003: real time      0.0003
    --------------------------------------------
      LOOP:  cpu time      0.3257: real time      0.3272

 eigenvalue-minimisations  :  2688
 total energy-change (2. order) :-0.3910151E-03  (-0.9874050E-04)
 number of electron      39.9999971 magnetization 
 augmentation part       -7.3524506 magnetization 

 Broyden mixing:
  rms(total) = 0.34759E-02    rms(broyden)= 0.34759E-02
  rms(prec ) = 0.40734E-02
  weight for this iteration     100.00

 eigenvalues of (default mixing * dielectric matrix)
  average eigenvalue GAMMA=   1.6950
  2.8102  2.5677  1.0965  1.0965  0.9041

 Free energy of the ion-electron system (eV)
  ---------------------------------------------------
  alpha Z        PSCENC =        67.40878452
  Ewald energy   TEWEN  =     -1272.89707911
  -Hartree energ DENC   =      -198.35767631
  -exchange      EXHF   =         0.00000000
  -V(xc)+E(xc)   XCENC  =       -34.72304002
  PAW double counting   =      1760.14879442    -1647.51008768
  entropy T*S    EENTRO =        -0.00000000
  eigenvalues    EBANDS =      -154.94783394
  atomic energy  EATOM  =      1448.48460880
  Solvation  Ediel_sol  =         0.00000000
  ---------------------------------------------------
  free energy    TOTEN  =       -32.39352931 eV

  energy without entropy =      -32.39352931  energy(sigma->0) =      -32.39352931


--------------------------------------------------------------------------------------------------------




--------------------------------------- Iteration      1(  11)  ---------------------------------------


    POTLOK:  cpu time      0.0039: real time      0.0041
    SETDIJ:  cpu time      0.1259: real time      0.1262
     EDDAV:  cpu time      0.2040: real time      0.2050
       DOS:  cpu time      0.0004: real time      0.0004
    CHARGE:  cpu time      0.0038: real time      0.0038
    MIXING:  cpu time      0.0004: real time      0.0004
    --------------------------------------------
      LOOP:  cpu time      0.3384: real time      0.3398

 eigenvalue-minimisations  :  3136
 total energy-change (2. order) :-0.6662969E-04  (-0.8074281E-05)
 number of electron      39.9999971 magnetization 
 augmentation part       -7.3525642 magnetization 

 Broyden mixing:
  rms(total) = 0.17746E-02    rms(broyden)= 0.17746E-02
  rms(prec ) = 0.21430E-02
  weight for this iteration     100.00

 eigenvalues of (default mixing * dielectric matrix)
  average eigenvalue GAMMA=   1.6997
  2.6995  2.6995  1.5340  1.0753  1.0753  1.1146

 Free energy of the ion-electron system (eV)
  ---------------------------------------------------
  alpha Z        PSCENC =        67.40878452
  Ewald energy   TEWEN  =     -1272.89707911
  -Hartree energ DENC   =      -198.40760829
  -exchange      EXHF   =         0.00000000
  -V(xc)+E(xc)   XCENC  =       -34.71765496
  PAW double counting   =      1758.94945908    -1646.30946560
  entropy T*S    EENTRO =        -0.00000000
  eigenvalues    EBANDS =      -154.90464037
  atomic energy  EATOM  =      1448.48460880
  Solvation  Ediel_sol  =         0.00000000
  ---------------------------------------------------
  free energy    TOTEN  =       -32.39359593 eV

  energy without entropy =      -32.39359593  energy(sigma->0) =      -32.39359593


--------------------------------------------------------------------------------------------------------




--------------------------------------- Iteration      1(  12)  ---------------------------------------


    POTLOK:  cpu time      0.0037: real time      0.0038
    SETDIJ:  cpu time      0.1100: real time      0.1102
     EDDAV:  cpu time      0.1867: real time      0.1876
       DOS:  cpu time      0.0004: real time      0.0004
    CHARGE:  cpu time      0.0036: real time      0.0037
    MIXING:  cpu time      0.0004: real time      0.0004
    --------------------------------------------
      LOOP:  cpu time      0.3047: real time      0.3060

 eigenvalue-minimisations  :  2928
 total energy-change (2. order) :-0.3653573E-05  (-0.1905121E-05)
 number of electron      39.9999971 magnetization 
 augmentation part       -7.3525628 magnetization 

 Broyden mixing:
  rms(total) = 0.39667E-03    rms(broyden)= 0.39667E-03
  rms(prec ) = 0.47647E-03
  weight for this iteration     100.00

 eigenvalues of (default mixing * dielectric matrix)
  average eigenvalue GAMMA=   1.6623
  2.9926  2.4241  1.9266  1.0669  1.0669  0.9802  1.1787

 Free energy of the ion-electron system (eV)
  ---------------------------------------------------
  alpha Z        PSCENC =        67.40878452
  Ewald energy   TEWEN  =     -1272.89707911
  -Hartree energ DENC   =      -198.42812684
  -exchange      EXHF   =         0.00000000
  -V(xc)+E(xc)   XCENC  =       -34.71517534
  PAW double counting   =      1758.45075810    -1645.81050169
  entropy T*S    EENTRO =        -0.00000000
  eigenvalues    EBANDS =      -154.88686803
  atomic energy  EATOM  =      1448.48460880
  Solvation  Ediel_sol  =         0.00000000
  ---------------------------------------------------
  free energy    TOTEN  =       -32.39359959 eV

  energy without entropy =      -32.39359959  energy(sigma->0) =      -32.39359959


--------------------------------------------------------------------------------------------------------




--------------------------------------- Iteration      1(  13)  ---------------------------------------


    POTLOK:  cpu time      0.0037: real time      0.0038
    SETDIJ:  cpu time      0.1107: real time      0.1109
     EDDAV:  cpu time      0.1857: real time      0.1868
       DOS:  cpu time      0.0004: real time      0.0004
    CHARGE:  cpu time      0.0038: real time      0.0038
    MIXING:  cpu time      0.0004: real time      0.0004
    --------------------------------------------
      LOOP:  cpu time      0.3046: real time      0.3061

 eigenvalue-minimisations  :  2688
 total energy-change (2. order) :-0.1288814E-05  (-0.2637294E-06)
 number of electron      39.9999971 magnetization 
 augmentation part       -7.3525596 magnetization 

 Broyden mixing:
  rms(total) = 0.16052E-03    rms(broyden)= 0.16052E-03
  rms(prec ) = 0.18895E-03
  weight for this iteration     100.00

 eigenvalues of (default mixing * dielectric matrix)
  average eigenvalue GAMMA=   1.6798
  3.0527  2.6051  1.9079  1.5620  1.1854  1.0109  1.0574  1.0574

 Free energy of the ion-electron system (eV)
  ---------------------------------------------------
  alpha Z        PSCENC =        67.40878452
  Ewald energy   TEWEN  =     -1272.89707911
  -Hartree energ DENC   =      -198.43213903
  -exchange      EXHF   =         0.00000000
  -V(xc)+E(xc)   XCENC  =       -34.71442431
  PAW double counting   =      1758.75215780    -1646.11187951
  entropy T*S    EENTRO =        -0.00000000
  eigenvalues    EBANDS =      -154.88363004
  atomic energy  EATOM  =      1448.48460880
  Solvation  Ediel_sol  =         0.00000000
  ---------------------------------------------------
  free energy    TOTEN  =       -32.39360088 eV

  energy without entropy =      -32.39360088  energy(sigma->0) =      -32.39360088


--------------------------------------------------------------------------------------------------------




--------------------------------------- Iteration      1(  14)  ---------------------------------------


    POTLOK:  cpu time      0.0038: real time      0.0039
    SETDIJ:  cpu time      0.1130: real time      0.1132
     EDDAV:  cpu time      0.1174: real time      0.1179
       DOS:  cpu time      0.0004: real time      0.0004
    --------------------------------------------
      LOOP:  cpu time      0.2345: real time      0.2354

 eigenvalue-minimisations  :  1328
 total energy-change (2. order) :-0.2000156E-06  (-0.2833062E-07)
 number of electron      39.9999971 magnetization 
 augmentation part       -7.3525596 magnetization 

 Free energy of the ion-electron system (eV)
  ---------------------------------------------------
  alpha Z        PSCENC =        67.40878452
  Ewald energy   TEWEN  =     -1272.89707911
  -Hartree energ DENC   =      -198.43417180
  -exchange      EXHF   =         0.00000000
  -V(xc)+E(xc)   XCENC  =       -34.71429852
  PAW double counting   =      1758.72366701    -1646.08337944
  entropy T*S    EENTRO =        -0.00000000
  eigenvalues    EBANDS =      -154.88173254
  atomic energy  EATOM  =      1448.48460880
  Solvation  Ediel_sol  =         0.00000000
  ---------------------------------------------------
  free energy    TOTEN  =       -32.39360108 eV

  energy without entropy =      -32.39360108  energy(sigma->0) =      -32.39360108


--------------------------------------------------------------------------------------------------------




 average (electrostatic) potential at core
  the test charge radii are     1.1631  1.0808
  (the norm of the test charge is              1.0000)
       1 -35.6124       2 -35.6124       3 -35.6124       4 -35.6124       5 -56.5824
       6 -56.5824       7 -56.5824       8 -56.5824
 
 
 
 E-fermi :   1.2629     XC(G=0):  -8.1227     alpha+bet : -6.7154

 Fermi energy:         1.2629439707

 k-point     1 :       0.0000    0.0000    0.0000
  band No.  band energies     occupation 
      1     -11.8561      2.00000
      2     -11.6937      2.00000
      3     -10.8007      2.00000
      4     -10.6314      2.00000
      5      -6.6594      2.00000
      6      -6.2596      2.00000
      7      -4.7587      2.00000
      8      -4.7581      2.00000
      9      -2.4940      2.00000
     10      -2.1815      2.00000
     11      -1.9046      2.00000
     12      -1.3319      2.00000
     13      -1.1188      2.00000
     14      -0.7624      2.00000
     15      -0.7561      2.00000
     16      -0.3215      2.00000
     17       0.4986      2.00000
     18       0.5263      2.00000
     19       0.8110      2.00000
     20       1.0279      2.00000
     21       2.3364      0.00000
     22       2.7006      0.00000
     23       3.1097      0.00000
     24       3.2881      0.00000
     25       3.6124      0.00000
     26       3.7281      0.00000
     27       4.1527      0.00000
     28       4.7855      0.00000
     29       5.4952      0.00000
     30       5.5662      0.00000
     31       6.2491      0.00000
     32       6.8378      0.00000

 k-point     2 :       0.1667    0.0000    0.0000
  band No.  band energies     occupation 
      1     -11.7791      2.00000
      2     -11.6236      2.00000
      3     -10.8541      2.00000
      4     -10.7012      2.00000
      5      -6.6379      2.00000
      6      -6.1842      2.00000
      7      -5.0275      2.00000
      8      -4.8971      2.00000
      9      -2.3310      2.00000
     10      -2.0643      2.00000
     11      -1.8002      2.00000
     12      -1.1385      2.00000
     13      -1.1054      2.00000
     14      -0.7800      2.00000
     15      -0.7268      2.00000
     16      -0.4189      2.00000
     17       0.4169      2.00000
     18       0.4507      2.00000
     19       0.5355      2.00000
     20       0.9456      2.00000
     21       2.3744      0.00000
     22       2.4132      0.00000
     23       2.9440      0.00000
     24       3.2326      0.00000
     25       3.5335      0.00000
     26       3.6666      0.00000
     27       4.0102      0.00000
     28       5.0419      0.00000
     29       5.0754      0.00000
     30       5.7404      0.00000
     31       5.8178      0.00000
     32       6.5329      0.00000

 k-point     3 :       0.3333    0.0000    0.0000
  band No.  band energies     occupation 
      1     -11.5678      2.00000
      2     -11.4309      2.00000
      3     -11.0200      2.00000
      4     -10.8969      2.00000
      5      -6.4941      2.00000
      6      -5.9750      2.00000
      7      -5.5918      2.00000
      8      -5.2462      2.00000
      9      -1.8910      2.00000
     10      -1.7353      2.00000
     11      -1.5142      2.00000
     12      -1.0807      2.00000
     13      -0.9189      2.00000
     14      -0.7211      2.00000
     15      -0.6502      2.00000
     16      -0.6078      2.00000
     17      -0.0947      2.00000
     18       0.1038      2.00000
     19       0.3518      2.00000
     20       0.5976      2.00000
     21       1.9632      0.00000
     22       2.3329      0.00000
     23       2.6727      0.00000
     24       3.2294      0.00000
     25       3.3210      0.00000
     26       3.9300      0.00000
     27       3.9536      0.00000
     28       4.1962      0.00000
     29       4.9811      0.00000
     30       5.5245      0.00000
     31       5.6861      0.00000
     32       6.3526      0.00000

 k-point     4 :       0.5000    0.0000    0.0000
  band No.  band energies     occupation 
      1     -11.2831      2.00000
      2     -11.2831      2.00000
      3     -11.1655      2.00000
      4     -11.1655      2.00000
      5      -6.1364      2.00000
      6      -6.1364      2.00000
      7      -5.6459      2.00000
      8      -5.6459      2.00000
      9      -1.3002      2.00000
     10      -1.3002      2.00000
     11      -1.2811      2.00000
     12      -1.2811      2.00000
     13      -1.1282      2.00000
     14      -1.1282      2.00000
     15      -0.5446      2.00000
     16      -0.5446      2.00000
     17      -0.0407      2.00000
     18      -0.0407      2.00000
     19       0.1361      2.00000
     20       0.1361      2.00000
     21       2.0255      0.00000
     22       2.0255      0.00000
     23       2.8851      0.00000
     24       2.8851      0.00000
     25       3.5287      0.00000
     26       3.5287      0.00000
     27       4.2661      0.00000
     28       4.2661      0.00000
     29       4.6544      0.00000
     30       4.6544      0.00000
     31       6.2811      0.00000
     32       6.2811      0.00000

 k-point     5 :       0.0000    0.1667    0.0000
  band No.  band energies     occupation 
      1     -11.7578      2.00000
      2     -11.6054      2.00000
      3     -10.8073      2.00000
      4     -10.6718      2.00000
      5      -6.7337      2.00000
      6      -6.3526      2.00000
      7      -5.1542      2.00000
      8      -5.0371      2.00000
      9      -2.3826      2.00000
     10      -2.0994      2.00000
     11      -1.8636      2.00000
     12      -1.2742      2.00000
     13      -0.9783      2.00000
     14      -0.7014      2.00000
     15      -0.4597      2.00000
     16      -0.3985      2.00000
     17       0.4684      2.00000
     18       0.5435      2.00000
     19       0.7299      2.00000
     20       0.9388      2.00000
     21       2.7844      0.00000
     22       2.9201      0.00000
     23       3.0672      0.00000
     24       3.3782      0.00000
     25       3.6143      0.00000
     26       3.6820      0.00000
     27       3.7835      0.00000
     28       4.8288      0.00000
     29       5.0009      0.00000
     30       5.4544      0.00000
     31       5.8298      0.00000
     32       6.7094      0.00000

 k-point     6 :       0.1667    0.1667    0.0000
  band No.  band energies     occupation 
      1     -11.6859      2.00000
      2     -11.5407      2.00000
      3     -10.8535      2.00000
      4     -10.7289      2.00000
      5      -6.6936      2.00000
      6      -6.2735      2.00000
      7      -5.2596      2.00000
      8      -5.2120      2.00000
      9      -2.2526      2.00000
     10      -2.2254      2.00000
     11      -1.9293      2.00000
     12      -1.2651      2.00000
     13      -0.7314      2.00000
     14      -0.6513      2.00000
     15      -0.5556      2.00000
     16      -0.4975      2.00000
     17       0.4054      2.00000
     18       0.4326      2.00000
     19       0.5428      2.00000
     20       0.8683      2.00000
     21       2.6741      0.00000
     22       2.7151      0.00000
     23       2.8677      0.00000
     24       3.2873      0.00000
     25       3.6784      0.00000
     26       3.7893      0.00000
     27       4.0925      0.00000
     28       4.7612      0.00000
     29       5.1185      0.00000
     30       5.5763      0.00000
     31       5.6148      0.00000
     32       6.4113      0.00000

 k-point     7 :      -0.1667    0.1667    0.0000
  band No.  band energies     occupation 
      1     -11.6859      2.00000
      2     -11.5407      2.00000
      3     -10.8535      2.00000
      4     -10.7289      2.00000
      5      -6.6936      2.00000
      6      -6.2735      2.00000
      7      -5.2596      2.00000
      8      -5.2120      2.00000
      9      -2.2526      2.00000
     10      -2.2254      2.00000
     11      -1.9293      2.00000
     12      -1.2651      2.00000
     13      -0.7314      2.00000
     14      -0.6513      2.00000
     15      -0.5556      2.00000
     16      -0.4975      2.00000
     17       0.4054      2.00000
     18       0.4326      2.00000
     19       0.5428      2.00000
     20       0.8683      2.00000
     21       2.6741      0.00000
     22       2.7151      0.00000
     23       2.8677      0.00000
     24       3.2873      0.00000
     25       3.6784      0.00000
     26       3.7893      0.00000
     27       4.0925      0.00000
     28       4.7612      0.00000
     29       5.1185      0.00000
     30       5.5763      0.00000
     31       5.6148      0.00000
     32       6.4113      0.00000

 k-point     8 :       0.3333    0.1667    0.0000
  band No.  band energies     occupation 
      1     -11.4905      2.00000
      2     -11.3645      2.00000
      3     -10.9980      2.00000
      4     -10.8931      2.00000
      5      -6.5270      2.00000
      6      -6.0641      2.00000
      7      -5.7005      2.00000
      8      -5.4610      2.00000
      9      -2.2751      2.00000
     10      -1.9029      2.00000
     11      -1.8983      2.00000
     12      -1.4967      2.00000
     13      -1.0916      2.00000
     14      -0.6755      2.00000
     15      -0.4661      2.00000
     16      -0.2625      2.00000
     17       0.2332      2.00000
     18       0.2483      2.00000
     19       0.3877      2.00000
     20       0.7421      2.00000
     21       2.3310      0.00000
     22       2.4944      0.00000
     23       2.5736      0.00000
     24       2.8783      0.00000
     25       4.0365      0.00000
     26       4.1002      0.00000
     27       4.2742      0.00000
     28       4.6612      0.00000
     29       5.3361      0.00000
     30       5.4427      0.00000
     31       5.5917      0.00000
     32       6.1051      0.00000

 k-point     9 :      -0.3333    0.1667    0.0000
  band No.  band energies     occupation 
      1     -11.4905      2.00000
      2     -11.3645      2.00000
      3     -10.9980      2.00000
      4     -10.8931      2.00000
      5      -6.5270      2.00000
      6      -6.0641      2.00000
      7      -5.7005      2.00000
      8      -5.4610      2.00000
      9      -2.2751      2.00000
     10      -1.9029      2.00000
     11      -1.8983      2.00000
     12      -1.4967      2.00000
     13      -1.0916      2.00000
     14      -0.6755      2.00000
     15      -0.4661      2.00000
     16      -0.2625      2.00000
     17       0.2332      2.00000
     18       0.2483      2.00000
     19       0.3877      2.00000
     20       0.7421      2.00000
     21       2.3310      0.00000
     22       2.4944      0.00000
     23       2.5736      0.00000
     24       2.8783      0.00000
     25       4.0365      0.00000
     26       4.1002      0.00000
     27       4.2742      0.00000
     28       4.6612      0.00000
     29       5.3361      0.00000
     30       5.4427      0.00000
     31       5.5917      0.00000
     32       6.1051      0.00000

 k-point    10 :       0.5000    0.1667    0.0000
  band No.  band energies     occupation 
      1     -11.2317      2.00000
      2     -11.2317      2.00000
      3     -11.1266      2.00000
      4     -11.1266      2.00000
      5      -6.1819      2.00000
      6      -6.1819      2.00000
      7      -5.7712      2.00000
      8      -5.7712      2.00000
      9      -2.0320      2.00000
     10      -2.0320      2.00000
     11      -1.5951      2.00000
     12      -1.5951      2.00000
     13      -1.2401      2.00000
     14      -1.2401      2.00000
     15      -0.2092      2.00000
     16      -0.2092      2.00000
     17       0.2343      2.00000
     18       0.2343      2.00000
     19       0.5107      2.00000
     20       0.5107      2.00000
     21       2.2180      0.00000
     22       2.2180      0.00000
     23       2.5765      0.00000
     24       2.5765      0.00000
     25       4.2939      0.00000
     26       4.2939      0.00000
     27       4.6372      0.00000
     28       4.6372      0.00000
     29       4.9319      0.00000
     30       4.9319      0.00000
     31       6.0353      0.00000
     32       6.0353      0.00000

 k-point    11 :       0.0000    0.3333    0.0000
  band No.  band energies     occupation 
      1     -11.4892      2.00000
      2     -11.3708      2.00000
      3     -10.8785      2.00000
      4     -10.8317      2.00000
      5      -6.7879      2.00000
      6      -6.4257      2.00000
      7      -5.9180      2.00000
      8      -5.6457      2.00000
      9      -2.0882      2.00000
     10      -1.8806      2.00000
     11      -1.6382      2.00000
     12      -1.1526      2.00000
     13      -0.6267      2.00000
     14      -0.6223      2.00000
     15      -0.4367      2.00000
     16      -0.1256      2.00000
     17       0.2723      2.00000
     18       0.3201      2.00000
     19       0.5167      2.00000
     20       0.6072      2.00000
     21       2.4755      0.00000
     22       3.1354      0.00000
     23       3.4001      0.00000
     24       3.7360      0.00000
     25       3.8461      0.00000
     26       3.8590      0.00000
     27       4.0183      0.00000
     28       4.0362      0.00000
     29       5.2024      0.00000
     30       5.3742      0.00000
     31       5.4044      0.00000
     32       6.2926      0.00000

 k-point    12 :       0.1667    0.3333    0.0000
  band No.  band energies     occupation 
      1     -11.4345      2.00000
      2     -11.3238      2.00000
      3     -10.9003      2.00000
      4     -10.8529      2.00000
      5      -6.7272      2.00000
      6      -6.3715      2.00000
      7      -5.9230      2.00000
      8      -5.7340      2.00000
      9      -2.1890      2.00000
     10      -2.0323      2.00000
     11      -1.8645      2.00000
     12      -1.2691      2.00000
     13      -0.8613      2.00000
     14      -0.6412      2.00000
     15      -0.5363      2.00000
     16      -0.4253      2.00000
     17       0.1635      2.00000
     18       0.3618      2.00000
     19       0.6422      2.00000
     20       0.7414      2.00000
     21       2.7158      0.00000
     22       2.9276      0.00000
     23       3.3043      0.00000
     24       3.7026      0.00000
     25       3.9216      0.00000
     26       4.2560      0.00000
     27       4.2965      0.00000
     28       4.7501      0.00000
     29       5.2050      0.00000
     30       5.4253      0.00000
     31       5.5788      0.00000
     32       6.0181      0.00000

 k-point    13 :      -0.1667    0.3333    0.0000
  band No.  band energies     occupation 
      1     -11.4345      2.00000
      2     -11.3238      2.00000
      3     -10.9003      2.00000
      4     -10.8529      2.00000
      5      -6.7272      2.00000
      6      -6.3715      2.00000
      7      -5.9230      2.00000
      8      -5.7340      2.00000
      9      -2.1890      2.00000
     10      -2.0323      2.00000
     11      -1.8645      2.00000
     12      -1.2691      2.00000
     13      -0.8613      2.00000
     14      -0.6412      2.00000
     15      -0.5363      2.00000
     16      -0.4253      2.00000
     17       0.1635      2.00000
     18       0.3618      2.00000
     19       0.6422      2.00000
     20       0.7414      2.00000
     21       2.7158      0.00000
     22       2.9276      0.00000
     23       3.3043      0.00000
     24       3.7026      0.00000
     25       3.9216      0.00000
     26       4.2560      0.00000
     27       4.2965      0.00000
     28       4.7501      0.00000
     29       5.2050      0.00000
     30       5.4253      0.00000
     31       5.5788      0.00000
     32       6.0181      0.00000

 k-point    14 :       0.3333    0.3333    0.0000
  band No.  band energies     occupation 
      1     -11.2913      2.00000
      2     -11.2013      2.00000
      3     -10.9758      2.00000
      4     -10.9254      2.00000
      5      -6.5531      2.00000
      6      -6.2309      2.00000
      7      -5.9961      2.00000
      8      -5.9411      2.00000
      9      -2.5028      2.00000
     10      -2.0533      2.00000
     11      -1.9890      2.00000
     12      -1.7429      2.00000
     13      -1.3011      2.00000
     14      -0.9913      2.00000
     15      -0.9270      2.00000
     16      -0.4631      2.00000
     17       0.0180      2.00000
     18       0.5612      2.00000
     19       0.6866      2.00000
     20       0.8042      2.00000
     21       2.5494      0.00000
     22       3.2281      0.00000
     23       3.4077      0.00000
     24       3.8593      0.00000
     25       4.6268      0.00000
     26       4.6411      0.00000
     27       4.8307      0.00000
     28       5.2687      0.00000
     29       5.3703      0.00000
     30       5.4333      0.00000
     31       5.7216      0.00000
     32       5.8298      0.00000

 k-point    15 :      -0.3333    0.3333    0.0000
  band No.  band energies     occupation 
      1     -11.2913      2.00000
      2     -11.2013      2.00000
      3     -10.9758      2.00000
      4     -10.9254      2.00000
      5      -6.5531      2.00000
      6      -6.2309      2.00000
      7      -5.9961      2.00000
      8      -5.9411      2.00000
      9      -2.5028      2.00000
     10      -2.0533      2.00000
     11      -1.9890      2.00000
     12      -1.7429      2.00000
     13      -1.3011      2.00000
     14      -0.9913      2.00000
     15      -0.9270      2.00000
     16      -0.4631      2.00000
     17       0.0180      2.00000
     18       0.5612      2.00000
     19       0.6866      2.00000
     20       0.8042      2.00000
     21       2.5494      0.00000
     22       3.2281      0.00000
     23       3.4077      0.00000
     24       3.8593      0.00000
     25       4.6268      0.00000
     26       4.6411      0.00000
     27       4.8307      0.00000
     28       5.2687      0.00000
     29       5.3703      0.00000
     30       5.4333      0.00000
     31       5.7216      0.00000
     32       5.8298      0.00000

 k-point    16 :       0.5000    0.3333    0.0000
  band No.  band energies     occupation 
      1     -11.1162      2.00000
      2     -11.1162      2.00000
      3     -11.0512      2.00000
      4     -11.0512      2.00000
      5      -6.2872      2.00000
      6      -6.2872      2.00000
      7      -6.0671      2.00000
      8      -6.0671      2.00000
      9      -2.4173      2.00000
     10      -2.4173      2.00000
     11      -1.8804      2.00000
     12      -1.8804      2.00000
     13      -1.4497      2.00000
     14      -1.4497      2.00000
     15      -0.7157      2.00000
     16      -0.7157      2.00000
     17       0.2173      2.00000
     18       0.2173      2.00000
     19       0.7769      2.00000
     20       0.7769      2.00000
     21       3.0234      0.00000
     22       3.0234      0.00000
     23       3.6165      0.00000
     24       3.6165      0.00000
     25       4.8830      0.00000
     26       4.8830      0.00000
     27       5.3188      0.00000
     28       5.3188      0.00000
     29       5.5078      0.00000
     30       5.5078      0.00000
     31       5.7148      0.00000
     32       5.7148      0.00000

 k-point    17 :       0.0000    0.5000    0.0000
  band No.  band energies     occupation 
      1     -11.1356      2.00000
      2     -11.1356      2.00000
      3     -11.0843      2.00000
      4     -11.0843      2.00000
      5      -6.5367      2.00000
      6      -6.5367      2.00000
      7      -6.1923      2.00000
      8      -6.1923      2.00000
      9      -1.8068      2.00000
     10      -1.8068      2.00000
[...]
     32       5.6393      0.00000

 k-point    32 :       0.1667    0.3333    0.5000
  band No.  band energies     occupation 
      1     -11.3832      2.00000
      2     -11.3832      2.00000
      3     -10.8727      2.00000
      4     -10.8727      2.00000
      5      -6.5602      2.00000
      6      -6.5602      2.00000
      7      -5.8294      2.00000
      8      -5.8294      2.00000
      9      -2.0766      2.00000
     10      -2.0766      2.00000
     11      -1.5603      2.00000
     12      -1.5603      2.00000
     13      -0.7699      2.00000
     14      -0.7699      2.00000
     15      -0.4626      2.00000
     16      -0.4626      2.00000
     17       0.1586      2.00000
     18       0.1586      2.00000
     19       0.6814      2.00000
     20       0.6814      2.00000
     21       3.0398      0.00000
     22       3.0398      0.00000
     23       3.5316      0.00000
     24       3.5316      0.00000
     25       3.8061      0.00000
     26       3.8061      0.00000
     27       4.7585      0.00000
     28       4.7585      0.00000
     29       5.3221      0.00000
     30       5.3221      0.00000
     31       5.6274      0.00000
     32       5.6274      0.00000

 k-point    33 :      -0.1667    0.3333    0.5000
  band No.  band energies     occupation 
      1     -11.3832      2.00000
      2     -11.3832      2.00000
      3     -10.8727      2.00000
      4     -10.8727      2.00000
      5      -6.5602      2.00000
      6      -6.5602      2.00000
      7      -5.8294      2.00000
      8      -5.8294      2.00000
      9      -2.0766      2.00000
     10      -2.0766      2.00000
     11      -1.5603      2.00000
     12      -1.5603      2.00000
     13      -0.7699      2.00000
     14      -0.7699      2.00000
     15      -0.4626      2.00000
     16      -0.4626      2.00000
     17       0.1586      2.00000
     18       0.1586      2.00000
     19       0.6814      2.00000
     20       0.6814      2.00000
     21       3.0398      0.00000
     22       3.0398      0.00000
     23       3.5316      0.00000
     24       3.5316      0.00000
     25       3.8061      0.00000
     26       3.8061      0.00000
     27       4.7585      0.00000
     28       4.7585      0.00000
     29       5.3221      0.00000
     30       5.3221      0.00000
     31       5.6274      0.00000
     32       5.6274      0.00000

 k-point    34 :       0.3333    0.3333    0.5000
  band No.  band energies     occupation 
      1     -11.2506      2.00000
      2     -11.2506      2.00000
      3     -10.9464      2.00000
      4     -10.9464      2.00000
      5      -6.4084      2.00000
      6      -6.4084      2.00000
      7      -5.9579      2.00000
      8      -5.9579      2.00000
      9      -2.3141      2.00000
     10      -2.3141      2.00000
     11      -1.6804      2.00000
     12      -1.6804      2.00000
     13      -1.3485      2.00000
     14      -1.3485      2.00000
     15      -0.7677      2.00000
     16      -0.7677      2.00000
     17       0.3476      2.00000
     18       0.3476      2.00000
     19       0.7854      2.00000
     20       0.7854      2.00000
     21       3.1397      0.00000
     22       3.1397      0.00000
     23       3.6338      0.00000
     24       3.6338      0.00000
     25       4.4565      0.00000
     26       4.4565      0.00000
     27       4.8696      0.00000
     28       4.8696      0.00000
     29       5.3843      0.00000
     30       5.3843      0.00000
     31       5.6603      0.00000
     32       5.6603      0.00000

 k-point    35 :      -0.3333    0.3333    0.5000
  band No.  band energies     occupation 
      1     -11.2506      2.00000
      2     -11.2506      2.00000
      3     -10.9464      2.00000
      4     -10.9464      2.00000
      5      -6.4084      2.00000
      6      -6.4084      2.00000
      7      -5.9579      2.00000
      8      -5.9579      2.00000
      9      -2.3141      2.00000
     10      -2.3141      2.00000
     11      -1.6804      2.00000
     12      -1.6804      2.00000
     13      -1.3485      2.00000
     14      -1.3485      2.00000
     15      -0.7677      2.00000
     16      -0.7677      2.00000
     17       0.3476      2.00000
     18       0.3476      2.00000
     19       0.7854      2.00000
     20       0.7854      2.00000
     21       3.1397      0.00000
     22       3.1397      0.00000
     23       3.6338      0.00000
     24       3.6338      0.00000
     25       4.4565      0.00000
     26       4.4565      0.00000
     27       4.8696      0.00000
     28       4.8696      0.00000
     29       5.3843      0.00000
     30       5.3843      0.00000
     31       5.6603      0.00000
     32       5.6603      0.00000

 k-point    36 :       0.5000    0.3333    0.5000
  band No.  band energies     occupation 
      1     -11.1140      2.00000
      2     -11.1140      2.00000
      3     -11.0536      2.00000
      4     -11.0536      2.00000
      5      -6.2642      2.00000
      6      -6.2642      2.00000
      7      -6.0939      2.00000
      8      -6.0939      2.00000
      9      -2.1969      2.00000
     10      -2.1969      2.00000
     11      -2.1277      2.00000
     12      -2.1277      2.00000
     13      -1.2378      2.00000
     14      -1.2378      2.00000
     15      -1.1043      2.00000
     16      -1.1043      2.00000
     17       0.5456      2.00000
     18       0.5456      2.00000
     19       0.6846      2.00000
     20       0.6846      2.00000
     21       3.4636      0.00000
     22       3.4636      0.00000
     23       3.4729      0.00000
     24       3.4729      0.00000
     25       4.6357      0.00000
     26       4.6357      0.00000
     27       4.8275      0.00000
     28       4.8275      0.00000
     29       5.5738      0.00000
     30       5.5738      0.00000
     31       5.6254      0.00000
     32       5.6254      0.00000

 k-point    37 :       0.0000    0.5000    0.5000
  band No.  band energies     occupation 
      1     -11.1103      2.00000
      2     -11.1103      2.00000
      3     -11.1103      2.00000
      4     -11.1103      2.00000
      5      -6.3724      2.00000
      6      -6.3724      2.00000
      7      -6.3724      2.00000
      8      -6.3724      2.00000
      9      -1.5056      2.00000
     10      -1.5056      2.00000
     11      -1.5056      2.00000
     12      -1.5056      2.00000
     13      -0.4070      2.00000
     14      -0.4070      2.00000
     15      -0.4070      2.00000
     16      -0.4070      2.00000
     17       0.1841      2.00000
     18       0.1841      2.00000
     19       0.1841      2.00000
     20       0.1841      2.00000
     21       3.1671      0.00000
     22       3.1671      0.00000
     23       3.1671      0.00000
     24       3.1671      0.00000
     25       4.0483      0.00000
     26       4.0483      0.00000
     27       4.0483      0.00000
     28       4.0483      0.00000
     29       5.5306      0.00000
     30       5.5306      0.00000
     31       5.5306      0.00000
     32       5.5306      0.00000

 k-point    38 :       0.1667    0.5000    0.5000
  band No.  band energies     occupation 
      1     -11.0914      2.00000
      2     -11.0914      2.00000
      3     -11.0914      2.00000
      4     -11.0914      2.00000
      5      -6.3513      2.00000
      6      -6.3513      2.00000
      7      -6.3513      2.00000
      8      -6.3513      2.00000
      9      -1.7092      2.00000
     10      -1.7092      2.00000
     11      -1.7092      2.00000
     12      -1.7092      2.00000
     13      -0.7701      2.00000
     14      -0.7701      2.00000
     15      -0.7701      2.00000
     16      -0.7701      2.00000
     17       0.4217      2.00000
     18       0.4217      2.00000
     19       0.4217      2.00000
     20       0.4217      2.00000
     21       3.2919      0.00000
     22       3.2919      0.00000
     23       3.2919      0.00000
     24       3.2919      0.00000
     25       4.5158      0.00000
     26       4.5158      0.00000
     27       4.5158      0.00000
     28       4.5158      0.00000
     29       5.4467      0.00000
     30       5.4467      0.00000
     31       5.4467      0.00000
     32       5.4467      0.00000

 k-point    39 :       0.3333    0.5000    0.5000
  band No.  band energies     occupation 
      1     -11.0528      2.00000
      2     -11.0528      2.00000
      3     -11.0528      2.00000
      4     -11.0528      2.00000
      5      -6.3109      2.00000
      6      -6.3109      2.00000
      7      -6.3109      2.00000
      8      -6.3109      2.00000
      9      -1.9862      2.00000
     10      -1.9862      2.00000
     11      -1.9862      2.00000
     12      -1.9862      2.00000
     13      -1.3113      2.00000
     14      -1.3113      2.00000
     15      -1.3113      2.00000
     16      -1.3113      2.00000
     17       0.6095      2.00000
     18       0.6095      2.00000
     19       0.6095      2.00000
     20       0.6095      2.00000
     21       3.7889      0.00000
     22       3.7889      0.00000
     23       3.7889      0.00000
     24       3.7889      0.00000
     25       4.8160      0.00000
     26       4.8160      0.00000
     27       4.8160      0.00000
     28       4.8160      0.00000
     29       5.6904      0.00000
     30       5.6904      0.00000
     31       5.6904      0.00000
     32       5.6904      0.00000

 k-point    40 :       0.5000    0.5000    0.5000
  band No.  band energies     occupation 
      1     -11.0330      2.00000
      2     -11.0330      2.00000
      3     -11.0330      2.00000
      4     -11.0330      2.00000
      5      -6.2920      2.00000
      6      -6.2920      2.00000
      7      -6.2920      2.00000
      8      -6.2920      2.00000
      9      -2.0448      2.00000
     10      -2.0448      2.00000
     11      -2.0448      2.00000
     12      -2.0448      2.00000
     13      -1.6031      2.00000
     14      -1.6031      2.00000
     15      -1.6031      2.00000
     16      -1.6031      2.00000
     17       0.6756      2.00000
     18       0.6756      2.00000
     19       0.6756      2.00000
     20       0.6756      2.00000
     21       4.0174      0.00000
     22       4.0174      0.00000
     23       4.0174      0.00000
     24       4.0174      0.00000
     25       4.8158      0.00000
     26       4.8158      0.00000
     27       4.8158      0.00000
     28       4.8158      0.00000
     29       5.9943      0.00000
     30       5.9943      0.00000
     31       5.9943      0.00000
     32       5.9943      0.00000


--------------------------------------------------------------------------------------------------------


 soft charge-density along one line, spin component            1
         0         1         2         3         4         5         6         7         8         9
 total charge-density along one line
 
 pseudopotential strength for first ion, spin component:            1
 15.137  18.904  -0.000   0.054   0.022  -0.000   0.097   0.039
 18.904  23.624  -0.000   0.068   0.028  -0.000   0.123   0.050
 -0.000  -0.000   3.326  -0.000  -0.000   5.670  -0.000  -0.000
  0.054   0.068  -0.000   3.318   0.001  -0.000   5.656   0.002
  0.022   0.028  -0.000   0.001   3.329  -0.000   0.002   5.675
 -0.000  -0.000   5.670  -0.000  -0.000   9.725  -0.000  -0.000
  0.097   0.123  -0.000   5.656   0.002  -0.000   9.703   0.004
  0.039   0.050  -0.000   0.002   5.675  -0.000   0.004   9.733
 -0.000  -0.000   0.001   0.000   0.000   0.003   0.000   0.000
 -0.000  -0.000   0.014  -0.000   0.000   0.025  -0.000   0.000
 -0.012  -0.014  -0.000   0.014  -0.000  -0.000   0.026  -0.001
  0.003   0.004   0.000   0.008   0.013   0.000   0.014   0.025
  0.003   0.004   0.000  -0.000   0.007   0.000  -0.000   0.013
 total augmentation occupancy for first ion, spin component:            1
  2.408  -0.472   0.000   0.455   0.071  -0.000  -0.080   0.006  -0.000  -0.000   0.025  -0.037  -0.013
 -0.472   0.522  -0.000  -0.578  -0.167   0.000   0.087   0.016  -0.000  -0.000  -0.020   0.035   0.018
  0.000  -0.000   0.969  -0.000   0.000  -0.148   0.000  -0.000   0.083   0.033  -0.000   0.000   0.000
  0.455  -0.578  -0.000   1.399  -0.160   0.000  -0.207   0.039   0.000  -0.000   0.125  -0.072   0.004
  0.071  -0.167   0.000  -0.160   0.844  -0.000   0.040  -0.118  -0.000  -0.000  -0.073   0.056  -0.034
 -0.000   0.000  -0.148   0.000  -0.000   0.025  -0.000   0.000  -0.013  -0.005   0.000  -0.000   0.000
 -0.080   0.087   0.000  -0.207   0.040  -0.000   0.036  -0.009  -0.000  -0.000  -0.021   0.011  -0.001
  0.006   0.016  -0.000   0.039  -0.118   0.000  -0.009   0.019  -0.000   0.000   0.012  -0.009   0.005
 -0.000  -0.000   0.083   0.000  -0.000  -0.013  -0.000  -0.000   0.014  -0.001   0.000  -0.000   0.000
 -0.000  -0.000   0.033  -0.000  -0.000  -0.005  -0.000   0.000  -0.001   0.008  -0.000  -0.000   0.000
  0.025  -0.020  -0.000   0.125  -0.073   0.000  -0.021   0.012   0.000  -0.000   0.025  -0.008   0.005
 -0.037   0.035   0.000  -0.072   0.056  -0.000   0.011  -0.009  -0.000  -0.000  -0.008   0.013  -0.003
 -0.013   0.018   0.000   0.004  -0.034   0.000  -0.001   0.005   0.000   0.000   0.005  -0.003   0.007


------------------------ aborting loop because EDIFF is reached ----------------------------------------


    CHARGE:  cpu time      0.0040: real time      0.0040
    FORLOC:  cpu time      0.0002: real time      0.0002
    FORNL :  cpu time      0.0239: real time      0.0240
    STRESS:  cpu time      0.2390: real time      0.2399
    FORCOR:  cpu time      0.0037: real time      0.0037
    FORHAR:  cpu time      0.0010: real time      0.0010
    MIXING:  cpu time      0.0006: real time      0.0006
    OFIELD:  cpu time      0.0000: real time      0.0000

  FORCE on cell =-STRESS in cart. coord.  units (eV):
  Direction    XX          YY          ZZ          XY          YZ          ZX
  --------------------------------------------------------------------------------------
  Alpha Z    67.40878    67.40878    67.40878
  Ewald    -476.71196  -364.96920  -431.21727     0.00000    -0.00000    -0.00000
  Hartree    57.17977    97.54173    43.71175    -0.00000    -0.00000     0.00000
  E(xc)    -138.90847  -138.16966  -139.59643     0.00000     0.00000    -0.00000
  Local    -128.17378  -273.73467  -163.80930     0.00000    -0.00000    -0.00000
  n-local   233.81564   234.08641   242.60347    -0.00000     0.00000     0.00000
  augment   -11.88078   -11.22887   -12.44287    -0.00000    -0.00000    -0.00000
  Kinetic   393.19576   377.86584   392.11449     0.00000    -0.00000    -0.00000
  Fock        0.00000     0.00000     0.00000     0.00000     0.00000     0.00000
  -------------------------------------------------------------------------------------
  Total      -4.07505   -11.19965    -1.22738     0.00000    -0.00000    -0.00000
  in kB     -25.97360   -71.38451    -7.82311     0.00000    -0.00000    -0.00000
  external pressure =      -35.06 kB  Pullay stress =        0.00 kB


 VOLUME and BASIS-vectors are now :
 -----------------------------------------------------------------------------
  energy-cutoff  :      360.00
  volume of cell :      251.37
      direct lattice vectors                 reciprocal lattice vectors
     4.800000000  0.000000000  0.000000000     0.208333333  0.000000000  0.000000000
     0.000000000  4.700000000  0.000000000     0.000000000  0.212765957  0.000000000
     0.000000000  0.000000000 11.142221000     0.000000000  0.000000000  0.089748713

  length of vectors
     4.800000000  4.700000000 11.142221000     0.208333333  0.212765957  0.089748713


 FORCES acting on ions
    electron-ion (+dipol)            ewald-force                    non-local-force                 convergence-correction
 -----------------------------------------------------------------------------------------------
   0.582E+01 0.173E-07 0.317E+02   -.780E+01 -.283E-14 -.350E+02   0.208E+01 -.172E-07 0.338E+01   0.317E-04 -.144E-07 0.119E-03
   0.582E+01 -.191E-07 -.317E+02   -.780E+01 0.198E-14 0.350E+02   0.208E+01 0.486E-08 -.338E+01   0.317E-04 0.160E-07 -.120E-03
   -.582E+01 -.102E-07 -.317E+02   0.780E+01 -.410E-15 0.350E+02   -.208E+01 0.144E-07 -.338E+01   -.318E-04 0.110E-07 -.119E-03
   -.582E+01 0.718E-08 0.317E+02   0.780E+01 0.110E-14 -.350E+02   -.208E+01 0.371E-08 0.338E+01   -.316E-04 -.712E-08 0.120E-03
   -.492E+01 0.189E-07 -.344E+02   0.590E+01 -.114E-14 0.365E+02   -.106E+01 0.801E-08 -.211E+01   0.502E-04 -.321E-07 0.251E-04
   -.492E+01 0.761E-07 0.344E+02   0.590E+01 0.154E-14 -.365E+02   -.106E+01 -.348E-07 0.211E+01   0.503E-04 0.143E-07 -.254E-04
   0.492E+01 -.275E-07 0.344E+02   -.590E+01 -.171E-14 -.365E+02   0.106E+01 0.855E-08 0.211E+01   -.503E-04 0.110E-07 -.248E-04
   0.492E+01 -.159E-06 -.344E+02   -.590E+01 0.506E-15 0.365E+02   0.106E+01 0.748E-07 -.211E+01   -.502E-04 -.413E-08 0.254E-04
 -----------------------------------------------------------------------------------------------
   0.168E-07 -.959E-07 -.370E-06   0.888E-15 -.972E-15 0.142E-13   -.228E-07 0.623E-07 -.955E-07   0.300E-08 -.543E-08 0.434E-06
 
 
 POSITION                                       TOTAL-FORCE (eV/Angst)
 -----------------------------------------------------------------------------------
      0.52319      1.17500      1.54386         0.095220     -0.000000      0.038452
      2.92319      3.52500      4.02725         0.095220      0.000000     -0.038454
      4.27681      3.52500      9.59836        -0.095220      0.000000     -0.038452
      1.87681      1.17500      7.11497        -0.095220      0.000000      0.038454
      4.46492      1.17500      3.89433        -0.088063     -0.000000     -0.018347
      2.06492      3.52500      1.67678        -0.088063      0.000000      0.018348
      0.33508      3.52500      7.24789         0.088063     -0.000000      0.018347
      2.73508      1.17500      9.46544         0.088063     -0.000000     -0.018348
 -----------------------------------------------------------------------------------
    total drift:                               -0.000000     -0.000000     -0.000000


--------------------------------------------------------------------------------------------------------



  FREE ENERGIE OF THE ION-ELECTRON SYSTEM (eV)
  ---------------------------------------------------
  free  energy   TOTEN  =       -32.39360108 eV

  energy  without entropy=      -32.39360108  energy(sigma->0) =      -32.39360108
 


--------------------------------------------------------------------------------------------------------


    POTLOK:  cpu time      0.1132: real time      0.1135


--------------------------------------------------------------------------------------------------------


     LOOP+:  cpu time      5.5708: real time      5.6145
    4ORBIT:  cpu time      0.0000: real time      0.0000

 total amount of memory used by VASP MPI-rank0    40888. kBytes
=======================================================================

   base      :      30000. kBytes
   nonl-proj :       8515. kBytes
   fftplans  :        419. kBytes
   grid      :        607. kBytes
   one-center:         16. kBytes
   wavefun   :       1331. kBytes
 
  
  
 General timing and accounting informations for this job:
 ========================================================
  
                  Total CPU time used (sec):        6.462
                            User time (sec):        6.126
                          System time (sec):        0.335
                         Elapsed time (sec):        7.909
  
                   Maximum memory used (kb):      194388.
                   Average memory used (kb):          N/A
  
                          Minor page faults:        22386
                          Major page faults:           37
                 Voluntary context switches:         2859
