72
Lattice="12.456363884068208 -5.2919401116e-06 -4.2767286115e-06 -5.3137241907e-06 12.507639579494402 1.8377192375e-06 -4.8881843929e-06 2.0918520339e-06 11.060059692971993" Properties=species:S:1:pos:R:3:forces:R:3:magmoms:R:1 energy=-300.54133608 stress="0.001731117027918624 0.00047132992093152384 -0.00026989610532706634 0.00047132992093152384 -0.000501475467541662 -0.001789255911479095 -0.00026989610532706634 -0.001789255911479095 -0.0028077711168658696" dipole="_JSON [[0.0, 0.0, 0.0]]" magmom=0.0016655 free_energy=-300.54133608 pbc="T T T"
Ge       0.75893896       0.36942608       1.50851217       0.34423686       0.20894998       0.20761494       0.00000000
Ge       3.39756240      10.42163990       4.27423746      -0.14014854       0.43510971      -0.36424121       0.00000000
Ge       7.12703869       2.56447880       4.23137253       0.24216038      -0.14944127      -0.21140626       0.00000000
Ge       7.27013839       6.33666012       3.88479283       0.36760967       0.10901496      -0.49367337       0.00000000
Ge       7.19496965      11.14269691       4.18149583      -0.06157744       0.25015237      -0.13926861      -0.00000000
Ge      11.56332576       2.32274462       4.52185321       0.13668006      -0.21975180      -0.63323758       0.00000000
Ge      11.30959895       6.89175969       4.14256512       0.10292879       0.09771494       0.00390660       0.00000000
Ge      11.45867378      10.56679841       4.03375519      -0.50374289      -0.00285298       0.76124767      -0.00000000
Ge       1.28460031       2.09398802       6.82681682       0.03799648       0.13458624       0.32711366       0.00000000
Ge       0.81370238       6.12428763       6.91055167       0.03427075      -0.19524714       0.52917504       0.00000000
Ge       0.99419246      10.54404101       6.98928764      -0.22237749      -0.64652037       0.13244038       0.00000000
Ge       5.04246829       2.01801170       6.92289606       0.17401383      -0.30027437      -0.16860298       0.00000000
Ge       5.13189663       6.21198107       6.85761426       0.13397415       0.29461279       0.71934282       0.00000000
Ge       5.12052540      10.07582169       7.02747318      -0.14672024       0.11327899      -0.37526956       0.00000000
Ge       9.06852285       1.92936410       7.09644299       0.03651680      -0.50292879       0.40826449       0.00000000
Ge       9.24727690       5.96459565       6.82992434      -0.27437956       0.68249690       0.43494555       0.00000000
Ge       3.11261233       6.52694858       4.37106626       0.01073351       0.04220942      -0.51226133       0.00000000
Ge       2.89173312       2.60462063       4.07958133      -0.03302336       0.39579711      -0.11148356       0.00000000
Ge       9.48852354      10.51085055       6.92827083       0.20044868      -0.20263743       0.16177525       0.00000000
Ge      11.34645530       8.21008130       9.78966182       0.11576616      -0.01294603      -0.55542954      -0.00000000
Ge      11.60889373      12.54465191       9.72471114      -0.20133404       0.05342327      -0.10418329       0.00000000
Ge       1.00253330       4.72163958       1.32043662      -0.33377285       0.18368040      -0.00017846       0.00000000
Ge       1.26248148       8.78786691       1.23080217       0.06431524      -0.09788503       0.53836732      -0.00000000
Ge       4.89729346       0.63217120       1.46667682       0.02395476       0.02590768       0.25959684       0.00000000
Ge       5.26810335       4.54851724       1.21930399      -0.52031085       0.16220299       0.10206494       0.00000000
Ge       9.47907726       0.33338328       1.32068551       0.16402232       0.05308209       0.44332925       0.00000000
Ge       9.32502586       4.48567749       1.36007263      -0.07853189       0.28218347      -0.09809995       0.00000000
Ge       5.21731340       8.91192516       1.47214088       0.04875113       0.14796849      -0.81581350      -0.00000000
Ge       3.21953942       4.27212316       9.92090868       0.27715566       0.21868952      -0.53403539       0.00000000
Ge       2.80544547       8.08225906       9.50733134       0.10538886      -0.40838384       0.37904768      -0.00000000
Ge       3.05421409      12.36536245       9.66561478       0.01122436      -0.20133858       0.05199541       0.00000000
Ge       7.11769784       3.88784499       9.64085520       0.28906382       0.37475670       0.55919766       0.00000000
Ge       7.51341552       8.33608046       9.47947206      -0.49256931      -0.13507650       0.70563770       0.00000000
Ge       6.93991623      12.08783030       9.90526017       0.26214249      -0.07331133      -0.38127350       0.00000000
Ge      11.28502701       3.92154506       9.53486327      -0.52924313       0.42588837      -0.33634355       0.00000000
Ge       9.18640552       8.71358889       1.47809628      -0.18153742       0.25863148       0.26192638      -0.00000000
Se      11.08109305       0.09051805       7.20761953      -0.18950265       0.08820420      -0.01287231      -0.00000000
Se       2.80216773       4.30172204       7.12135117      -0.36128168      -0.09045386       0.30389565      -0.00000000
Se       2.82430139       8.51281227       7.05182301      -0.01798386       0.12815878      -0.11796261      -0.00000000
Se       6.98526825       0.24323267       7.26801217      -0.00404741       0.01990728       0.03628787      -0.00000000
Se       6.99874981       4.48062214       7.20995782       0.50711065      -0.28891946      -0.65297625      -0.00000000
Se       7.01379789       8.38831470       7.05498044      -0.29917158      -0.22612016      -0.54867654      -0.00000000
Se      11.15788369       4.39140018       6.83208621       0.38024351      -0.46775636       0.84544686      -0.00000000
Se       8.87177485       0.62499332       3.90870001      -0.06645012      -0.41133145      -0.09142719      -0.00000000
Se       0.64178355      -0.07834962       4.03309501       0.53934148       0.92157970      -0.07509147      -0.00000000
Se       0.81230650       4.26008767       3.82724696       0.06685785       0.02955500       0.54959394      -0.00000000
Se       0.83812638       8.84215626       3.87614224      -0.51629160      -0.76590873      -0.40285512      -0.00000000
Se       4.96478492       0.08280641       4.05010726       0.03110804       0.08704879      -0.27988597      -0.00000000
Se       4.70715558       4.56149511       3.77182667      -0.01394980      -0.29729672       0.16853046      -0.00000000
Se       4.97898344       8.38013135       3.87746619       0.24290324      -0.07132668       0.82960108      -0.00000000
Se       3.01169680       0.17738595       7.13192022       0.07362852       0.46758394      -0.02932189      -0.00000000
Se      11.39865728       8.66245706       7.10503194      -0.02339570       0.27504612       0.39513803      -0.00000000
Se      11.00388175      10.63126520       1.62419032      -0.17878955       0.10761059      -0.61424243      -0.00000000
Se       2.71524021       2.28307001       1.58833158       0.14713320      -0.63191196      -0.01066025      -0.00000000
Se      11.35836119       2.16440878       1.83378223      -0.45664341      -0.05651551      -0.11463935      -0.00000000
Se       9.09956426       4.22646192       3.85347299      -0.19759808       0.37083950       0.38791708      -0.00000000
Se       0.60549263       2.20388312       9.39870485       0.68548649      -0.41193031      -0.24525541      -0.00000000
Se       0.66373353       6.28867265       9.65126270       0.39092017       0.33339674      -0.86329989      -0.00000000
Se       0.96637291      10.68585301       9.56191432       0.11979036       0.26326644      -0.14597255      -0.00000000
Se       5.02792920       2.46121370       9.42609774      -0.23990065      -0.55790104       0.31819329      -0.00000000
Se       4.81813123       6.30699367       9.48123669      -0.44872573       0.35377803      -0.46599967      -0.00000000
Se       4.87509750      10.44150248       9.48804031       0.10804272       0.23375171       0.41588405      -0.00000000
Se       9.15728265       2.20584175       9.68190618      -0.22798002       0.13569109      -0.57028460      -0.00000000
Se       9.37570680       6.60887327       9.51347322      -0.08988224      -0.58943191      -0.64783981      -0.00000000
Se       9.01737611      10.37003971       9.54376606      -0.05555358       0.74477252      -0.29835805      -0.00000000
Se       2.69324230       6.62435511       1.78628359      -0.06704906      -0.00726656      -0.12988676      -0.00000000
Se       3.06228636      10.61644009       1.65497178      -0.00996727      -0.16448955       0.11154176      -0.00000000
Se       6.72841951       2.57825032       1.68632009       0.13073098      -0.69284998       0.00030208      -0.00000000
Se       7.03589447       6.34493289       1.20004040       0.36124714       0.05170528       0.96264897      -0.00000000
Se       7.10243479      10.82015933       1.60111754      -0.09211566      -0.75455186       0.23075589      -0.00000000
Se      11.06610057       6.38678480       1.64717355       0.37116886      -0.04499736      -0.11539448      -0.00000000
Se       9.06686799       8.28686341       4.03172093      -0.06351930       0.11732138      -0.27502235      -0.00000000
72
Lattice="12.454795522148482 -5.2912738114e-06 -4.2761901351e-06 -5.3120405176e-06 12.503676487768942 1.8371369494e-06 -4.8854415819e-06 2.090678274e-06 11.053853778773453" Properties=species:S:1:pos:R:3:forces:R:3:magmoms:R:1 energy=-300.60129216 stress="-0.004084466066376894 0.0017898254991189047 -0.0011418923770629523 0.0017898254991189047 -0.007225256298035229 -0.0008495986162376538 -0.0011418923770629523 -0.0008495986162376538 -0.013574380656697197" dipole="_JSON [[0.0, 0.0, 0.0]]" magmom=0.001954 free_energy=-300.60129216 pbc="T T T"
Ge       0.86270370       0.37493096       1.62130162      -0.13701480       0.07642636       0.11181655       0.00000000
Ge       3.39555993      10.72553591       4.14982162      -0.19221133      -0.43257670       0.50900892       0.00000000
Ge       7.27379901       2.51076459       4.02832264      -0.03867580      -0.03762591       0.38382048      -0.00000000
Ge       7.44998569       6.43448806       3.87009443      -0.17929917       0.19605510       0.74918342      -0.00000000
Ge       7.03523978      10.99038468       4.03501985       0.38341285      -0.44205366       0.21303334       0.00000000
Ge      11.71724659       2.19425609       4.29523692      -0.33559367       0.12509770       0.24103368       0.00000000
Ge      11.34218004       6.75570219       4.12449575      -0.10455777       0.43902437      -0.27389573      -0.00000000
Ge      11.34010400      10.91745093       3.99055573       0.23896477      -0.25961775       0.08479983       0.00000000
Ge       1.21654677       2.05576978       7.22864514      -0.04801241      -0.09287990      -0.87414981       0.00000000
Ge       0.82215799       5.76482069       6.86273940      -0.44136601       0.21967220      -0.68355836      -0.00000000
Ge       1.08788071      10.30057775       6.85559128      -0.15774582       0.27876969       0.35233343       0.00000000
Ge       5.17452749       2.05430140       6.82553884      -0.10620823      -0.02691820       0.36423301      -0.00000000
Ge       5.48745293       6.33178073       6.88663143      -0.45135854      -0.33962934      -0.09778994      -0.00000000
Ge       4.96211905      10.09332035       6.82672694       0.06301603      -0.01531136       0.40169170       0.00000000
Ge       9.13092893       1.71608981       7.20596946      -0.15367138       0.53911092      -0.53202438       0.00000000
Ge       9.38043701       6.54819672       7.09944961      -0.15610910      -0.92832446       0.26454731      -0.00000000
Ge       3.11112390       6.70649259       4.24396457       0.21965476       0.06386574      -0.30457702      -0.00000000
Ge       2.91747040       2.79687937       4.13208239      -0.00704811      -0.49705215       0.73794777       0.00000000
Ge       9.48810645      10.50139914       7.01006496      -0.43479792       0.00960051      -0.60026385       0.00000000
Ge      11.40575378       8.11059688       9.47281819      -0.25333127       0.27733589       1.18679244       0.00000000
Ge      11.54685118      12.33529119       9.71592968       0.28249808       0.02664657      -0.15737036       0.00000000
Ge       0.82950805       4.84882277       1.54707339       0.66911922      -0.69283536      -0.05488758       0.00000000
Ge       1.17879292       8.85583622       1.61494963      -0.58270437      -0.49334952      -0.40159977       0.00000000
Ge       4.82259727       0.67816714       1.34757204       0.22642535      -0.15031786       0.07210592       0.00000000
Ge       5.01724043       4.64187481       1.37093191       0.31034624       0.00553580      -0.21242600       0.00000000
Ge       9.52230739       0.28709469       1.53113119      -0.09044585       0.07765173      -0.21818165       0.00000000
Ge       9.24942051       4.71983066       1.28943872       0.14071421      -0.05498670       0.60726954       0.00000000
Ge       4.99744627       8.76712658       1.32000537      -0.14885746      -0.54989145       0.48331501       0.00000000
Ge       3.06552715       4.20451067       9.54447827       0.36625739       0.23399794       0.97674139       0.00000000
Ge       2.59692707       7.98574698       9.55408082       0.70673341       0.19572459      -0.15551294       0.00000000
Ge       3.10916949      12.27753781       9.72150431       0.01074601      -0.10522384      -0.12085370       0.00000000
Ge       7.03715599       4.05634854       9.64018917      -0.31751727       0.39987862      -0.34452979       0.00000000
Ge       7.20706594       8.43682748       9.52012194       0.28628532      -0.09269919      -0.21580625       0.00000000
Ge       7.05677862      12.31080853       9.61035811      -0.26263042      -0.09039470      -0.08195153       0.00000000
Ge      11.07225454       3.79931515       9.54929441       0.19582057       0.09360581       0.20404210       0.00000000
Ge       8.98842760       8.92160073       1.47275281       0.93638987      -0.88869756       0.11444165       0.00000000
Se      11.05515982       0.00993128       7.18888184       0.36965808       0.15900334       0.13725446      -0.00000000
Se       2.77879453       4.21032276       7.14714143       0.11678776      -0.33282040      -0.77384409      -0.00000000
Se       2.82919701       8.52297722       6.98104126       0.23930194      -0.31884798       0.27047208      -0.00000000
Se       6.96722099       0.21575947       7.05609156       0.08173001      -0.23376271       0.20319105      -0.00000000
Se       7.29181040       4.54331376       7.09346810      -0.13654803      -0.15097175       0.24466944      -0.00000000
Se       7.08038310       8.31522686       6.91813484      -0.08345696       0.59600109       0.49597961      -0.00000000
Se      11.13578874       4.21882981       7.08298585      -0.10257757       0.24589296      -0.04058454      -0.00000000
Se       8.96508569       0.25864744       4.01340966      -0.08329549       0.15352302      -0.09695279      -0.00000000
Se       0.96448624       0.18648450       4.18000222      -0.37713394      -0.43941011      -0.29199204      -0.00000000
Se       0.81743939       4.27909602       4.15797499       0.02611534       0.11879011      -0.48287207      -0.00000000
Se       0.64020851       8.75853095       4.06541151      -0.03369239      -0.15884758       0.18614071      -0.00000000
Se       5.08955147       0.05177013       3.88525584      -0.13586707       0.59829747      -0.11040175      -0.00000000
Se       4.74441974       4.48939518       3.84174440       0.23179795       0.53204199       0.43575312      -0.00000000
Se       5.01622480       8.47669253       4.05438288      -0.16554019      -0.04863024      -0.49114607      -0.00000000
Se       3.16231515       0.29056489       7.21864010      -0.26411127      -0.16322010      -0.12906789      -0.00000000
Se      11.24941182       8.63601027       7.10194093       0.30433978      -0.00546951      -0.78493263      -0.00000000
Se      11.10544250      10.59962911       1.46505746      -0.21503837       0.43488768       0.25781559      -0.00000000
Se       2.74809023       2.09504499       1.76397590       0.20572935       0.51951824      -0.86798165      -0.00000000
Se      11.26919097       2.19505661       1.78467727       0.17787793      -0.24148827      -0.33364362      -0.00000000
Se       9.07379091       4.33774599       3.98296849       0.19733994       0.01488566      -0.74629435      -0.00000000
Se       0.76324963       2.02560268       9.61933762      -0.43396616       0.16743375       0.61040451      -0.00000000
Se       0.72957337       6.28365151       9.28704510      -0.10963813      -0.14525731       0.76023920      -0.00000000
Se       1.03651512      10.54158127       9.51460419      -0.22540991       0.43363316      -0.25148491      -0.00000000
Se       4.90631661       2.39310407       9.44819428       0.48592949       0.06967345      -0.22983329      -0.00000000
Se       4.72304035       6.43197872       9.36747284       0.05514949      -0.20907121       0.18304694      -0.00000000
Se       5.02889475      10.49872487       9.43742042      -0.07214294       0.05383807      -0.18394845      -0.00000000
Se       8.85390360       2.30222562       9.66444692       0.63541004      -0.55859829       0.11547086      -0.00000000
Se       9.17839184       6.57985648       9.66967006       0.18555229       0.11940350      -0.51295071      -0.00000000
Se       8.98401099      10.58823041       9.43392486      -0.18535917      -0.34898775       0.61604250      -0.00000000
Se       2.73793144       6.70089606       1.60842034      -0.11441581      -0.31552229       0.31436821      -0.00000000
Se       3.03931010      10.49756398       1.70616403       0.15004916       0.64314107      -0.50507527      -0.00000000
Se       6.67399469       2.47711737       1.59866904       0.15408308       0.03477889      -0.35927385      -0.00000000
Se       7.07837350       6.40761223       1.43145067      -0.04762366      -0.17044407      -0.43499992      -0.00000000
Se       6.98462496      10.29351258       1.51945991      -0.18777389       1.44735899       0.11512245      -0.00000000
Se      11.37264812       6.35000937       1.54126153      -0.97819213       0.62643667       0.28063381      -0.00000000
Se       9.23391392       8.39513789       4.03254437      -0.10229587      -0.19480345      -0.32810350      -0.00000000
72
Lattice="12.45713651974332 -5.2922683568e-06 -4.2769938858e-06 -5.3161996836e-06 12.513466485877363 1.8385753717e-06 -4.8923318674e-06 2.0936269062e-06 11.069443814386537" Properties=species:S:1:pos:R:3:forces:R:3:magmoms:R:1 energy=-300.88707101 stress="0.001397844882346195 0.0007331228372396933 0.00024216088598663443 0.0007331228372396933 -0.005348055263546135 0.0009051036765696388 0.00024216088598663443 0.0009051036765696388 -0.013101984617350373" dipole="_JSON [[0.0, 0.0, 0.0]]" magmom=0.0018812 free_energy=-300.88707101 pbc="T T T"
Ge       1.07129853       0.28996936       1.41983255      -0.08346673       0.05002101      -0.07396989       0.00000000
Ge       3.01541410      10.77621769       4.02851298       0.15036824      -0.30743244       0.25880254       0.00000000
Ge       7.48173733       2.28036961       4.12067607      -0.37506370      -0.04126998       0.11806974       0.00000000
Ge       7.33300127       6.79007338       4.16744468      -0.51453113      -0.09554218       0.89801640       0.00000000
Ge       6.89368369      10.90321076       4.40721435       0.38577119      -0.06244334      -0.11364387       0.00000000
Ge      11.35409508       2.45814634       3.72735106      -0.21822519      -0.15218730       0.24778694       0.00000000
Ge      10.98907640       6.67100517       4.01016784       0.38368609       0.36053864       0.25026103       0.00000000
Ge      11.60472454      10.90175353       4.14534205       0.13385013      -0.12030899      -0.54226137       0.00000000
Ge       1.33563696       2.33369955       7.07890608      -0.30020581      -0.17976959      -0.72712319       0.00000000
Ge       0.77437350       6.00661643       7.00811809       0.55631183       0.17816924      -1.13986372       0.00000000
Ge       0.92646625      10.37193692       6.95865736       0.09253530      -0.22907304       0.51233270      -0.00000000
Ge       5.18736509       1.92251357       6.87536930      -0.11005983       0.13063153       0.55431847      -0.00000000
Ge       5.26134030       6.30115279       7.17611925       0.17343072       0.14178404      -0.86316895      -0.00000000
Ge       4.91389698      10.13008839       7.07098642       0.27586200       0.23633865       0.07191850      -0.00000000
Ge       9.07677312       1.71199966       7.00364220       0.07682164       0.36394527      -0.55941188       0.00000000
Ge       9.36652859       6.06889150       6.83233129      -0.62805793       0.28037345       0.16667798       0.00000000
Ge       3.05864746       6.54227781       3.90110322       0.17365460       0.23232358       0.30042841       0.00000000
Ge       2.89823402       2.64026135       4.02126673      -0.16007709       0.12245851       0.18658524      -0.00000000
Ge       9.45655612      10.41231632       7.02432257      -0.20718838       0.17351535      -0.22679584       0.00000000
Ge      11.19678730       8.11618451       9.66426039       0.33512805       0.19203013       0.44623642       0.00000000
Ge      11.45660664      12.67638329       9.47614966       0.39635947      -0.09410265       0.15658131       0.00000000
Ge       0.76871764       4.73062694       1.36461552      -0.28640853      -0.03655536      -0.02880607       0.00000000
Ge       1.06537604       8.53418084       1.63110607      -0.22988860       0.26290287      -0.46203182       0.00000000
Ge       5.02843670       0.42834419       1.51572956       0.16742965       0.18200039      -0.32512837       0.00000000
Ge       5.31385242       4.35033154       1.69007650      -0.24136823       0.26357781      -0.52773071       0.00000000
Ge       9.32151352       0.21334404       1.47117441      -0.06859481       0.40747691       0.07647946       0.00000000
Ge       9.09101378       4.57536497       1.37944231       0.08519874       0.12499173       0.53829494       0.00000000
Ge       5.02133262       8.53574978       1.38757485       0.21296338       0.59724579       0.20982373       0.00000000
Ge       3.30570071       4.12820479       9.76847758      -0.19515756      -0.25065513      -0.35905636       0.00000000
Ge       3.04695614       8.17908076       9.72943305      -0.30380457      -0.28360383      -0.41639835       0.00000000
Ge       2.95947719      12.53338601       9.62191635      -0.05703336      -0.03919253       0.17962227      -0.00000000
Ge       7.30096170       4.23552634       9.66840808      -0.22489529      -0.49573307      -0.46593230       0.00000000
Ge       7.27456035       8.40997139       9.79718638       0.24017138      -0.20362799      -0.59246153       0.00000000
Ge       7.19398195      12.16778319       9.73413402      -0.44087752       0.47437305       0.10819970       0.00000000
Ge      11.22549870       3.92302621       9.62222312      -0.20003705       0.23468459       0.05817061       0.00000000
Ge       9.12240464       9.16326954       1.44000004      -0.09537357      -0.13742121       0.16962547       0.00000000
Se      11.13768704       0.07288477       6.99353595      -0.25393798      -0.04548406       0.02828206      -0.00000000
Se       2.98904300       4.29598578       7.11459027      -0.41971809       0.14803344       0.37753042      -0.00000000
Se       2.88982410       8.53213456       7.18016623      -0.09689433      -0.01576522       0.10314671      -0.00000000
Se       7.06738093       0.11472955       7.19903607      -0.09908081      -0.17303321      -0.01380693      -0.00000000
Se       7.11464683       4.49597162       7.09987156       0.29146289      -0.02424077       0.28403322      -0.00000000
Se       6.99022240       8.49328075       7.21684836      -0.55172593      -0.13462594       0.38773793      -0.00000000
Se      11.23173757       4.41590980       7.08607794      -0.07372861      -0.71448609       0.01964395      -0.00000000
Se       8.99171842       0.19432690       4.06813513      -0.00955576      -0.09887590      -0.36859060      -0.00000000
Se       1.14419038       0.07892205       3.93184869      -0.72335452       0.18845302       0.19316043      -0.00000000
Se       0.71829220       4.25047884       3.88379449       0.36326114       0.23594820      -0.08159357      -0.00000000
Se       0.69082511       8.70475174       4.07988143      -0.37022170      -0.42462393       0.15986251      -0.00000000
Se       4.99152499       0.00800366       3.99745988      -0.43491547       0.58587422       0.30629149      -0.00000000
Se       4.73731037       4.54182026       4.08316955      -0.02787153      -0.30190162       0.19170922      -0.00000000
Se       4.99015971       8.49745646       3.90139618      -0.12680760      -0.65543099       0.24601878      -0.00000000
Se       2.97555087       0.33176425       7.14410211       0.29075677       0.00706335      -0.21565598      -0.00000000
Se      11.27188079       8.65078313       7.22066519       0.32561308      -0.06144337      -0.54323737      -0.00000000
Se      11.09512751      10.92496363       1.47193784       0.00817550      -0.66139660       0.62097555      -0.00000000
Se       2.91645931       2.09081970       1.53482426       0.23870839       0.39670317      -0.00661948      -0.00000000
Se      11.27682612       2.12481947       1.22161036      -0.17135584      -0.03999876       0.50767170      -0.00000000
Se       9.19756328       4.18002869       4.03941065       0.38672448       0.16153475      -0.64336304      -0.00000000
Se       0.73482307       2.29413106       9.48640656      -0.02637028      -0.35588784       0.36033007      -0.00000000
Se       0.72970559       6.44707280       9.35595433       0.27992998       0.20113288       1.42683323      -0.00000000
Se       0.90464249      10.80257776       9.51548286       0.00558796       0.06953534      -0.31130365      -0.00000000
Se       5.18935843       2.40250967       9.53689594       0.08780299       0.00063425      -0.38279664      -0.00000000
Se       4.84265032       6.15267499       9.57939748       0.24440151       0.92733086       0.75271954      -0.00000000
Se       4.89824494      10.81022160       9.62041191       0.16987937      -0.65359683      -0.26430768      -0.00000000
Se       9.09057890       2.32288116       9.42236056       0.13764435      -0.04785261       0.47862344      -0.00000000
Se       9.15342623       6.55386132       9.41639914      -0.09562270      -0.12835634      -0.03234762      -0.00000000
Se       8.99695707      10.38429552       9.55319011       0.20839002       0.15686793       0.18740702      -0.00000000
Se       2.76888250       6.51250732       1.36492121      -0.11453390      -0.10212517       0.34485950      -0.00000000
Se       2.85936754      10.42242960       1.54445255       0.33518062      -0.01232616      -0.23162917      -0.00000000
Se       6.98208564       2.39680101       1.59681647      -0.10677740      -0.42623515       0.26752126      -0.00000000
Se       6.99887853       6.36474587       1.81066478       0.31746651      -0.30173710      -1.18852175      -0.00000000
Se       6.86758308      10.55502583       1.85521733       0.46315611      -0.22787205      -0.59232481      -0.00000000
Se      11.01902854       6.37569048       1.53199207       0.33279807      -0.06495755      -0.19667311      -0.00000000
Se       9.12351402       8.52766202       3.98631084       0.31630515       0.31267795      -0.25603428      -0.00000000
72
Lattice="12.456306856155013 -5.291915884e-06 -4.2767090318e-06 -5.3173527097e-06 12.516180521117166 1.8389741387e-06 -4.8946254274e-06 2.0946084134e-06 11.074633248497364" Properties=species:S:1:pos:R:3:forces:R:3:magmoms:R:1 energy=-301.02185181 stress="0.0011722643281751226 -0.000234148161401008 -0.0008900777364282958 -0.000234148161401008 -0.0037629438675678877 -0.0008012288054478145 -0.0008900777364282958 -0.0008012288054478145 -0.009004629853353057" dipole="_JSON [[0.0, 0.0, 0.0]]" magmom=0.0017398 free_energy=-301.02185181 pbc="T T T"
Ge       1.21040085       0.34993246       1.40713004      -0.26793763       0.27186198       0.12081121       0.00000000
Ge       2.90561288      10.82949881       4.12196551       0.27607972       0.32205603      -0.25434410       0.00000000
Ge       7.34095215       2.18635351       4.18859244       0.28517335       0.07471418      -0.11000392       0.00000000
Ge       7.12368131       6.95676916       4.36007520       0.84147425      -0.59531451      -0.61819534       0.00000000
Ge       6.93146508      10.75136258       4.16696609       0.00650214       0.44399470      -0.28250276       0.00000000
Ge      11.24443984       2.44905035       3.83867056       0.44334889      -0.07493298       0.52821207      -0.00000000
Ge      11.33941691       6.86326004       4.02746007      -0.47258978      -0.11503421       0.18609754       0.00000000
Ge      11.63864600      10.95815761       3.87908287      -0.51330494      -0.43126994       0.92751506       0.00000000
Ge       1.24813638       2.20756596       7.05143469      -0.25248011      -0.04725805       0.18549568      -0.00000000
Ge       1.10318364       6.03875269       6.82791281      -0.83385900       0.14412067       0.46913396       0.00000000
Ge       0.93937497      10.25614577       7.02839818       0.22333678       0.17379776      -0.43632949       0.00000000