72
Lattice="12.460104023811082 -5.2935290661e-06 -4.2780127393e-06 -5.2935290661e-06 12.460103551984743 1.8307348763e-06 -4.8537447269e-06 2.0771139063e-06 10.98213612649517" Properties=species:S:1:pos:R:3:forces:R:3:magmoms:R:1 energy=-276.86535244 stress="-0.02982171282473379 -0.001992992706637803 -0.00026372026936020564 -0.001992992706637803 -0.03568889281473156 -0.003068991668062668 -0.00026372026936020564 -0.003068991668062668 -0.07349591962664097" dipole="_JSON [[0.0, 0.0, 0.0]]" magmom=-0.0006076 free_energy=-276.86535244 pbc="T T T"
Ge       0.60586837       0.72201366       1.93379436      -1.05902404       0.16564774      -6.25500396       0.00000000
Ge       2.86084674      11.08812567       3.91187247       5.01361844      -4.88220634       0.18208724      -0.00000000
Ge       7.44116564       2.79494616       3.98247188      -0.77590467      -0.25971887       2.88346131       0.00000000
Ge       6.90025096       6.51919696       4.10132580      -0.04783168       0.63648319      -0.36822041      -0.00000000
Ge       7.49520503      10.94004371       3.87142546      -5.59812977      -5.64811578      -0.03281127      -0.00000000
Ge      11.24065781       2.56261605       3.89635754      -0.69243575       0.43420303       3.59470949       0.00000000
Ge      10.87312816       6.80808331       4.37443105       1.05561622      -0.41635099      -0.65475375       0.00000000
Ge      11.49812711      11.16964946       4.11963224      -0.15824011      -0.41958960       1.38408772       0.00000000
Ge       0.97264740       2.02252618       6.89591540       0.29718907      -0.49381306       0.57843820       0.00000000
Ge       0.93501632       5.89417233       7.13362464       0.66359145       1.31713365      -0.77954083       0.00000000
Ge       0.69350896      10.26384472       7.07847258       0.68046686      -0.13742532      -0.38290583       0.00000000
Ge       5.19973327       1.96336586       6.81464271       0.51407158      -0.28267951      -0.68888069       0.00000000
Ge       4.91977943       5.89217270       6.83264106       0.81192640       1.61604777      -0.55924317      -0.00000000
Ge       4.80750638      10.03893433       6.78039115       0.91047234       0.36831749       0.48373166      -0.00000000
Ge       8.99651594       1.89422077       6.75661363      -0.52096515      -0.79091497       1.02958497       0.00000000
Ge       9.23638845       6.26980884       7.24603916      -0.94854957       0.14111560      -3.54498096       0.00000000
Ge       2.75436976       6.47598317       3.96992795       0.71936913       0.33442994       4.85639687      -0.00000000
Ge       2.84300767       2.96984189       3.70933803       4.78196591      -2.24696205       4.89923618      -0.00000000
Ge       9.19069531      10.33345548       6.95879717      -0.63875405      -0.52925744      -2.49641818       0.00000000
Ge      11.18719995       8.38870611       9.74282906       0.47092805       0.24440675      -0.47788006       0.00000000
Ge      11.54133509      12.23125470       9.33177411      -0.70618167       0.41806874       0.83516084       0.00000000
Ge       0.63115174       4.75533452       1.73798648      -1.14809685       1.28017904      -5.07577685       0.00000000
Ge       0.79298854       8.81439939       1.44794443      -0.19510624      -0.24685314       0.63215602      -0.00000000
Ge       5.14322596       0.50697089       1.60998960      -0.49852411       0.06578558      -2.89573344      -0.00000000
Ge       4.64882847       4.87366237       1.48778160       3.49757560      -3.87293901      -1.28907734      -0.00000000
Ge       9.44916113       0.49686593       1.40574152      -0.69144782       0.05890080       0.15809667       0.00000000
Ge       8.90566465       4.51762100       1.36582933       1.36311627      -0.73595909      -0.64222305       0.00000000
Ge       4.99804431       8.97341946       1.42360351       0.53575252      -0.55419634      -0.14739090      -0.00000000
Ge       2.84704796       3.91878529       9.75682797       5.83874969       5.09437340       0.86535279      -0.00000000
Ge       2.55764501       8.00859779       9.74126264       1.32030710       0.66372057      -0.78614525      -0.00000000
Ge       3.22179087      12.48324738       9.28125647      -1.22005409      -1.65774456       5.24543572       0.00000000
Ge       6.99650835       4.00813335       9.75586384      -0.07411126      -0.50465067      -0.85991637      -0.00000000
Ge       7.15553829       8.10178110       9.61633947      -1.28336641       0.19771838      -0.44543355      -0.00000000
Ge       6.94566061      12.23428951       9.73056773      -0.38444503      -0.35817137      -0.79813951       0.00000000
Ge      11.18468998       4.12986115       8.99969081      -1.27499771      -1.82019966      13.81856196       0.00000000
Ge       8.87198820       8.72648659       1.14882229       0.40246366      -0.58998752       0.70179658      -0.00000000
Se      11.29595952      -0.02741439       6.89157495       0.36219967       1.13423182      -0.51527431      -0.00000000
Se       3.04608185       4.49139919       7.28309758      -1.19262645      -1.86096556      -0.43683086      -0.00000000
Se       3.09237275       8.43820515       6.93908777      -1.75202748      -0.85963569       0.78454687      -0.00000000
Se       6.90366293      -0.37601390       7.02399676       0.63454956       1.73564587       0.34694874      -0.00000000
Se       6.94121111       4.30952995       7.02219782       0.86848263      -0.49427064       1.14069819      -0.00000000
Se       6.90214699       8.35593699       7.12646219       1.14295510       0.01696451      -0.05153226      -0.00000000
Se      11.37658499       4.35095889       7.10500052       0.77588329       0.39296491     -13.40107331      -0.00000000
Se       8.87939922      -0.03343668       4.00433125       5.98841776       5.96496951       0.28371006      -0.00000000
Se       1.38237408       0.09433469       3.80557451      -3.40101805       2.83481241       5.91069587      -0.00000000
Se       1.20627812       4.32779089       3.79018313      -3.90295631       2.56670667       5.18121331      -0.00000000
Se       0.96150348       8.03072516       4.03599136      -0.99099617       1.62330085      -0.41467788       0.00000000
Se       5.03151774       0.24222668       3.78493907      -0.00806558      -0.60129936       3.38770922       0.00000000
Se       5.29118938       4.40476386       3.94218309      -0.39223305      -0.17653563       0.22857966      -0.00000000
Se       5.09996150       8.32743023       3.92009243       0.04666295       0.10914069       0.46268978      -0.00000000
Se       3.38193988       0.14102322       7.16196398      -1.31935513      -0.28720659      -5.82255579      -0.00000000
Se      11.22906272       8.60519409       7.06197373       0.05904545      -0.77010088       0.30576673      -0.00000000
Se      11.14134767      10.38629602       1.93209805       0.16755560       0.07922627      -1.69720412      -0.00000000
Se       2.66361910       2.14498207       1.74794982       0.66603368      -1.05435704      -5.45918338      -0.00000000
Se      11.39645346       2.53983747       1.71118568      -0.54274143       0.18619536      -3.57465543      -0.00000000
Se       9.20359488       4.48947993       3.81221572       1.01085234       0.06738573       0.66828791      -0.00000000
Se       1.35369765       2.55546762       9.66171821      -6.78102053      -5.80468661      -1.28686254      -0.00000000
Se       0.84383473       6.32923742       9.54762835      -0.89445601      -0.32221121       0.48296761       0.00000000
Se       0.86871417      10.48334730       9.57749561       0.06101311      -0.28945105      -0.16463570      -0.00000000
Se       4.77816147       1.82448669       9.23370084       2.51734824       2.36667395       1.45394190      -0.00000000
Se       4.79591381       6.36211203       9.26250441       1.05353434       0.41269932       1.17335829      -0.00000000
Se       4.98832386      10.12556380       9.73234440       0.59693953       1.06038588      -1.02437189      -0.00000000
Se       9.26038120       2.05126319       9.50026377      -0.55448844       0.65810635      -0.83876016      -0.00000000
Se       9.42795819       6.54721467       9.41868392      -0.19995442      -0.45086637       3.22620394       0.00000000
Se       9.30416020      10.70938840       9.19380083       0.13994191      -0.07520914       3.11595502      -0.00000000
Se       3.24996824       6.44478972       1.85287281      -2.79824369       3.37808403      -4.21741820      -0.00000000
Se       3.15392779      10.55695514       1.40029368      -0.74573472       0.37856682       0.38493798       0.00000000
Se       6.97712403       2.28092363       1.83289201       0.87982788      -0.51880648      -3.25568305      -0.00000000
Se       7.27550185       6.15546049       1.30313076      -1.32420161       1.67920091       0.45550037      -0.00000000
Se       7.27025092      10.61094763       1.35982642      -0.21812544       0.29438460      -0.07882948      -0.00000000
Se      11.28187102       6.68764264       1.47304517       0.26296578      -0.79262355       0.80439806      -0.00000000
Se       9.15726205       8.35607948       3.99579188      -1.17697861       0.82978296      -0.52637998      -0.00000000
