72
Lattice="12.465748281305116 -5.2959269627e-06 -4.2799506208e-06 -5.3059763434e-06 12.48940241146424 1.8350396916e-06 -4.8751579914e-06 2.0862775092e-06 11.030586013816183" Properties=species:S:1:pos:R:3:forces:R:3:magmoms:R:1 energy=-299.8489333 stress="0.0029897144907833125 8.948397332649434e-05 -0.0005490084979275214 8.948397332649434e-05 -0.005501092192694165 0.0006723734549703399 -0.0005490084979275214 0.0006723734549703399 -0.00848505418410859" dipole="_JSON [[0.0, 0.0, 0.0]]" magmom=0.0018684 free_energy=-299.8489333 pbc="T T T"
Ge       0.61793862       0.73815241       1.33442395      -0.20416245      -0.17785837       0.61481107       0.00000000
Ge       2.98613334      11.21453867       4.15169295      -0.35293430      -0.39006818       0.34797511       0.00000000
Ge       7.12505913       2.72092679       4.24479052      -0.27560899      -0.31928667      -0.03493219      -0.00000000
Ge       7.10176297       6.72105647       4.07590057       0.24493934      -0.24426366      -0.00945346       0.00000000
Ge       7.29836169      10.90578109       4.23542776       0.00769727       0.08329600       0.25069637      -0.00000000
Ge      11.24288262       2.72452794       4.05442982      -0.02417459      -0.15313444       0.50061907      -0.00000000
Ge      11.37168920       6.65360002       4.07123186       0.08964710       0.29226746      -0.27211801       0.00000000
Ge      11.36211362      10.66222610       4.02600206       0.15785726       0.56925640      -0.41689813      -0.00000000
Ge       1.25770267       2.32820587       6.64275545       0.16221526      -0.34508916       0.21777238       0.00000000
Ge       0.93014547       5.97792344       6.88991527      -0.08823074       0.01651430       0.53376876       0.00000000
Ge       1.00197332      10.12174117       6.93672712      -0.47309091       0.30130847      -0.47392186       0.00000000
Ge       5.25699850       1.82831919       7.09891583      -0.31581840       0.07401923       0.02350952       0.00000000
Ge       5.38849827       6.22029519       7.01310125       0.10006037       0.09011756      -0.00395614       0.00000000
Ge       4.94804936      10.14039595       7.04663480       0.47256266       0.05698823      -0.56927022       0.00000000
Ge       8.98368659       1.72812238       7.08389344       0.44918531       0.15494515      -0.09270253      -0.00000000
Ge       9.12475189       6.00665206       6.98618374      -0.05845301       0.45826124      -0.30551689       0.00000000
Ge       3.12979593       6.94020914       4.25559635      -0.08821242      -0.33563960       0.42395121       0.00000000
Ge       2.98066659       2.71159069       3.82984139       0.28283426      -0.22151792      -0.22878709       0.00000000
Ge       9.31021599      10.27648947       7.02446132       0.14036158       0.14379327       0.19696842      -0.00000000
Ge      11.09032279       8.13163799       9.56286758       0.22024199      -0.33140084      -0.05515576       0.00000000
Ge      11.42028327      12.29917359       9.60669722      -0.16255054       0.25521059      -0.19974860       0.00000000
Ge       1.14903341       4.54645865       1.56373861      -0.14312086       0.08419726       0.14670330       0.00000000
Ge       1.00320266       8.88749760       1.42104970       0.16601300      -0.27102817       0.23477794       0.00000000
Ge       5.37134777       0.01570944       1.60366411      -0.48663775       0.84824318      -0.22080828       0.00000000
Ge       5.10946238       4.79623197       1.15776085      -0.23098994      -0.34701388       0.35338258       0.00000000
Ge       9.38760367       0.69248853       1.37641557      -0.42797623      -0.10455112       0.46197302      -0.00000000
Ge       9.04972995       4.78104864       1.33870893       0.49939398      -0.09040337       0.16140643       0.00000000
Ge       4.89748368       8.89232192       1.64514876       0.13524499       0.11982972      -0.24120783       0.00000000
Ge       2.90134362       3.92607263       9.61292048      -0.03569220       0.06699075      -0.24190515       0.00000000
Ge       2.85511811       7.91962723       9.59114049      -0.56863645       0.49727081       0.32952883       0.00000000
Ge       3.00311255      12.29871533       9.54676572       0.03107811       0.07634824      -0.40952454       0.00000000
Ge       6.89737712       3.84734508       9.89061336       0.43517500      -0.33345532      -0.55647644       0.00000000
Ge       7.25015923       8.40556344       9.71443156       0.07093475      -0.35646968      -0.57108155       0.00000000
Ge       7.13893851      12.18103238       9.71432144       0.13852184       0.27209460      -0.08609951       0.00000000
Ge      11.18066503       4.06950678       9.19729779       0.19812960      -0.22930421      -0.16964924       0.00000000
Ge       9.42920803       8.68136348       1.61418024       0.13166862       0.05161368      -0.88986316       0.00000000
Se      10.93006617      -0.02810545       7.12970237       0.16290397       0.11444390       0.04078622      -0.00000000
Se       2.98662252       4.30236872       7.02817353      -0.14274927      -0.10480784       0.10990023      -0.00000000
Se       2.94530539       8.49638336       7.09484714      -0.11357712      -0.42385964       0.06701477      -0.00000000
Se       7.11324139       0.02374009       7.16706644      -0.37653670      -0.22997760       0.05762424      -0.00000000
Se       7.17915071       4.34539747       7.01795531      -0.44382973      -0.11510959       0.77733326      -0.00000000
Se       7.20759341       8.27733989       7.06434398      -0.67689493       0.42274347       0.52833525      -0.00000000
Se      11.20847024       4.38373858       6.57550616       0.20940268      -0.13166782       1.37388048      -0.00000000
Se       9.12906322       0.17906241       4.04568490       0.60901706      -0.26203795      -0.38048958      -0.00000000
Se       0.73581323       0.12357265       4.09266314      -0.08315900       0.22741423      -0.81593933      -0.00000000
Se       0.90216843       4.46079673       4.18772049      -0.25167255      -0.14229476      -0.84397647      -0.00000000
Se       0.85637238       8.49627344       4.03556279      -0.07097008      -0.12978503      -0.32971384      -0.00000000
Se       4.98874589       0.29003048       4.08577349      -0.07418046       0.10752012      -0.07032929      -0.00000000
Se       5.02755112       4.36129295       3.72646903       0.03891581      -0.37344188       0.13806090      -0.00000000
Se       5.25159816       8.47126149       4.13607051      -0.78488287       0.36905054      -0.13553108      -0.00000000
Se       3.16142677       0.19907173       6.91842401      -0.20503007       0.20953709       0.67076877      -0.00000000
Se      11.21538540       8.48466959       7.03280264       0.31124296       0.03772437       0.11156796      -0.00000000
Se      11.44068328      10.43590129       1.36883663      -0.48485359       0.21457911       0.81316082      -0.00000000
Se       2.60563834       2.29559105       1.20460706       0.28676962       0.37285341       0.90820028      -0.00000000
Se      11.16263936       2.61608000       1.57368566       0.30177872      -0.44791215      -0.61699133      -0.00000000
Se       9.06778903       4.34933557       3.92482886       0.24563484       0.25742285      -0.29931341      -0.00000000
Se       0.77500295       2.26479283       9.16908599      -0.08583164       0.00608035       0.15783482      -0.00000000
Se       0.74655668       6.24373893       9.61336170      -0.14287903       0.01329522      -0.69096916      -0.00000000
Se       0.90044278      10.66842959       9.37520711       0.20467542      -0.24092957       0.44282592      -0.00000000
Se       4.95336433       2.18426693       9.68706781       0.04095005      -0.08708943      -0.50123993      -0.00000000
Se       4.86216403       6.55514965       9.51643484       0.72041165      -0.81076039      -0.03310038      -0.00000000
Se       5.10439018      10.57756438       9.47654263      -0.47341644      -0.30327570       0.61031009      -0.00000000
Se       8.94457915       2.11435894       9.62001532       0.13084237       0.52270703      -0.06818363      -0.00000000
Se       9.10593893       6.36700590       9.49566268       0.29622404       0.13861308       0.24026663      -0.00000000
Se       9.12142785      10.45000297       9.64463705      -0.03723651      -0.06761818      -0.23905230      -0.00000000
Se       3.05866506       6.28169524       1.80950783      -0.04262531       0.50147233      -0.78910918      -0.00000000
Se       2.91924121      10.67442839       1.65705606       0.10165019      -0.12051282      -0.23479927      -0.00000000
Se       7.10324394       1.95764104       1.75892558       0.37301150       0.57766107      -0.42581814      -0.00000000
Se       7.05458791       6.34244987       1.51857784      -0.02440527       0.93231747       0.06562964      -0.00000000
Se       6.95216427      10.63129807       1.75713789       0.41199181      -0.71358354      -0.40196254      -0.00000000
Se      11.09408624       6.66713577       1.49069139      -0.12087448      -0.68184973       0.27941203      -0.00000000
Se       9.10423930       8.46717054       4.01529200      -0.00729016       0.09899639       0.73483911      -0.00000000
