 running  256 mpi-ranks, with    1 threads/rank, on    7 nodes
 distrk:  each k-point on  128 cores,    2 groups
 distr:  one band on    4 cores,   32 groups
 vasp.6.4.1 05Apr23 (build May 18 2023 13:19:41) complex                         
 POSCAR found type information on POSCAR C S O 
 POSCAR found :  3 types and     366 ions
 Reading from existing POTCAR
 scaLAPACK will be used
 Reading from existing POTCAR
 -----------------------------------------------------------------------------
|                                                                             |
|               ----> ADVICE to this user running VASP <----                  |
|                                                                             |
|     You have a (more or less) 'large supercell' and for larger cells it     |
|     might be more efficient to use real-space projection operators.         |
|     Therefore, try LREAL= Auto in the INCAR file.                           |
|     Mind: If you want to do very accurate calculations, keep the            |
|     reciprocal projection scheme (i.e. LREAL=.FALSE.).                      |
|                                                                             |
 -----------------------------------------------------------------------------

 LDA part: xc-table for Pade appr. of Perdew
 POSCAR, INCAR and KPOINTS ok, starting setup
 FFT: planning ... GRIDC
 FFT: planning ... GRID_SOFT
 FFT: planning ... GRID
 WAVECAR not read
 charge-density read from file: 01_AOPT                                 
 WARNING: random wavefunctions but no delay for mixing, default for NELMDL
 entering main loop
       N       E                     dE             d eps       ncg     rms          rms(c)
DAV:   1     0.112553920306E+05    0.11255E+05   -0.41487E+05  4288   0.934E+02
DAV:   2     0.394366532684E+03   -0.10861E+05   -0.10096E+05  5568   0.212E+02
DAV:   3    -0.301227006245E+04   -0.34066E+04   -0.32479E+04  4608   0.115E+02
DAV:   4    -0.330597941897E+04   -0.29371E+03   -0.28388E+03  4480   0.387E+01
DAV:   5    -0.331719832069E+04   -0.11219E+02   -0.11009E+02  5056   0.691E+00    0.131E-01
DAV:   6    -0.331742971349E+04   -0.23139E+00   -0.22910E+00  4928   0.104E+00    0.333E-02
DAV:   7    -0.331743571302E+04   -0.59995E-02   -0.59252E-02  4896   0.179E-01    0.314E-02
DAV:   8    -0.331743594666E+04   -0.23364E-03   -0.25921E-03  4896   0.350E-02    0.258E-02
DAV:   9    -0.331743593712E+04    0.95402E-05   -0.95653E-05  4640   0.765E-03    0.204E-02
DAV:  10    -0.331743592108E+04    0.16037E-04   -0.12686E-05  4128   0.390E-03    0.134E-02
DAV:  11    -0.331743591092E+04    0.10161E-04   -0.50500E-06  4032   0.247E-03    0.802E-03
DAV:  12    -0.331743590095E+04    0.99747E-05   -0.92694E-07  2784   0.151E-03    0.385E-03
DAV:  13    -0.331743589424E+04    0.67079E-05   -0.92205E-07  2656   0.121E-03    0.121E-03
DAV:  14    -0.331743589235E+04    0.18846E-05   -0.18324E-07  2528   0.629E-04    0.708E-04
DAV:  15    -0.331743589165E+04    0.70280E-06    0.17845E-08  2496   0.347E-04
   1 F= -.33315553E+04 E0= -.33315553E+04  d E =-.333156E+04
 BRION: g(F)=  0.417E-01 g(S)=  0.000E+00
 bond charge predicted
       N       E                     dE             d eps       ncg     rms          rms(c)
DAV:   1    -0.331742225283E+04    0.13640E-01   -0.50975E+00  3840   0.260E+00    0.445E-01
DAV:   2    -0.331742782383E+04   -0.55710E-02   -0.10023E-01  4256   0.347E-01    0.419E-01
DAV:   3    -0.331742514114E+04    0.26827E-02   -0.61247E-03  4352   0.897E-02    0.291E-01
DAV:   4    -0.331742374688E+04    0.13943E-02   -0.42797E-03  4096   0.779E-02    0.118E-01
DAV:   5    -0.331742372926E+04    0.17623E-04   -0.12114E-03  4160   0.376E-02    0.310E-02
DAV:   6    -0.331742375033E+04   -0.21073E-04   -0.12393E-04  4320   0.118E-02    0.179E-02
DAV:   7    -0.331742374570E+04    0.46277E-05   -0.18474E-05  4096   0.528E-03    0.935E-03
DAV:   8    -0.331742374682E+04   -0.11206E-05   -0.52884E-06  4096   0.257E-03    0.405E-03
DAV:   9    -0.331742374654E+04    0.27951E-06   -0.12665E-06  2816   0.165E-03
   2 F= -.33315432E+04 E0= -.33315432E+04  d E =0.121367E-01
 BRION: g(F)=  0.242E+00 g(S)=  0.000E+00 retain N=  1 mean eig= 0.26
 eig:   0.258
 bond charge predicted
       N       E                     dE             d eps       ncg     rms          rms(c)
DAV:   1    -0.331744864557E+04   -0.24899E-01   -0.21500E+00  3744   0.172E+00    0.299E-01
DAV:   2    -0.331745138928E+04   -0.27437E-02   -0.48886E-02  4256   0.247E-01    0.289E-01
DAV:   3    -0.331745030017E+04    0.10891E-02   -0.24746E-03  4416   0.539E-02    0.219E-01
DAV:   4    -0.331744936320E+04    0.93696E-03   -0.16532E-03  4032   0.499E-02    0.107E-01
DAV:   5    -0.331744923640E+04    0.12680E-03   -0.80969E-04  4032   0.334E-02    0.238E-02
DAV:   6    -0.331744924657E+04   -0.10169E-04   -0.11216E-04  4192   0.114E-02    0.117E-02
DAV:   7    -0.331744924869E+04   -0.21157E-05   -0.10018E-05  4256   0.400E-03    0.735E-03
DAV:   8    -0.331744924716E+04    0.15240E-05   -0.58017E-06  3936   0.291E-03    0.293E-03
DAV:   9    -0.331744924710E+04    0.61118E-07   -0.60729E-07  2176   0.107E-03
   3 F= -.33315686E+04 E0= -.33315686E+04  d E =-.254034E-01
 BRION: g(F)=  0.202E-01 g(S)=  0.000E+00 retain N=  1 mean eig= 0.21
 eig:   0.212
 bond charge predicted
       N       E                     dE             d eps       ncg     rms          rms(c)
DAV:   1    -0.331744744611E+04    0.18011E-02   -0.92448E-01  3680   0.114E+00    0.186E-01
DAV:   2    -0.331744878517E+04   -0.13391E-02   -0.21223E-02  4224   0.161E-01    0.180E-01
DAV:   3    -0.331744845764E+04    0.32753E-03   -0.98042E-04  4512   0.342E-02    0.142E-01
DAV:   4    -0.331744813010E+04    0.32754E-03   -0.85544E-04  4192   0.360E-02    0.656E-02
DAV:   5    -0.331744811976E+04    0.10345E-04   -0.32142E-04  3840   0.211E-02    0.172E-02
DAV:   6    -0.331744812378E+04   -0.40192E-05   -0.37847E-05  4320   0.679E-03    0.829E-03
DAV:   7    -0.331744812413E+04   -0.35157E-06   -0.46672E-06  4000   0.278E-03
   4 F= -.33315674E+04 E0= -.33315674E+04  d E =0.117717E-02
 BRION: g(F)=  0.443E-01 g(S)=  0.000E+00 retain N=  2 mean eig= 0.05
 eig:   0.100  0.010
 bond charge predicted
       N       E                     dE             d eps       ncg     rms          rms(c)
DAV:   1    -0.331745317353E+04   -0.50498E-02   -0.40256E-01  3744   0.752E-01    0.133E-01
DAV:   2    -0.331745364398E+04   -0.47045E-03   -0.95040E-03  4224   0.110E-01    0.127E-01
DAV:   3    -0.331745341983E+04    0.22415E-03   -0.56599E-04  4384   0.261E-02    0.939E-02
DAV:   4    -0.331745327413E+04    0.14570E-03   -0.25061E-04  4192   0.200E-02    0.511E-02
DAV:   5    -0.331745324394E+04    0.30186E-04   -0.18808E-04  3808   0.169E-02    0.973E-03
DAV:   6    -0.331745324645E+04   -0.25111E-05   -0.36715E-05  4096   0.647E-03    0.475E-03
DAV:   7    -0.331745324689E+04   -0.43586E-06   -0.16460E-06  2944   0.162E-03
   5 F= -.33315726E+04 E0= -.33315726E+04  d E =-.518793E-02
 BRION: g(F)=  0.380E-02 g(S)=  0.000E+00 retain N=  2 mean eig= 2.93
 eig:   0.235  5.628
 bond charge predicted
       N       E                     dE             d eps       ncg     rms          rms(c)
DAV:   1    -0.331745357490E+04   -0.32845E-03   -0.17921E-01  3648   0.493E-01    0.833E-02
DAV:   2    -0.331745388059E+04   -0.30569E-03   -0.45765E-03  4160   0.710E-02    0.768E-02
DAV:   3    -0.331745382405E+04    0.56538E-04   -0.20998E-04  4352   0.161E-02    0.601E-02
DAV:   4    -0.331745376858E+04    0.55471E-04   -0.20148E-04  4096   0.181E-02    0.228E-02
DAV:   5    -0.331745377260E+04   -0.40204E-05   -0.61409E-05  4096   0.885E-03    0.948E-03
DAV:   6    -0.331745377191E+04    0.69465E-06   -0.10434E-05  4096   0.382E-03    0.417E-03
DAV:   7    -0.331745377213E+04   -0.21933E-06   -0.15980E-06  2784   0.160E-03
   6 F= -.33315731E+04 E0= -.33315731E+04  d E =-.513518E-03
 BRION: g(F)=  0.694E-02 g(S)=  0.000E+00 retain N=  3 mean eig= 2.15
 eig:   0.245  0.245  5.965
 bond charge predicted
       N       E                     dE             d eps       ncg     rms          rms(c)
DAV:   1    -0.331745466925E+04   -0.89734E-03   -0.64558E-02  3648   0.302E-01    0.486E-02
DAV:   2    -0.331745478604E+04   -0.11679E-03   -0.16913E-03  4192   0.452E-02    0.487E-02
DAV:   3    -0.331745476908E+04    0.16958E-04   -0.66869E-05  4672   0.855E-03    0.415E-02
DAV:   4    -0.331745473527E+04    0.33815E-04   -0.87363E-05  4224   0.116E-02    0.180E-02
DAV:   5    -0.331745473463E+04    0.64180E-06   -0.31416E-05  3904   0.648E-03    0.627E-03
DAV:   6    -0.331745473461E+04    0.11758E-07   -0.38232E-06  3616   0.235E-03
   7 F= -.33315741E+04 E0= -.33315741E+04  d E =-.957640E-03
 BRION: g(F)=  0.140E-02 g(S)=  0.000E+00 retain N=  3 mean eig= 2.73
 eig:   0.284  0.284  7.611
 bond charge predicted
       N       E                     dE             d eps       ncg     rms          rms(c)
DAV:   1    -0.331745528212E+04   -0.54750E-03   -0.63799E-02  3648   0.271E-01    0.530E-02
DAV:   2    -0.331745541440E+04   -0.13228E-03   -0.18445E-03  4128   0.390E-02    0.415E-02
DAV:   3    -0.331745540308E+04    0.11313E-04   -0.61058E-05  4256   0.883E-03    0.318E-02
DAV:   4    -0.331745540118E+04    0.19054E-05   -0.62601E-05  4032   0.967E-03    0.101E-02
DAV:   5    -0.331745540243E+04   -0.12489E-05   -0.14209E-05  4096   0.450E-03    0.538E-03
DAV:   6    -0.331745540230E+04    0.12619E-06   -0.35184E-06  3712   0.211E-03
   8 F= -.33315748E+04 E0= -.33315748E+04  d E =-.672795E-03
 BRION: g(F)=  0.142E-02 g(S)=  0.000E+00 retain N=  3 mean eig= 2.69
 eig:   7.588  0.248  0.248
 bond charge predicted
       N       E                     dE             d eps       ncg     rms          rms(c)
DAV:   1    -0.331745576319E+04   -0.36076E-03   -0.32244E-02  3648   0.198E-01    0.383E-02
DAV:   2    -0.331745582910E+04   -0.65906E-04   -0.95316E-04  4128   0.289E-02    0.307E-02
DAV:   3    -0.331745582207E+04    0.70271E-05   -0.34778E-05  4256   0.654E-03    0.234E-02
DAV:   4    -0.331745581929E+04    0.27748E-05   -0.32235E-05  4032   0.700E-03    0.852E-03
DAV:   5    -0.331745582036E+04   -0.10662E-05   -0.73609E-06  4096   0.323E-03    0.430E-03
DAV:   6    -0.331745582023E+04    0.13108E-06   -0.18886E-06  3200   0.154E-03
   9 F= -.33315752E+04 E0= -.33315752E+04  d E =-.429618E-03
 BRION: g(F)=  0.126E-02 g(S)=  0.000E+00 retain N=  3 mean eig= 0.94
 eig:   2.328  0.252  0.252
 bond charge predicted
       N       E                     dE             d eps       ncg     rms          rms(c)
DAV:   1    -0.331745620715E+04   -0.38679E-03   -0.31596E-02  3648   0.189E-01    0.374E-02
DAV:   2    -0.331745627569E+04   -0.68541E-04   -0.94822E-04  4128   0.273E-02    0.284E-02
DAV:   3    -0.331745627128E+04    0.44155E-05   -0.30510E-05  4192   0.614E-03    0.218E-02
DAV:   4    -0.331745627198E+04   -0.70082E-06   -0.27927E-05  4000   0.640E-03    0.735E-03
DAV:   5    -0.331745627283E+04   -0.85367E-06   -0.61543E-06  4032   0.298E-03
  10 F= -.33315757E+04 E0= -.33315757E+04  d E =-.453187E-03
 BRION: g(F)=  0.873E-03 g(S)=  0.000E+00 retain N=  2 mean eig= 1.39
 eig:   0.192  2.593
 bond charge predicted
       N       E                     dE             d eps       ncg     rms          rms(c)
DAV:   1    -0.331745664949E+04   -0.37751E-03   -0.38028E-02  3648   0.200E-01    0.435E-02
DAV:   2    -0.331745673600E+04   -0.86505E-04   -0.12059E-03  4096   0.293E-02    0.313E-02
DAV:   3    -0.331745673195E+04    0.40486E-05   -0.33168E-05  4224   0.660E-03    0.240E-02
DAV:   4    -0.331745673573E+04   -0.37873E-05   -0.35970E-05  4032   0.728E-03    0.748E-03
DAV:   5    -0.331745673629E+04   -0.55449E-06   -0.77308E-06  4096   0.340E-03
  11 F= -.33315761E+04 E0= -.33315761E+04  d E =-.477167E-03
 BRION: g(F)=  0.730E-03 g(S)=  0.000E+00 retain N=  2 mean eig= 0.74
 eig:   0.170  1.312
 bond charge predicted
       N       E                     dE             d eps       ncg     rms          rms(c)
DAV:   1    -0.331745707852E+04   -0.34279E-03   -0.39169E-02  3648   0.200E-01    0.441E-02
DAV:   2    -0.331745716793E+04   -0.89405E-04   -0.12374E-03  4096   0.289E-02    0.308E-02
DAV:   3    -0.331745716513E+04    0.27975E-05   -0.33180E-05  4224   0.656E-03    0.236E-02
DAV:   4    -0.331745717076E+04   -0.56288E-05   -0.30840E-05  4000   0.677E-03    0.745E-03
DAV:   5    -0.331745717156E+04   -0.79582E-06   -0.69241E-06  4032   0.328E-03
  12 F= -.33315766E+04 E0= -.33315766E+04  d E =-.444899E-03
 BRION: g(F)=  0.750E-03 g(S)=  0.000E+00 retain N=  2 mean eig= 0.22
 eig:   0.145  0.292
 bond charge predicted
       N       E                     dE             d eps       ncg     rms          rms(c)
DAV:   1    -0.331745742417E+04   -0.25341E-03   -0.22316E-02  3648   0.153E-01    0.332E-02
DAV:   2    -0.331745747542E+04   -0.51257E-04   -0.71063E-04  4096   0.224E-02    0.234E-02
DAV:   3    -0.331745747373E+04    0.16984E-05   -0.19826E-05  4224   0.503E-03    0.179E-02
DAV:   4    -0.331745747680E+04   -0.30794E-05   -0.17437E-05  3968   0.505E-03    0.626E-03
DAV:   5    -0.331745747742E+04   -0.61723E-06   -0.36856E-06  3744   0.245E-03
  13 F= -.33315769E+04 E0= -.33315769E+04  d E =-.315867E-03
 BRION: g(F)=  0.719E-03 g(S)=  0.000E+00 retain N=  2 mean eig= 0.77
 eig:   0.174  1.370
 bond charge predicted
       N       E                     dE             d eps       ncg     rms          rms(c)
DAV:   1    -0.331745772827E+04   -0.25147E-03   -0.22765E-02  3648   0.153E-01    0.340E-02
DAV:   2    -0.331745778017E+04   -0.51894E-04   -0.72478E-04  4096   0.223E-02    0.236E-02
DAV:   3    -0.331745777820E+04    0.19671E-05   -0.18488E-05  4160   0.495E-03    0.180E-02
DAV:   4    -0.331745778111E+04   -0.29107E-05   -0.20123E-05  4000   0.546E-03    0.575E-03
DAV:   5    -0.331745778149E+04   -0.37893E-06   -0.41417E-06  3712   0.251E-03
  14 F= -.33315772E+04 E0= -.33315772E+04  d E =-.316485E-03
 BRION: g(F)=  0.610E-03 g(S)=  0.000E+00 retain N=  2 mean eig= 1.15
 eig:   0.154  2.141
 bond charge predicted
       N       E                     dE             d eps       ncg     rms          rms(c)
DAV:   1    -0.331745803946E+04   -0.25834E-03   -0.26307E-02  3648   0.160E-01    0.359E-02
DAV:   2    -0.331745810032E+04   -0.60863E-04   -0.82845E-04  4032   0.229E-02    0.240E-02
DAV:   3    -0.331745809944E+04    0.88045E-06   -0.19778E-05  4224   0.505E-03    0.183E-02
DAV:   4    -0.331745810446E+04   -0.50173E-05   -0.18073E-05  3936   0.514E-03    0.568E-03
DAV:   5    -0.331745810491E+04   -0.45681E-06   -0.40052E-06  3680   0.252E-03
  15 F= -.33315775E+04 E0= -.33315775E+04  d E =-.330721E-03
 BRION: g(F)=  0.547E-03 g(S)=  0.000E+00 retain N=  2 mean eig= 1.00
 eig:   0.185  1.824
 bond charge predicted
       N       E                     dE             d eps       ncg     rms          rms(c)
DAV:   1    -0.331745835723E+04   -0.25277E-03   -0.32111E-02  3648   0.175E-01    0.400E-02
DAV:   2    -0.331745843084E+04   -0.73615E-04   -0.10120E-03  4096   0.252E-02    0.262E-02
DAV:   3    -0.331745842990E+04    0.94040E-06   -0.23254E-05  4192   0.554E-03    0.200E-02
DAV:   4    -0.331745843620E+04   -0.62955E-05   -0.22318E-05  3968   0.572E-03    0.621E-03
DAV:   5    -0.331745843668E+04   -0.48068E-06   -0.48207E-06  3904   0.274E-03
  16 F= -.33315779E+04 E0= -.33315779E+04  d E =-.346886E-03
 BRION: g(F)=  0.541E-03 g(S)=  0.000E+00 retain N=  2 mean eig= 0.34
 eig:   0.097  0.588
 bond charge predicted
       N       E                     dE             d eps       ncg     rms          rms(c)
DAV:   1    -0.331745863859E+04   -0.20239E-03   -0.20502E-02  3680   0.142E-01    0.319E-02
DAV:   2    -0.331745868487E+04   -0.46282E-04   -0.63709E-04  4064   0.203E-02    0.210E-02
DAV:   3    -0.331745868416E+04    0.71374E-06   -0.14819E-05  4224   0.442E-03    0.160E-02
DAV:   4    -0.331745868818E+04   -0.40189E-05   -0.13959E-05  4000   0.458E-03    0.526E-03
DAV:   5    -0.331745868859E+04   -0.41130E-06   -0.29863E-06  3552   0.222E-03
  17 F= -.33315781E+04 E0= -.33315781E+04  d E =-.261136E-03
 BRION: g(F)=  0.538E-03 g(S)=  0.000E+00 retain N=  2 mean eig= 0.54
 eig:   0.140  0.948
 bond charge predicted
       N       E                     dE             d eps       ncg     rms          rms(c)
DAV:   1    -0.331745888853E+04   -0.20036E-03   -0.20018E-02  3680   0.138E-01    0.309E-02
DAV:   2    -0.331745893376E+04   -0.45225E-04   -0.61312E-04  4000   0.195E-02    0.201E-02
DAV:   3    -0.331745893338E+04    0.37684E-06   -0.13596E-05  4192   0.420E-03    0.153E-02
DAV:   4    -0.331745893753E+04   -0.41507E-05   -0.12514E-05  3968   0.425E-03    0.483E-03
DAV:   5    -0.331745893787E+04   -0.33714E-06   -0.26732E-06  3552   0.207E-03
  18 F= -.33315784E+04 E0= -.33315784E+04  d E =-.255864E-03
 BRION: g(F)=  0.490E-03 g(S)=  0.000E+00 retain N=  2 mean eig= 1.02
 eig:   0.180  1.865
 bond charge predicted
       N       E                     dE             d eps       ncg     rms          rms(c)
DAV:   1    -0.331745912770E+04   -0.19017E-03   -0.19846E-02  3712   0.136E-01    0.311E-02
DAV:   2    -0.331745917134E+04   -0.43640E-04   -0.60133E-04  4000   0.192E-02    0.200E-02
DAV:   3    -0.331745917097E+04    0.37812E-06   -0.12875E-05  4192   0.415E-03    0.152E-02
DAV:   4    -0.331745917514E+04   -0.41730E-05   -0.13340E-05  3936   0.445E-03    0.469E-03
DAV:   5    -0.331745917538E+04   -0.24028E-06   -0.27594E-06  3552   0.208E-03
  19 F= -.33315787E+04 E0= -.33315787E+04  d E =-.249256E-03
 BRION: g(F)=  0.444E-03 g(S)=  0.000E+00 retain N=  2 mean eig= 0.97
 eig:   0.148  1.788
 bond charge predicted
       N       E                     dE             d eps       ncg     rms          rms(c)
DAV:   1    -0.331745939040E+04   -0.21526E-03   -0.31338E-02  3712   0.168E-01    0.385E-02
DAV:   2    -0.331745945965E+04   -0.69250E-04   -0.93543E-04  4000   0.234E-02    0.240E-02
DAV:   3    -0.331745945969E+04   -0.33528E-07   -0.18642E-05  4224   0.492E-03    0.183E-02
DAV:   4    -0.331745946700E+04   -0.73146E-05   -0.17053E-05  3904   0.499E-03    0.540E-03
DAV:   5    -0.331745946740E+04   -0.39581E-06   -0.37978E-06  3744   0.242E-03
  20 F= -.33315790E+04 E0= -.33315790E+04  d E =-.301773E-03
 BRION: g(F)=  0.440E-03 g(S)=  0.000E+00 retain N=  2 mean eig= 0.41
 eig:   0.108  0.720
 bond charge predicted
       N       E                     dE             d eps       ncg     rms          rms(c)
DAV:   1    -0.331745963988E+04   -0.17287E-03   -0.19608E-02  3712   0.134E-01    0.304E-02
DAV:   2    -0.331745968281E+04   -0.42936E-04   -0.58218E-04  4000   0.187E-02    0.191E-02
DAV:   3    -0.331745968296E+04   -0.15006E-06   -0.12007E-05  4256   0.398E-03    0.145E-02
DAV:   4    -0.331745968750E+04   -0.45334E-05   -0.10697E-05  3808   0.399E-03    0.449E-03
DAV:   5    -0.331745968780E+04   -0.30443E-06   -0.22828E-06  3360   0.194E-03
  21 F= -.33315792E+04 E0= -.33315792E+04  d E =-.227446E-03
 BRION: g(F)=  0.443E-03 g(S)=  0.000E+00 retain N=  2 mean eig= 0.61
 eig:   0.151  1.069
 bond charge predicted
       N       E                     dE             d eps       ncg     rms          rms(c)
DAV:   1    -0.331745985361E+04   -0.16611E-03   -0.18872E-02  3712   0.132E-01    0.298E-02
DAV:   2    -0.331745989379E+04   -0.40181E-04   -0.55042E-04  3936   0.183E-02    0.187E-02
DAV:   3    -0.331745989402E+04   -0.23586E-06   -0.13709E-05  4160   0.392E-03    0.142E-02
DAV:   4    -0.331745989824E+04   -0.42109E-05   -0.11898E-05  3904   0.424E-03    0.460E-03
DAV:   5    -0.331745989837E+04   -0.13458E-06   -0.24953E-06  3552   0.195E-03
  22 F= -.33315794E+04 E0= -.33315794E+04  d E =-.220590E-03
 BRION: g(F)=  0.417E-03 g(S)=  0.000E+00 retain N=  2 mean eig= 0.83
 eig:   0.147  1.517
 bond charge predicted
       N       E                     dE             d eps       ncg     rms          rms(c)
DAV:   1    -0.331746005587E+04   -0.15764E-03   -0.16180E-02  3744   0.121E-01    0.274E-02
DAV:   2    -0.331746009044E+04   -0.34568E-04   -0.46819E-04  3936   0.166E-02    0.169E-02
DAV:   3    -0.331746009090E+04   -0.45798E-06   -0.11049E-05  4160   0.351E-03    0.128E-02
DAV:   4    -0.331746009495E+04   -0.40486E-05   -0.88817E-06  3808   0.359E-03    0.415E-03
DAV:   5    -0.331746009510E+04   -0.15344E-06   -0.18726E-06  3424   0.173E-03
  23 F= -.33315796E+04 E0= -.33315796E+04  d E =-.201492E-03
 BRION: g(F)=  0.386E-03 g(S)=  0.000E+00 retain N=  2 mean eig= 1.03
 eig:   0.175  1.889
 bond charge predicted
       N       E                     dE             d eps       ncg     rms          rms(c)
DAV:   1    -0.331746027941E+04   -0.18446E-03   -0.28589E-02  3744   0.158E-01    0.360E-02
DAV:   2    -0.331746033972E+04   -0.60308E-04   -0.81315E-04  3936   0.216E-02    0.218E-02
DAV:   3    -0.331746034060E+04   -0.88487E-06   -0.18274E-05  4192   0.451E-03    0.167E-02
DAV:   4    -0.331746034767E+04   -0.70683E-05   -0.15380E-05  3776   0.475E-03    0.504E-03
DAV:   5    -0.331746034778E+04   -0.11222E-06   -0.33570E-06  3616   0.219E-03
  24 F= -.33315799E+04 E0= -.33315799E+04  d E =-.261098E-03
 BRION: g(F)=  0.375E-03 g(S)=  0.000E+00 retain N=  2 mean eig= 0.49
 eig:   0.096  0.881
 bond charge predicted
       N       E                     dE             d eps       ncg     rms          rms(c)
DAV:   1    -0.331746050358E+04   -0.15590E-03   -0.20561E-02  3744   0.135E-01    0.307E-02
DAV:   2    -0.331746054659E+04   -0.43015E-04   -0.58466E-04  3936   0.185E-02    0.186E-02
DAV:   3    -0.331746054741E+04   -0.82282E-06   -0.13161E-05  4160   0.384E-03    0.142E-02
DAV:   4    -0.331746055275E+04   -0.53353E-05   -0.10461E-05  3744   0.399E-03    0.442E-03
DAV:   5    -0.331746055290E+04   -0.15227E-06   -0.22718E-06  3520   0.186E-03
  25 F= -.33315801E+04 E0= -.33315801E+04  d E =-.213064E-03
 BRION: g(F)=  0.382E-03 g(S)=  0.000E+00 retain N=  2 mean eig= 0.50
 eig:   0.068  0.938
 bond charge predicted
       N       E                     dE             d eps       ncg     rms          rms(c)
DAV:   1    -0.331746071509E+04   -0.16234E-03   -0.22575E-02  3744   0.141E-01    0.317E-02
DAV:   2    -0.331746076226E+04   -0.47164E-04   -0.63427E-04  3936   0.192E-02    0.192E-02
DAV:   3    -0.331746076303E+04   -0.77183E-06   -0.13977E-05  4192   0.396E-03    0.146E-02
DAV:   4    -0.331746076874E+04   -0.57094E-05   -0.11498E-05  3808   0.408E-03    0.457E-03
DAV:   5    -0.331746076890E+04   -0.15902E-06   -0.24625E-06  3488   0.193E-03
  26 F= -.33315803E+04 E0= -.33315803E+04  d E =-.220279E-03
 BRION: g(F)=  0.373E-03 g(S)=  0.000E+00 retain N=  2 mean eig= 0.74
 eig:   0.159  1.312
 bond charge predicted
       N       E                     dE             d eps       ncg     rms          rms(c)
DAV:   1    -0.331746087846E+04   -0.10972E-03   -0.88416E-03  3744   0.899E-02    0.202E-02
DAV:   2    -0.331746089640E+04   -0.17940E-04   -0.24823E-04  3936   0.123E-02    0.125E-02
DAV:   3    -0.331746089663E+04   -0.22515E-06   -0.57742E-06  3936   0.262E-03
  27 F= -.33315804E+04 E0= -.33315804E+04  d E =-.132610E-03
 BRION: g(F)=  0.346E-03 g(S)=  0.000E+00 retain N=  2 mean eig= 0.99
 eig:   0.197  1.791
 bond charge predicted
       N       E                     dE             d eps       ncg     rms          rms(c)
DAV:   1    -0.331746106965E+04   -0.17324E-03   -0.26569E-02  3744   0.151E-01    0.355E-02
DAV:   2    -0.331746111920E+04   -0.49553E-04   -0.70790E-04  3904   0.200E-02    0.214E-02
DAV:   3    -0.331746112102E+04   -0.18171E-05   -0.16421E-05  4224   0.422E-03    0.161E-02
DAV:   4    -0.331746112885E+04   -0.78295E-05   -0.11705E-05  3776   0.414E-03    0.461E-03
DAV:   5    -0.331746112919E+04   -0.34482E-06   -0.26563E-06  3552   0.187E-03
  28 F= -.33315807E+04 E0= -.33315807E+04  d E =-.238761E-03
 BRION: g(F)=  0.323E-03 g(S)=  0.000E+00 retain N=  2 mean eig= 0.34
 eig:   0.345  0.345
 bond charge predicted
       N       E                     dE             d eps       ncg     rms          rms(c)
DAV:   1    -0.331746130161E+04   -0.17277E-03   -0.38715E-02  3744   0.181E-01    0.409E-02
DAV:   2    -0.331746138059E+04   -0.78974E-04   -0.10545E-03  3936   0.243E-02    0.241E-02
DAV:   3    -0.331746138215E+04   -0.15572E-05   -0.21489E-05  4224   0.489E-03    0.183E-02
DAV:   4    -0.331746139237E+04   -0.10229E-04   -0.17536E-05  3840   0.503E-03    0.539E-03
DAV:   5    -0.331746139259E+04   -0.21164E-06   -0.38835E-06  3776   0.231E-03
  29 F= -.33315809E+04 E0= -.33315809E+04  d E =-.268236E-03
 BRION: g(F)=  0.364E-03 g(S)=  0.000E+00 retain N=  2 mean eig= 0.67
 eig:   0.672  0.672
 bond charge predicted
       N       E                     dE             d eps       ncg     rms          rms(c)
DAV:   1    -0.331746154506E+04   -0.15269E-03   -0.15536E-01  3712   0.360E-01    0.813E-02
DAV:   2    -0.331746186161E+04   -0.31655E-03   -0.41999E-03  3936   0.482E-02    0.478E-02
DAV:   3    -0.331746186645E+04   -0.48329E-05   -0.84240E-05  4192   0.964E-03    0.363E-02
DAV:   4    -0.331746190489E+04   -0.38438E-04   -0.74052E-05  3872   0.103E-02    0.107E-02
DAV:   5    -0.331746190545E+04   -0.56764E-06   -0.16463E-05  4064   0.460E-03    0.781E-03
DAV:   6    -0.331746190523E+04    0.22061E-06   -0.44345E-06  3648   0.239E-03
  30 F= -.33315815E+04 E0= -.33315815E+04  d E =-.527227E-03
 BRION: g(F)=  0.430E-03 g(S)=  0.000E+00 retain N=  2 mean eig= 0.40
 eig:   0.146  0.654
 bond charge predicted
       N       E                     dE             d eps       ncg     rms          rms(c)
DAV:   1    -0.331746136850E+04    0.53695E-03   -0.79801E-02  3744   0.259E-01    0.572E-02
DAV:   2    -0.331746153042E+04   -0.16192E-03   -0.21413E-03  3936   0.346E-02    0.342E-02
DAV:   3    -0.331746153004E+04    0.38440E-06   -0.44323E-05  4224   0.697E-03    0.259E-02
DAV:   4    -0.331746154576E+04   -0.15724E-04   -0.43091E-05  3840   0.783E-03    0.783E-03
DAV:   5    -0.331746154636E+04   -0.60280E-06   -0.96345E-06  4000   0.345E-03
  31 F= -.33315811E+04 E0= -.33315811E+04  d E =0.369281E-03
 BRION: g(F)=  0.338E-03 g(S)=  0.000E+00 retain N=  2 mean eig= 1.13
 eig:   0.318  1.949
 bond charge predicted
       N       E                     dE             d eps       ncg     rms          rms(c)
DAV:   1    -0.331746174304E+04   -0.19728E-03   -0.66205E-02  3776   0.234E-01    0.505E-02
DAV:   2    -0.331746187480E+04   -0.13176E-03   -0.17209E-03  3936   0.308E-02    0.300E-02
DAV:   3    -0.331746187484E+04   -0.47614E-07   -0.33652E-05  4224   0.605E-03    0.227E-02
DAV:   4    -0.331746188698E+04   -0.12134E-04   -0.33909E-05  3872   0.683E-03    0.644E-03
DAV:   5    -0.331746188736E+04   -0.38091E-06   -0.75565E-06  3936   0.293E-03
  32 F= -.33315814E+04 E0= -.33315814E+04  d E =-.347722E-03
 BRION: g(F)=  0.300E-03 g(S)=  0.000E+00 retain N=  3 mean eig= 1.14
 eig:   1.281  0.141  2.006
 bond charge predicted
       N       E                     dE             d eps       ncg     rms          rms(c)
DAV:   1    -0.331746203314E+04   -0.14616E-03   -0.10873E-01  3712   0.299E-01    0.682E-02
DAV:   2    -0.331746224999E+04   -0.21686E-03   -0.28914E-03  3936   0.397E-02    0.393E-02
DAV:   3    -0.331746225368E+04   -0.36899E-05   -0.56701E-05  4256   0.785E-03    0.296E-02
DAV:   4    -0.331746228195E+04   -0.28267E-04   -0.43370E-05  3872   0.787E-03    0.835E-03
DAV:   5    -0.331746228328E+04   -0.13260E-05   -0.10244E-05  4064   0.350E-03    0.599E-03
DAV:   6    -0.331746228311E+04    0.17020E-06   -0.24936E-06  3264   0.187E-03
  33 F= -.33315818E+04 E0= -.33315818E+04  d E =-.402297E-03
 BRION: g(F)=  0.478E-03 g(S)=  0.000E+00 retain N=  4 mean eig= 1.88
 eig:   5.268  0.975  0.645  0.645
 bond charge predicted
       N       E                     dE             d eps       ncg     rms          rms(c)
DAV:   1    -0.331745102880E+04    0.11254E-01   -0.62444E+00  3712   0.225E+00    0.496E-01
DAV:   2    -0.331746383129E+04   -0.12802E-01   -0.16226E-01  3936   0.297E-01    0.291E-01
DAV:   3    -0.331746397857E+04   -0.14727E-03   -0.30843E-03  4224   0.573E-02    0.220E-01
DAV:   4    -0.331746510209E+04   -0.11235E-02   -0.25889E-03  3840   0.594E-02    0.562E-02
DAV:   5    -0.331746514986E+04   -0.47773E-04   -0.58488E-04  4032   0.256E-02    0.443E-02
DAV:   6    -0.331746513231E+04    0.17557E-04   -0.13489E-04  4064   0.133E-02    0.244E-02
DAV:   7    -0.331746512801E+04    0.43019E-05   -0.39492E-05  4160   0.674E-03    0.137E-02
DAV:   8    -0.331746512736E+04    0.64145E-06   -0.20358E-05  3936   0.487E-03    0.415E-03
DAV:   9    -0.331746512782E+04   -0.45728E-06   -0.47610E-06  3648   0.217E-03
  34 F= -.33315847E+04 E0= -.33315847E+04  d E =-.289479E-02
 BRION: g(F)=  0.440E-03 g(S)=  0.000E+00 retain N=  4 mean eig= 3.73
 eig:   6.947  6.947  0.017  0.998
 bond charge predicted
       N       E                     dE             d eps       ncg     rms          rms(c)
DAV:   1    -0.331746495597E+04    0.17139E-03   -0.18731E-02  3712   0.143E-01    0.290E-02
DAV:   2    -0.331746499505E+04   -0.39079E-04   -0.54054E-04  3936   0.203E-02    0.203E-02
DAV:   3    -0.331746499257E+04    0.24800E-05   -0.17863E-05  4224   0.454E-03    0.148E-02
DAV:   4    -0.331746499307E+04   -0.49383E-06   -0.10761E-05  3968   0.413E-03    0.593E-03
DAV:   5    -0.331746499388E+04   -0.81433E-06   -0.29802E-06  3616   0.199E-03
  35 F= -.33315846E+04 E0= -.33315846E+04  d E =0.135675E-03
 BRION: g(F)=  0.713E-03 g(S)=  0.000E+00 retain N=  4 mean eig= 3.97
 eig:   7.381  7.381  0.999  0.105
 bond charge predicted
       N       E                     dE             d eps       ncg     rms          rms(c)
DAV:   1    -0.331746420371E+04    0.78936E-03   -0.74013E-01  3712   0.777E-01    0.169E-01
DAV:   2    -0.331746563021E+04   -0.14265E-02   -0.18988E-02  3904   0.102E-01    0.988E-02
DAV:   3    -0.331746564089E+04   -0.10680E-04   -0.35901E-04  4224   0.197E-02    0.747E-02
DAV:   4    -0.331746584343E+04   -0.20254E-03   -0.32133E-04  3808   0.211E-02    0.209E-02
DAV:   5    -0.331746585022E+04   -0.67882E-05   -0.73174E-05  4032   0.915E-03    0.160E-02
DAV:   6    -0.331746584891E+04    0.13099E-05   -0.18304E-05  4032   0.489E-03    0.847E-03
DAV:   7    -0.331746584867E+04    0.23411E-06   -0.49240E-06  4096   0.245E-03
  36 F= -.33315855E+04 E0= -.33315855E+04  d E =-.859873E-03
 BRION: g(F)=  0.659E-03 g(S)=  0.000E+00 retain N=  4 mean eig= 1.11
 eig:   2.382  0.767  0.639  0.639
 bond charge predicted
       N       E                     dE             d eps       ncg     rms          rms(c)
DAV:   1    -0.331745583103E+04    0.10018E-01   -0.34531E+00  3712   0.168E+00    0.378E-01
DAV:   2    -0.331746297883E+04   -0.71478E-02   -0.93451E-02  3936   0.222E-01    0.217E-01
DAV:   3    -0.331746310231E+04   -0.12349E-03   -0.17600E-03  4224   0.435E-02    0.165E-01
DAV:   4    -0.331746389630E+04   -0.79399E-03   -0.16011E-03  3840   0.468E-02    0.518E-02
DAV:   5    -0.331746390816E+04   -0.11856E-04   -0.36326E-04  4032   0.212E-02    0.374E-02
DAV:   6    -0.331746390765E+04    0.51467E-06   -0.98898E-05  4064   0.109E-02    0.188E-02
DAV:   7    -0.331746390548E+04    0.21667E-05   -0.22867E-05  4128   0.516E-03    0.109E-02
DAV:   8    -0.331746390522E+04    0.26159E-06   -0.12129E-05  3968   0.376E-03    0.333E-03
DAV:   9    -0.331746390553E+04   -0.30932E-06   -0.29099E-06  3616   0.166E-03
  37 F= -.33315835E+04 E0= -.33315835E+04  d E =0.197349E-02
 BRION: g(F)=  0.751E-03 g(S)=  0.000E+00 retain N=  4 mean eig= 1.77
 eig:   3.177  2.503  1.119  0.280
 bond charge predicted
       N       E                     dE             d eps       ncg     rms          rms(c)
DAV:   1    -0.331745963138E+04    0.42738E-02   -0.27387E+00  3712   0.149E+00    0.325E-01
DAV:   2    -0.331746502637E+04   -0.53950E-02   -0.69696E-02  3904   0.195E-01    0.189E-01
DAV:   3    -0.331746506755E+04   -0.41181E-04   -0.12876E-03  4224   0.372E-02    0.143E-01
DAV:   4    -0.331746568014E+04   -0.61259E-03   -0.11235E-03  3840   0.391E-02    0.374E-02
DAV:   5    -0.331746570274E+04   -0.22597E-04   -0.25585E-04  4032   0.168E-02    0.295E-02
DAV:   6    -0.331746569613E+04    0.66098E-05   -0.58655E-05  4064   0.881E-03    0.161E-02
DAV:   7    -0.331746569432E+04    0.18121E-05   -0.17627E-05  4096   0.451E-03    0.898E-03
DAV:   8    -0.331746569410E+04    0.22131E-06   -0.85359E-06  3904   0.316E-03
  38 F= -.33315853E+04 E0= -.33315853E+04  d E =-.180780E-02
 BRION: g(F)=  0.271E-03 g(S)=  0.000E+00 retain N=  3 mean eig= 1.01
 eig:   2.108  0.121  0.799
 bond charge predicted
       N       E                     dE             d eps       ncg     rms          rms(c)
DAV:   1    -0.331746547973E+04    0.21459E-03   -0.24505E-02  3712   0.154E-01    0.331E-02
DAV:   2    -0.331746553145E+04   -0.51728E-04   -0.70999E-04  3936   0.215E-02    0.216E-02
DAV:   3    -0.331746552967E+04    0.17863E-05   -0.19150E-05  4256   0.468E-03    0.160E-02
DAV:   4    -0.331746553280E+04   -0.31356E-05   -0.13962E-05  3936   0.463E-03    0.557E-03
DAV:   5    -0.331746553371E+04   -0.90990E-06   -0.35536E-06  3616   0.214E-03
  39 F= -.33315851E+04 E0= -.33315851E+04  d E =0.168901E-03
 BRION: g(F)=  0.574E-03 g(S)=  0.000E+00 retain N=  4 mean eig= 1.01
 eig:   2.878  0.755  0.197  0.197
 bond charge predicted
       N       E                     dE             d eps       ncg     rms          rms(c)
DAV:   1    -0.331746561892E+04   -0.86115E-04   -0.57531E-03  3712   0.826E-02    0.146E-02
DAV:   2    -0.331746563004E+04   -0.11124E-04   -0.14881E-04  3936   0.114E-02    0.116E-02
DAV:   3    -0.331746562861E+04    0.14288E-05   -0.50634E-06  3968   0.245E-03    0.852E-03
DAV:   4    -0.331746562780E+04    0.80909E-06   -0.35368E-06  3584   0.240E-03
  40 F= -.33315852E+04 E0= -.33315852E+04  d E =-.919666E-04
 BRION: g(F)=  0.193E-03 g(S)=  0.000E+00 retain N=  1 mean eig= 0.21
 eig:   0.209
 bond charge predicted
       N       E                     dE             d eps       ncg     rms          rms(c)
DAV:   1    -0.331746573389E+04   -0.10527E-03   -0.36186E-02  3776   0.172E-01    0.358E-02
DAV:   2    -0.331746579673E+04   -0.62841E-04   -0.83345E-04  3904   0.218E-02    0.210E-02
DAV:   3    -0.331746579750E+04   -0.77696E-06   -0.14207E-05  4224   0.404E-03    0.156E-02
DAV:   4    -0.331746580666E+04   -0.91561E-05   -0.13793E-05  3808   0.439E-03    0.436E-03
DAV:   5    -0.331746580709E+04   -0.42713E-06   -0.31064E-06  3648   0.192E-03
  41 F= -.33315854E+04 E0= -.33315854E+04  d E =-.170214E-03
 BRION: g(F)=  0.279E-03 g(S)=  0.000E+00 retain N=  2 mean eig= 0.23
 eig:   0.233  0.233
 bond charge predicted
       N       E                     dE             d eps       ncg     rms          rms(c)
DAV:   1    -0.331746585386E+04   -0.47201E-04   -0.24203E-03  3712   0.509E-02    0.104E-02
DAV:   2    -0.331746585829E+04   -0.44254E-05   -0.63759E-05  4032   0.700E-03    0.728E-03
DAV:   3    -0.331746585810E+04    0.18731E-06   -0.16755E-06  3168   0.153E-03
  42 F= -.33315854E+04 E0= -.33315854E+04  d E =-.496597E-04
 BRION: g(F)=  0.182E-03 g(S)=  0.000E+00 retain N=  1 mean eig= 0.20
 eig:   0.200
 bond charge predicted
       N       E                     dE             d eps       ncg     rms          rms(c)
DAV:   1    -0.331746597157E+04   -0.11328E-03   -0.34314E-02  3776   0.166E-01    0.355E-02
DAV:   2    -0.331746602976E+04   -0.58190E-04   -0.78976E-04  3872   0.209E-02    0.209E-02
DAV:   3    -0.331746603123E+04   -0.14780E-05   -0.13072E-05  4224   0.383E-03    0.156E-02
DAV:   4    -0.331746604092E+04   -0.96851E-05   -0.13617E-05  3712   0.428E-03    0.395E-03
DAV:   5    -0.331746604114E+04   -0.22119E-06   -0.29197E-06  3584   0.181E-03
  43 F= -.33315856E+04 E0= -.33315856E+04  d E =-.174067E-03
 BRION: g(F)=  0.195E-03 g(S)=  0.000E+00 retain N=  2 mean eig= 0.21
 eig:   0.211  0.211
 bond charge predicted
       N       E                     dE             d eps       ncg     rms          rms(c)
DAV:   1    -0.331746609045E+04   -0.49530E-04   -0.35916E-03  3776   0.562E-02    0.122E-02
DAV:   2    -0.331746609709E+04   -0.66379E-05   -0.90513E-05  3904   0.744E-03    0.720E-03
DAV:   3    -0.331746609725E+04   -0.16368E-06   -0.15928E-06  3264   0.147E-03
  44 F= -.33315857E+04 E0= -.33315857E+04  d E =-.536339E-04
 BRION: g(F)=  0.180E-03 g(S)=  0.000E+00 retain N=  1 mean eig= 0.24
 eig:   0.237
 bond charge predicted
       N       E                     dE             d eps       ncg     rms          rms(c)
DAV:   1    -0.331746620578E+04   -0.10869E-03   -0.27276E-02  3776   0.147E-01    0.318E-02
DAV:   2    -0.331746625179E+04   -0.46007E-04   -0.63003E-04  3904   0.186E-02    0.185E-02
DAV:   3    -0.331746625310E+04   -0.13099E-05   -0.10501E-05  4192   0.343E-03    0.139E-02
DAV:   4    -0.331746626128E+04   -0.81834E-05   -0.10146E-05  3648   0.372E-03    0.355E-03
DAV:   5    -0.331746626152E+04   -0.23469E-06   -0.22201E-06  3552   0.158E-03
  45 F= -.33315858E+04 E0= -.33315858E+04  d E =-.156173E-03
 BRION: g(F)=  0.176E-03 g(S)=  0.000E+00 retain N=  2 mean eig= 0.32
 eig:   0.323  0.323
 bond charge predicted
       N       E                     dE             d eps       ncg     rms          rms(c)
DAV:   1    -0.331746632343E+04   -0.62147E-04   -0.60204E-03  3776   0.704E-02    0.154E-02
DAV:   2    -0.331746633433E+04   -0.10898E-04   -0.14845E-04  3904   0.920E-03    0.896E-03
DAV:   3    -0.331746633477E+04   -0.44343E-06   -0.24580E-06  3712   0.175E-03
  46 F= -.33315859E+04 E0= -.33315859E+04  d E =-.696573E-04
 BRION: g(F)=  0.177E-03 g(S)=  0.000E+00 retain N=  1 mean eig= 0.20
 eig:   0.197
 bond charge predicted
       N       E                     dE             d eps       ncg     rms          rms(c)
DAV:   1    -0.331746643601E+04   -0.10168E-03   -0.20305E-02  3776   0.127E-01    0.279E-02
DAV:   2    -0.331746646944E+04   -0.33431E-04   -0.46835E-04  3872   0.160E-02    0.162E-02
DAV:   3    -0.331746647079E+04   -0.13488E-05   -0.81169E-06  4032   0.300E-03    0.121E-02
DAV:   4    -0.331746647722E+04   -0.64316E-05   -0.71507E-06  3648   0.315E-03    0.309E-03
DAV:   5    -0.331746647742E+04   -0.20245E-06   -0.15181E-06  3328   0.134E-03
  47 F= -.33315860E+04 E0= -.33315860E+04  d E =-.135197E-03
 BRION: g(F)=  0.172E-03 g(S)=  0.000E+00 retain N=  2 mean eig= 0.21
 eig:   0.112  0.304
 bond charge predicted
       N       E                     dE             d eps       ncg     rms          rms(c)
DAV:   1    -0.331746653578E+04   -0.58565E-04   -0.54909E-03  3776   0.669E-02    0.146E-02
DAV:   2    -0.331746654572E+04   -0.99370E-05   -0.13471E-04  3904   0.868E-03    0.831E-03
DAV:   3    -0.331746654607E+04   -0.35146E-06   -0.21249E-06  3552   0.163E-03
  48 F= -.33315861E+04 E0= -.33315861E+04  d E =-.652451E-04
 BRION: g(F)=  0.172E-03 g(S)=  0.000E+00 retain N=  2 mean eig= 1.70
 eig:   0.010  3.398
 bond charge predicted
       N       E                     dE             d eps       ncg     rms          rms(c)
DAV:   1    -0.331746666135E+04   -0.11563E-03   -0.67950E-02  3712   0.232E-01    0.499E-02
DAV:   2    -0.331746677755E+04   -0.11621E-03   -0.15814E-03  3904   0.293E-02    0.288E-02
DAV:   3    -0.331746678052E+04   -0.29719E-05   -0.26228E-05  4192   0.539E-03    0.217E-02
DAV:   4    -0.331746680107E+04   -0.20544E-04   -0.25591E-05  3840   0.589E-03    0.551E-03
DAV:   5    -0.331746680154E+04   -0.47614E-06   -0.56518E-06  3808   0.248E-03
  49 F= -.33315863E+04 E0= -.33315863E+04  d E =-.242235E-03
 BRION: g(F)=  0.173E-03 g(S)=  0.000E+00 retain N=  2 mean eig= 0.36
 eig:   0.363  0.363
 bond charge predicted
       N       E                     dE             d eps       ncg     rms          rms(c)
DAV:   1    -0.331746676381E+04    0.37263E-04   -0.16212E-03  3712   0.414E-02    0.721E-03
DAV:   2    -0.331746676676E+04   -0.29586E-05   -0.38975E-05  4032   0.553E-03    0.565E-03
DAV:   3    -0.331746676642E+04    0.34703E-06   -0.91103E-07  2784   0.115E-03
  50 F= -.33315863E+04 E0= -.33315863E+04  d E =0.338781E-04
 BRION: g(F)=  0.183E-03 g(S)=  0.000E+00 retain N=  3 mean eig= 2.56
 eig:   7.259  0.074  0.360
 bond charge predicted
       N       E                     dE             d eps       ncg     rms          rms(c)
DAV:   1    -0.331746676409E+04    0.26751E-05   -0.20878E-01  3712   0.405E-01    0.849E-02
DAV:   2    -0.331746713890E+04   -0.37481E-03   -0.49355E-03  3936   0.517E-02    0.485E-02
DAV:   3    -0.331746714493E+04   -0.60336E-05   -0.78728E-05  4224   0.930E-03    0.366E-02
DAV:   4    -0.331746720161E+04   -0.56679E-04   -0.82183E-05  3840   0.104E-02    0.955E-03
DAV:   5    -0.331746720282E+04   -0.12108E-05   -0.17971E-05  3968   0.437E-03    0.795E-03
DAV:   6    -0.331746720258E+04    0.24179E-06   -0.41400E-06  3520   0.230E-03
  51 F= -.33315867E+04 E0= -.33315867E+04  d E =-.412015E-03
 BRION: g(F)=  0.196E-03 g(S)=  0.000E+00 retain N=  3 mean eig= 3.02
 eig:   7.927  0.562  0.562
 bond charge predicted
       N       E                     dE             d eps       ncg     rms          rms(c)
DAV:   1    -0.331746729900E+04   -0.96181E-04   -0.33526E-02  3776   0.162E-01    0.357E-02
DAV:   2    -0.331746735850E+04   -0.59503E-04   -0.81742E-04  3904   0.209E-02    0.200E-02
DAV:   3    -0.331746736098E+04   -0.24729E-05   -0.13144E-05  4224   0.384E-03    0.150E-02
DAV:   4    -0.331746737263E+04   -0.11657E-04   -0.11330E-05  3680   0.401E-03    0.396E-03
DAV:   5    -0.331746737300E+04   -0.36845E-06   -0.25185E-06  3648   0.172E-03
  52 F= -.33315869E+04 E0= -.33315869E+04  d E =-.161576E-03
 BRION: g(F)=  0.181E-03 g(S)=  0.000E+00 retain N=  3 mean eig= 0.74
 eig:   0.121  1.057  1.057
 bond charge predicted
       N       E                     dE             d eps       ncg     rms          rms(c)
DAV:   1    -0.331746681254E+04    0.56009E-03   -0.11659E-01  3712   0.301E-01    0.636E-02
DAV:   2    -0.331746701851E+04   -0.20597E-03   -0.27444E-03  3904   0.382E-02    0.363E-02
DAV:   3    -0.331746702151E+04   -0.29998E-05   -0.44845E-05  4192   0.695E-03    0.273E-02
DAV:   4    -0.331746705211E+04   -0.30599E-04   -0.45699E-05  3840   0.779E-03    0.736E-03
DAV:   5    -0.331746705343E+04   -0.13198E-05   -0.10611E-05  4000   0.328E-03    0.606E-03
DAV:   6    -0.331746705330E+04    0.12713E-06   -0.21919E-06  3072   0.173E-03
  53 F= -.33315866E+04 E0= -.33315866E+04  d E =0.302730E-03
 BRION: g(F)=  0.179E-03 g(S)=  0.000E+00 retain N=  3 mean eig= 1.49
 eig:   3.491  0.849  0.117
 bond charge predicted
       N       E                     dE             d eps       ncg     rms          rms(c)
DAV:   1    -0.331746641093E+04    0.64250E-03   -0.68553E-01  3712   0.734E-01    0.154E-01
DAV:   2    -0.331746762700E+04   -0.12161E-02   -0.16030E-02  3904   0.932E-02    0.887E-02
DAV:   3    -0.331746763781E+04   -0.10811E-04   -0.25828E-04  4224   0.168E-02    0.669E-02
DAV:   4    -0.331746782378E+04   -0.18597E-03   -0.27554E-04  3808   0.190E-02    0.169E-02
DAV:   5    -0.331746782863E+04   -0.48436E-05   -0.60735E-05  3968   0.792E-03    0.142E-02
DAV:   6    -0.331746782767E+04    0.95309E-06   -0.13232E-05  4032   0.407E-03    0.754E-03
DAV:   7    -0.331746782756E+04    0.11106E-06   -0.33313E-06  3904   0.202E-03
  54 F= -.33315873E+04 E0= -.33315873E+04  d E =-.729208E-03
 BRION: g(F)=  0.228E-03 g(S)=  0.000E+00 retain N=  3 mean eig= 0.47
 eig:   0.837  0.413  0.148
 bond charge predicted
       N       E                     dE             d eps       ncg     rms          rms(c)
DAV:   1    -0.331746703279E+04    0.79489E-03   -0.18792E-01  3712   0.385E-01    0.811E-02
DAV:   2    -0.331746736084E+04   -0.32805E-03   -0.44370E-03  3840   0.488E-02    0.466E-02
DAV:   3    -0.331746736888E+04   -0.80408E-05   -0.71777E-05  4192   0.888E-03    0.351E-02
DAV:   4    -0.331746742329E+04   -0.54409E-04   -0.74993E-05  3840   0.994E-03    0.966E-03
DAV:   5    -0.331746742460E+04   -0.13104E-05   -0.16833E-05  4032   0.428E-03    0.774E-03
DAV:   6    -0.331746742466E+04   -0.66357E-07   -0.39791E-06  3520   0.221E-03
  55 F= -.33315869E+04 E0= -.33315869E+04  d E =0.378830E-03
 BRION: g(F)=  0.210E-03 g(S)=  0.000E+00 retain N=  4 mean eig= 1.78
 eig:   6.270  0.462  0.189  0.189
 bond charge predicted
       N       E                     dE             d eps       ncg     rms          rms(c)
DAV:   1    -0.331746753507E+04   -0.11047E-03   -0.64206E-02  3712   0.227E-01    0.466E-02
DAV:   2    -0.331746764719E+04   -0.11212E-03   -0.14974E-03  3904   0.287E-02    0.274E-02
DAV:   3    -0.331746764726E+04   -0.69849E-07   -0.25102E-05  4224   0.528E-03    0.205E-02
DAV:   4    -0.331746766291E+04   -0.15649E-04   -0.27356E-05  3840   0.603E-03    0.543E-03
DAV:   5    -0.331746766388E+04   -0.96881E-06   -0.63651E-06  3936   0.254E-03
  56 F= -.33315872E+04 E0= -.33315872E+04  d E =-.225172E-03
 BRION: g(F)=  0.170E-03 g(S)=  0.000E+00 retain N=  3 mean eig= 2.30
 eig:   5.259  0.955  0.689
 bond charge predicted
       N       E                     dE             d eps       ncg     rms          rms(c)
DAV:   1    -0.331746771425E+04   -0.51335E-04   -0.80097E-03  3712   0.880E-02    0.190E-02
DAV:   2    -0.331746772850E+04   -0.14251E-04   -0.21367E-04  3904   0.121E-02    0.122E-02
DAV:   3    -0.331746772836E+04    0.14121E-06   -0.51612E-06  4000   0.267E-03
  57 F= -.33315872E+04 E0= -.33315872E+04  d E =-.622218E-04
 BRION: g(F)=  0.197E-03 g(S)=  0.000E+00 retain N=  4 mean eig= 2.07
 eig:   6.172  1.043  0.529  0.529
 bond charge predicted
       N       E                     dE             d eps       ncg     rms          rms(c)
DAV:   1    -0.331746783712E+04   -0.10863E-03   -0.28571E-02  3776   0.153E-01    0.340E-02
DAV:   2    -0.331746788379E+04   -0.46667E-04   -0.69442E-04  3904   0.198E-02    0.205E-02
DAV:   3    -0.331746788597E+04   -0.21801E-05   -0.12958E-05  4224   0.385E-03    0.153E-02
DAV:   4    -0.331746789687E+04   -0.10902E-04   -0.13161E-05  3680   0.429E-03    0.430E-03
DAV:   5    -0.331746789723E+04   -0.36252E-06   -0.27204E-06  3552   0.187E-03
  58 F= -.33315874E+04 E0= -.33315874E+04  d E =-.157226E-03
 BRION: g(F)=  0.156E-03 g(S)=  0.000E+00 retain N=  3 mean eig= 1.98
 eig:   5.148  0.399  0.399
 bond charge predicted
       N       E                     dE             d eps       ncg     rms          rms(c)
DAV:   1    -0.331746788761E+04    0.92650E-05   -0.48079E-04  3648   0.266E-02    0.430E-03
DAV:   2    -0.331746788855E+04   -0.94005E-06   -0.12729E-05  4128   0.389E-03    0.432E-03
DAV:   3    -0.331746788843E+04    0.12177E-06   -0.27310E-07  2112   0.747E-04
  59 F= -.33315874E+04 E0= -.33315874E+04  d E =0.800275E-05
 BRION: g(F)=  0.189E-03 g(S)=  0.000E+00 retain N=  4 mean eig= 2.17
 eig:   7.700  0.414  0.414  0.142
 bond charge predicted
       N       E                     dE             d eps       ncg     rms          rms(c)
DAV:   1    -0.331746794379E+04   -0.55242E-04   -0.47662E-03  3776   0.639E-02    0.130E-02
DAV:   2    -0.331746795220E+04   -0.84153E-05   -0.11740E-04  3904   0.845E-03    0.771E-03
DAV:   3    -0.331746795236E+04   -0.15658E-06   -0.19891E-06  3520   0.156E-03
  60 F= -.33315874E+04 E0= -.33315874E+04  d E =-.602177E-04
 BRION: g(F)=  0.150E-03 g(S)=  0.000E+00 retain N=  3 mean eig= 1.26
 eig:   3.397  0.024  0.373
 bond charge predicted
       N       E                     dE             d eps       ncg     rms          rms(c)
DAV:   1    -0.331746804501E+04   -0.92804E-04   -0.21037E-02  3712   0.129E-01    0.285E-02
DAV:   2    -0.331746807776E+04   -0.32753E-04   -0.48910E-04  3872   0.162E-02    0.165E-02
DAV:   3    -0.331746807957E+04   -0.18107E-05   -0.83326E-06  4064   0.303E-03    0.124E-02
DAV:   4    -0.331746808807E+04   -0.85002E-05   -0.74338E-06  3584   0.320E-03    0.318E-03
DAV:   5    -0.331746808838E+04   -0.31223E-06   -0.16224E-06  3456   0.136E-03
  61 F= -.33315875E+04 E0= -.33315875E+04  d E =-.127692E-03
 BRION: g(F)=  0.145E-03 g(S)=  0.000E+00 retain N=  4 mean eig= 1.75
 eig:   5.463  0.170  0.946  0.410
 bond charge predicted
       N       E                     dE             d eps       ncg     rms          rms(c)
DAV:   1    -0.331746818396E+04   -0.95892E-04   -0.37494E-02  3712   0.172E-01    0.373E-02
DAV:   2    -0.331746824867E+04   -0.64708E-04   -0.91511E-04  3904   0.222E-02    0.215E-02
DAV:   3    -0.331746825115E+04   -0.24796E-05   -0.14609E-05  4160   0.405E-03    0.162E-02
DAV:   4    -0.331746826586E+04   -0.14705E-04   -0.15003E-05  3616   0.447E-03    0.461E-03
DAV:   5    -0.331746826604E+04   -0.18044E-06   -0.30967E-06  3616   0.196E-03
  62 F= -.33315877E+04 E0= -.33315877E+04  d E =-.166021E-03
 BRION: g(F)=  0.157E-03 g(S)=  0.000E+00 retain N=  3 mean eig= 1.75
 eig:   4.177  0.343  0.728
 bond charge predicted
       N       E                     dE             d eps       ncg     rms          rms(c)
DAV:   1    -0.331746818959E+04    0.76261E-04   -0.24522E-01  3744   0.436E-01    0.941E-02
DAV:   2    -0.331746860895E+04   -0.41935E-03   -0.58252E-03  3904   0.557E-02    0.535E-02
DAV:   3    -0.331746861811E+04   -0.91610E-05   -0.93304E-05  4224   0.100E-02    0.403E-02
DAV:   4    -0.331746871016E+04   -0.92047E-04   -0.91889E-05  3776   0.110E-02    0.106E-02
DAV:   5    -0.331746871290E+04   -0.27447E-05   -0.20394E-05  4096   0.465E-03    0.863E-03
DAV:   6    -0.331746871275E+04    0.14971E-06   -0.49757E-06  3520   0.252E-03
  63 F= -.33315881E+04 E0= -.33315881E+04  d E =-.417164E-03
 BRION: g(F)=  0.192E-03 g(S)=  0.000E+00 retain N=  2 mean eig= 0.43
 eig:   0.245  0.606
 bond charge predicted
       N       E                     dE             d eps       ncg     rms          rms(c)
DAV:   1    -0.331746762526E+04    0.10876E-02   -0.28733E-01  3744   0.472E-01    0.101E-01
DAV:   2    -0.331746812447E+04   -0.49921E-03   -0.68377E-03  3872   0.598E-02    0.575E-02
DAV:   3    -0.331746813430E+04   -0.98293E-05   -0.11023E-04  4224   0.109E-02    0.435E-02
DAV:   4    -0.331746822604E+04   -0.91738E-04   -0.11961E-04  3808   0.125E-02    0.122E-02
DAV:   5    -0.331746822866E+04   -0.26276E-05   -0.27239E-05  3968   0.531E-03    0.101E-02
DAV:   6    -0.331746822881E+04   -0.14866E-06   -0.63334E-06  3744   0.280E-03
  64 F= -.33315877E+04 E0= -.33315877E+04  d E =0.453048E-03
 BRION: g(F)=  0.150E-03 g(S)=  0.000E+00 retain N=  3 mean eig= 1.66
 eig:   3.407  0.267  1.291
 bond charge predicted
       N       E                     dE             d eps       ncg     rms          rms(c)
DAV:   1    -0.331746825506E+04   -0.26400E-04   -0.12238E-03  3712   0.353E-02    0.645E-03
DAV:   2    -0.331746825722E+04   -0.21618E-05   -0.27019E-05  4000   0.452E-03    0.512E-03
DAV:   3    -0.331746825681E+04    0.41223E-06   -0.62341E-07  2624   0.988E-04
  65 F= -.33315877E+04 E0= -.33315877E+04  d E =-.278801E-04
 BRION: g(F)=  0.153E-03 g(S)=  0.000E+00 retain N=  3 mean eig= 2.21
 eig:   5.570  0.527  0.527
 bond charge predicted
       N       E                     dE             d eps       ncg     rms          rms(c)
DAV:   1    -0.331746828074E+04   -0.23515E-04   -0.79400E-04  3744   0.271E-02    0.575E-03
DAV:   2    -0.331746828165E+04   -0.91374E-06   -0.16255E-05  3840   0.320E-03    0.376E-03
DAV:   3    -0.331746828172E+04   -0.64378E-07   -0.21960E-07  2496   0.692E-04
  66 F= -.33315877E+04 E0= -.33315877E+04  d E =-.236523E-04
 BRION: g(F)=  0.155E-03 g(S)=  0.000E+00 retain N=  4 mean eig= 2.20
 eig:   6.319  0.887  0.887  0.715
 bond charge predicted
       N       E                     dE             d eps       ncg     rms          rms(c)
DAV:   1    -0.331746832169E+04   -0.40033E-04   -0.23807E-03  3776   0.454E-02    0.972E-03
DAV:   2    -0.331746832536E+04   -0.36722E-05   -0.58309E-05  3840   0.588E-03    0.614E-03
DAV:   3    -0.331746832552E+04   -0.16252E-06   -0.95518E-07  3072   0.115E-03
  67 F= -.33315878E+04 E0= -.33315878E+04  d E =-.406372E-04
 BRION: g(F)=  0.163E-03 g(S)=  0.000E+00 retain N=  2 mean eig= 2.82
 eig:   0.312  5.331
 bond charge predicted
       N       E                     dE             d eps       ncg     rms          rms(c)
DAV:   1    -0.331746837749E+04   -0.52134E-04   -0.73780E-03  3744   0.823E-02    0.174E-02
DAV:   2    -0.331746838964E+04   -0.12146E-04   -0.18937E-04  3936   0.112E-02    0.113E-02
DAV:   3    -0.331746838984E+04   -0.20163E-06   -0.43947E-06  4032   0.225E-03
  68 F= -.33315878E+04 E0= -.33315878E+04  d E =-.578191E-04
 BRION: g(F)=  0.238E-03 g(S)=  0.000E+00 retain N=  3 mean eig= 2.58
 eig:   7.200  0.275  0.275
 bond charge predicted
       N       E                     dE             d eps       ncg     rms          rms(c)
DAV:   1    -0.331746848377E+04   -0.94129E-04   -0.16370E-02  3712   0.122E-01    0.260E-02
DAV:   2    -0.331746850717E+04   -0.23400E-04   -0.38582E-04  3872   0.157E-02    0.163E-02
DAV:   3    -0.331746850826E+04   -0.10921E-05   -0.85408E-06  4160   0.321E-03    0.119E-02
DAV:   4    -0.331746851536E+04   -0.71047E-05   -0.69738E-06  3584   0.323E-03    0.386E-03
DAV:   5    -0.331746851620E+04   -0.83295E-06   -0.15709E-06  3296   0.141E-03
  69 F= -.33315879E+04 E0= -.33315879E+04  d E =-.118874E-03
 BRION: g(F)=  0.165E-03 g(S)=  0.000E+00 retain N=  3 mean eig= 1.46
 eig:   0.105  0.284  3.999
 bond charge predicted
       N       E                     dE             d eps       ncg     rms          rms(c)
DAV:   1    -0.331746851356E+04    0.18051E-05   -0.27635E-04  3712   0.195E-02    0.367E-03
DAV:   2    -0.331746851403E+04   -0.47113E-06   -0.74530E-06  4224   0.288E-03
  70 F= -.33315879E+04 E0= -.33315879E+04  d E =0.629758E-06
 BRION: g(F)=  0.143E-03 g(S)=  0.000E+00 retain N=  2 mean eig= 0.11
 eig:   0.108  0.120
 bond charge predicted
       N       E                     dE             d eps       ncg     rms          rms(c)
DAV:   1    -0.331746860648E+04   -0.92918E-04   -0.26678E-02  3712   0.145E-01    0.311E-02
DAV:   2    -0.331746864958E+04   -0.43103E-04   -0.63814E-04  3872   0.186E-02    0.178E-02
DAV:   3    -0.331746865146E+04   -0.18838E-05   -0.10144E-05  4128   0.338E-03    0.135E-02
DAV:   4    -0.331746866327E+04   -0.11803E-04   -0.10609E-05  3584   0.377E-03    0.365E-03
DAV:   5    -0.331746866345E+04   -0.18044E-06   -0.22476E-06  3552   0.161E-03
  71 F= -.33315881E+04 E0= -.33315881E+04  d E =-.139236E-03
 BRION: g(F)=  0.142E-03 g(S)=  0.000E+00 retain N=  3 mean eig= 0.25
 eig:   0.173  0.173  0.411
 bond charge predicted
       N       E                     dE             d eps       ncg     rms          rms(c)
DAV:   1    -0.331746873241E+04   -0.69139E-04   -0.12027E-02  3744   0.972E-02    0.218E-02
DAV:   2    -0.331746875167E+04   -0.19259E-04   -0.29651E-04  3904   0.125E-02    0.122E-02
DAV:   3    -0.331746875288E+04   -0.12141E-05   -0.47969E-06  4000   0.232E-03    0.913E-03
DAV:   4    -0.331746875897E+04   -0.60943E-05   -0.40421E-06  3552   0.239E-03    0.253E-03
DAV:   5    -0.331746875917E+04   -0.19628E-06   -0.85800E-07  2880   0.105E-03
  72 F= -.33315882E+04 E0= -.33315882E+04  d E =-.893960E-04
 BRION: g(F)=  0.153E-03 g(S)=  0.000E+00 retain N=  1 mean eig= 0.37
 eig:   0.371
 bond charge predicted
       N       E                     dE             d eps       ncg     rms          rms(c)
DAV:   1    -0.331746882548E+04   -0.66505E-04   -0.84081E-03  3712   0.816E-02    0.180E-02
DAV:   2    -0.331746884011E+04   -0.14628E-04   -0.21399E-04  3904   0.107E-02    0.108E-02
DAV:   3    -0.331746884094E+04   -0.83679E-06   -0.35027E-06  3936   0.201E-03
  73 F= -.33315883E+04 E0= -.33315883E+04  d E =-.749679E-04
 BRION: g(F)=  0.149E-03 g(S)=  0.000E+00 retain N=  2 mean eig= 0.95
 eig:   0.408  1.492
 bond charge predicted
       N       E                     dE             d eps       ncg     rms          rms(c)
DAV:   1    -0.331746887386E+04   -0.33754E-04   -0.12235E-03  3776   0.326E-02    0.855E-03
DAV:   2    -0.331746887495E+04   -0.10934E-05   -0.27547E-05  3872   0.416E-03    0.527E-03
DAV:   3    -0.331746887536E+04   -0.40419E-06   -0.92593E-07  3040   0.107E-03
  74 F= -.33315883E+04 E0= -.33315883E+04  d E =-.327962E-04
 BRION: g(F)=  0.138E-03 g(S)=  0.000E+00 retain N=  2 mean eig= 0.55
 eig:   0.202  0.906
 bond charge predicted
       N       E                     dE             d eps       ncg     rms          rms(c)
DAV:   1    -0.331746896675E+04   -0.91798E-04   -0.26383E-02  3712   0.144E-01    0.319E-02
DAV:   2    -0.331746900406E+04   -0.37311E-04   -0.62584E-04  3872   0.184E-02    0.189E-02
DAV:   3    -0.331746900693E+04   -0.28622E-05   -0.10346E-05  4192   0.341E-03    0.142E-02
DAV:   4    -0.331746902191E+04   -0.14983E-04   -0.11096E-05  3552   0.388E-03    0.374E-03
DAV:   5    -0.331746902218E+04   -0.26985E-06   -0.24052E-06  3616   0.163E-03
  75 F= -.33315884E+04 E0= -.33315884E+04  d E =-.137296E-03
 BRION: g(F)=  0.138E-03 g(S)=  0.000E+00 retain N=  3 mean eig= 0.63
 eig:   0.908  0.198  0.776
 bond charge predicted
       N       E                     dE             d eps       ncg     rms          rms(c)
DAV:   1    -0.331746908160E+04   -0.59691E-04   -0.69859E-03  3712   0.750E-02    0.168E-02
DAV:   2    -0.331746909316E+04   -0.11557E-04   -0.17656E-04  3904   0.986E-03    0.972E-03
DAV:   3    -0.331746909389E+04   -0.73819E-06   -0.28283E-06  3840   0.184E-03
  76 F= -.33315885E+04 E0= -.33315885E+04  d E =-.656532E-04
 BRION: g(F)=  0.141E-03 g(S)=  0.000E+00 retain N=  1 mean eig= 0.19
 eig:   0.191
 bond charge predicted
       N       E                     dE             d eps       ncg     rms          rms(c)
DAV:   1    -0.331746917387E+04   -0.80715E-04   -0.13002E-02  3712   0.101E-01    0.230E-02
DAV:   2    -0.331746919121E+04   -0.17337E-04   -0.30363E-04  3840   0.128E-02    0.134E-02
DAV:   3    -0.331746919287E+04   -0.16668E-05   -0.55812E-06  4000   0.247E-03    0.998E-03
DAV:   4    -0.331746920044E+04   -0.75713E-05   -0.42965E-06  3552   0.250E-03    0.267E-03
DAV:   5    -0.331746920075E+04   -0.30338E-06   -0.90372E-07  3008   0.107E-03
  77 F= -.33315886E+04 E0= -.33315886E+04  d E =-.998415E-04
 BRION: g(F)=  0.134E-03 g(S)=  0.000E+00 retain N=  2 mean eig= 0.26
 eig:   0.256  0.256
 bond charge predicted
       N       E                     dE             d eps       ncg     rms          rms(c)
DAV:   1    -0.331746927239E+04   -0.71946E-04   -0.13211E-02  3712   0.102E-01    0.224E-02
DAV:   2    -0.331746929305E+04   -0.20660E-04   -0.32165E-04  3904   0.132E-02    0.127E-02
DAV:   3    -0.331746929394E+04   -0.88906E-06   -0.51151E-06  3968   0.241E-03
  78 F= -.33315887E+04 E0= -.33315887E+04  d E =-.862548E-04
 BRION: g(F)=  0.144E-03 g(S)=  0.000E+00 retain N=  2 mean eig= 0.31
 eig:   0.314  0.314
 bond charge predicted
       N       E                     dE             d eps       ncg     rms          rms(c)
DAV:   1    -0.331746939660E+04   -0.10355E-03   -0.55541E-02  3712   0.208E-01    0.464E-02
DAV:   2    -0.331746947646E+04   -0.79861E-04   -0.13035E-03  3872   0.264E-02    0.268E-02
DAV:   3    -0.331746948118E+04   -0.47159E-05   -0.22802E-05  4224   0.493E-03    0.201E-02
DAV:   4    -0.331746951177E+04   -0.30595E-04   -0.19572E-05  3744   0.519E-03    0.542E-03
DAV:   5    -0.331746951296E+04   -0.11829E-05   -0.43600E-06  3904   0.219E-03    0.426E-03
DAV:   6    -0.331746951303E+04   -0.69151E-07   -0.10694E-06  2816   0.124E-03
  79 F= -.33315889E+04 E0= -.33315889E+04  d E =-.203883E-03
 BRION: g(F)=  0.144E-03 g(S)=  0.000E+00 retain N=  2 mean eig= 1.77
 eig:   0.396  3.151
 bond charge predicted
       N       E                     dE             d eps       ncg     rms          rms(c)
DAV:   1    -0.331746908692E+04    0.42603E-03   -0.81256E-02  3744   0.250E-01    0.538E-02
DAV:   2    -0.331746921620E+04   -0.12928E-03   -0.19357E-03  3904   0.318E-02    0.310E-02
DAV:   3    -0.331746922110E+04   -0.49061E-05   -0.31183E-05  4224   0.578E-03    0.235E-02
DAV:   4    -0.331746925762E+04   -0.36514E-04   -0.34173E-05  3840   0.667E-03    0.675E-03
DAV:   5    -0.331746925849E+04   -0.87428E-06   -0.76471E-06  3936   0.284E-03
  80 F= -.33315886E+04 E0= -.33315886E+04  d E =0.235917E-03
 BRION: g(F)=  0.147E-03 g(S)=  0.000E+00 retain N=  3 mean eig= 1.55
 eig:   3.821  0.445  0.383
 bond charge predicted
       N       E                     dE             d eps       ncg     rms          rms(c)
DAV:   1    -0.331746926660E+04   -0.89809E-05   -0.96477E-05  3680   0.883E-03    0.240E-03
DAV:   2    -0.331746926683E+04   -0.23423E-06   -0.21140E-06  3392   0.123E-03
  81 F= -.33315886E+04 E0= -.33315886E+04  d E =-.791465E-05
 BRION: g(F)=  0.142E-03 g(S)=  0.000E+00 retain N=  4 mean eig= 3.13
 eig:   7.695  2.175  2.175  0.476
 bond charge predicted
       N       E                     dE             d eps       ncg     rms          rms(c)
DAV:   1    -0.331746927579E+04   -0.91923E-05   -0.97849E-02  3776   0.267E-01    0.643E-02
DAV:   2    -0.331746943034E+04   -0.15455E-03   -0.24582E-03  3936   0.346E-02    0.372E-02
DAV:   3    -0.331746942994E+04    0.40699E-06   -0.47538E-05  4224   0.663E-03    0.278E-02
DAV:   4    -0.331746947946E+04   -0.49522E-04   -0.38743E-05  3808   0.699E-03    0.868E-03
DAV:   5    -0.331746948423E+04   -0.47680E-05   -0.97810E-06  4096   0.297E-03    0.636E-03
DAV:   6    -0.331746948469E+04   -0.46240E-06   -0.24051E-06  3264   0.178E-03
  82 F= -.33315889E+04 E0= -.33315889E+04  d E =-.213598E-03
 BRION: g(F)=  0.416E-03 g(S)=  0.000E+00 retain N=  4 mean eig= 1.96
 eig:   3.491  1.893  1.893  0.572
 bond charge predicted
       N       E                     dE             d eps       ncg     rms          rms(c)
DAV:   1    -0.331746940788E+04    0.76343E-04   -0.23469E-01  3712   0.423E-01    0.946E-02
DAV:   2    -0.331746982490E+04   -0.41701E-03   -0.58374E-03  3840   0.552E-02    0.556E-02
DAV:   3    -0.331746983404E+04   -0.91437E-05   -0.96779E-05  4224   0.101E-02    0.422E-02
DAV:   4    -0.331746993176E+04   -0.97721E-04   -0.10125E-04  3680   0.113E-02    0.129E-02
DAV:   5    -0.331746993426E+04   -0.25007E-05   -0.21162E-05  4064   0.496E-03    0.989E-03
DAV:   6    -0.331746993606E+04   -0.17920E-05   -0.69148E-06  3712   0.280E-03    0.433E-03
DAV:   7    -0.331746993610E+04   -0.40396E-07   -0.10106E-06  3040   0.120E-03
  83 F= -.33315893E+04 E0= -.33315893E+04  d E =-.422620E-03
 BRION: g(F)=  0.290E-03 g(S)=  0.000E+00 retain N=  5 mean eig= 2.13
 eig:   4.153  1.768  1.768  0.580  2.405
 bond charge predicted
       N       E                     dE             d eps       ncg     rms          rms(c)
DAV:   1    -0.331747001703E+04   -0.80975E-04   -0.80234E-02  3744   0.247E-01    0.556E-02
DAV:   2    -0.331747014501E+04   -0.12798E-03   -0.19876E-03  3936   0.322E-02    0.321E-02
DAV:   3    -0.331747014682E+04   -0.18119E-05   -0.34572E-05  4224   0.597E-03    0.243E-02
DAV:   4    -0.331747019443E+04   -0.47604E-04   -0.33331E-05  3808   0.678E-03    0.744E-03
DAV:   5    -0.331747019583E+04   -0.14058E-05   -0.75980E-06  4032   0.286E-03    0.585E-03
DAV:   6    -0.331747019596E+04   -0.12759E-06   -0.21665E-06  3136   0.166E-03
  84 F= -.33315895E+04 E0= -.33315895E+04  d E =-.246717E-03
 BRION: g(F)=  0.202E-03 g(S)=  0.000E+00 retain N=  2 mean eig= 0.99
 eig:   0.293  1.690
 bond charge predicted
       N       E                     dE             d eps       ncg     rms          rms(c)
DAV:   1    -0.331747017193E+04    0.23900E-04   -0.19795E-01  3712   0.385E-01    0.842E-02
DAV:   2    -0.331747050285E+04   -0.33092E-03   -0.47921E-03  3840   0.496E-02    0.489E-02
DAV:   3    -0.331747050923E+04   -0.63748E-05   -0.76466E-05  4224   0.904E-03    0.370E-02
DAV:   4    -0.331747060724E+04   -0.98017E-04   -0.80745E-05  3872   0.103E-02    0.112E-02
DAV:   5    -0.331747060844E+04   -0.11979E-05   -0.17702E-05  4000   0.455E-03    0.840E-03
DAV:   6    -0.331747060930E+04   -0.85903E-06   -0.50033E-06  3648   0.241E-03
  85 F= -.33315899E+04 E0= -.33315899E+04  d E =-.377540E-03
 BRION: g(F)=  0.235E-03 g(S)=  0.000E+00 retain N=  3 mean eig= 1.25
 eig:   0.237  0.421  3.093
 bond charge predicted
       N       E                     dE             d eps       ncg     rms          rms(c)
DAV:   1    -0.331747058288E+04    0.25563E-04   -0.18759E-03  3648   0.483E-02    0.850E-03
DAV:   2    -0.331747058685E+04   -0.39741E-05   -0.52642E-05  4032   0.703E-03    0.769E-03
DAV:   3    -0.331747058627E+04    0.58138E-06   -0.16499E-06  3296   0.147E-03
  86 F= -.33315899E+04 E0= -.33315899E+04  d E =0.208534E-04
 BRION: g(F)=  0.169E-03 g(S)=  0.000E+00 retain N=  3 mean eig= 0.73
 eig:   2.052  0.134  0.003
 bond charge predicted
       N       E                     dE             d eps       ncg     rms          rms(c)
DAV:   1    -0.331747058911E+04   -0.22529E-05   -0.33219E-04  3648   0.218E-02    0.396E-03
DAV:   2    -0.331747058995E+04   -0.83959E-06   -0.11207E-05  4192   0.354E-03    0.352E-03
DAV:   3    -0.331747058987E+04    0.74273E-07   -0.26579E-07  2272   0.745E-04
  87 F= -.33315899E+04 E0= -.33315899E+04  d E =-.131048E-05
 BRION: g(F)=  0.156E-03 g(S)=  0.000E+00 retain N=  2 mean eig= 0.22
 eig:   0.154  0.279
 bond charge predicted
       N       E                     dE             d eps       ncg     rms          rms(c)
DAV:   1    -0.331747068000E+04   -0.90058E-04   -0.32294E-02  3776   0.158E-01    0.334E-02
DAV:   2    -0.331747073284E+04   -0.52832E-04   -0.75489E-04  3904   0.202E-02    0.194E-02
DAV:   3    -0.331747073404E+04   -0.12032E-05   -0.12548E-05  4192   0.364E-03    0.146E-02
DAV:   4    -0.331747074649E+04   -0.12452E-04   -0.13097E-05  3616   0.426E-03    0.427E-03
DAV:   5    -0.331747074701E+04   -0.52131E-06   -0.29557E-06  3744   0.179E-03
  88 F= -.33315900E+04 E0= -.33315900E+04  d E =-.143133E-03
 BRION: g(F)=  0.214E-03 g(S)=  0.000E+00 retain N=  3 mean eig= 0.29
 eig:   0.243  0.243  0.387
 bond charge predicted
       N       E                     dE             d eps       ncg     rms          rms(c)
DAV:   1    -0.331747078566E+04   -0.39171E-04   -0.18996E-03  3712   0.443E-02    0.955E-03
DAV:   2    -0.331747078894E+04   -0.32798E-05   -0.52310E-05  3904   0.621E-03    0.676E-03
DAV:   3    -0.331747078884E+04    0.10722E-06   -0.11594E-06  2912   0.133E-03
  89 F= -.33315901E+04 E0= -.33315901E+04  d E =-.386127E-04
 BRION: g(F)=  0.148E-03 g(S)=  0.000E+00 retain N=  1 mean eig= 0.20
 eig:   0.199
 bond charge predicted
       N       E                     dE             d eps       ncg     rms          rms(c)
DAV:   1    -0.331747088328E+04   -0.94341E-04   -0.29063E-02  3744   0.148E-01    0.327E-02
DAV:   2    -0.331747092844E+04   -0.45161E-04   -0.67331E-04  3904   0.188E-02    0.192E-02
DAV:   3    -0.331747093038E+04   -0.19391E-05   -0.10959E-05  4192   0.342E-03    0.145E-02
DAV:   4    -0.331747094287E+04   -0.12488E-04   -0.11973E-05  3520   0.401E-03    0.402E-03
DAV:   5    -0.331747094317E+04   -0.29663E-06   -0.25535E-06  3648   0.167E-03
  90 F= -.33315902E+04 E0= -.33315902E+04  d E =-.140973E-03
 BRION: g(F)=  0.170E-03 g(S)=  0.000E+00 retain N=  2 mean eig= 0.14
 eig:   0.250  0.035
 bond charge predicted
       N       E                     dE             d eps       ncg     rms          rms(c)
DAV:   1    -0.331747098153E+04   -0.38661E-04   -0.22093E-03  3808   0.441E-02    0.102E-02
DAV:   2    -0.331747098516E+04   -0.36306E-05   -0.57910E-05  3872   0.594E-03    0.612E-03
DAV:   3    -0.331747098524E+04   -0.80792E-07   -0.98549E-07  2976   0.119E-03
  91 F= -.33315903E+04 E0= -.33315903E+04  d E =-.380622E-04
 BRION: g(F)=  0.146E-03 g(S)=  0.000E+00 retain N=  1 mean eig= 0.27
 eig:   0.268
 bond charge predicted
       N       E                     dE             d eps       ncg     rms          rms(c)
DAV:   1    -0.331747108191E+04   -0.96744E-04   -0.27934E-02  3776   0.145E-01    0.320E-02
DAV:   2    -0.331747112544E+04   -0.43530E-04   -0.64311E-04  3904   0.182E-02    0.185E-02
DAV:   3    -0.331747112726E+04   -0.18249E-05   -0.10567E-05  4192   0.330E-03    0.140E-02
DAV:   4    -0.331747113919E+04   -0.11931E-04   -0.10400E-05  3552   0.372E-03    0.392E-03
DAV:   5    -0.331747113958E+04   -0.38708E-06   -0.22726E-06  3648   0.156E-03
  92 F= -.33315904E+04 E0= -.33315904E+04  d E =-.139977E-03
 BRION: g(F)=  0.159E-03 g(S)=  0.000E+00 retain N=  2 mean eig= 0.21
 eig:   0.346  0.078
 bond charge predicted
       N       E                     dE             d eps       ncg     rms          rms(c)
DAV:   1    -0.331747117627E+04   -0.37077E-04   -0.20990E-03  3776   0.423E-02    0.973E-03
DAV:   2    -0.331747117971E+04   -0.34352E-05   -0.54544E-05  3872   0.570E-03    0.578E-03
DAV:   3    -0.331747117986E+04   -0.15739E-06   -0.84671E-07  2912   0.112E-03
  93 F= -.33315904E+04 E0= -.33315904E+04  d E =-.372229E-04
 BRION: g(F)=  0.147E-03 g(S)=  0.000E+00 retain N=  1 mean eig= 0.22
 eig:   0.224
 bond charge predicted
       N       E                     dE             d eps       ncg     rms          rms(c)
DAV:   1    -0.331747127282E+04   -0.93119E-04   -0.25278E-02  3744   0.138E-01    0.307E-02
DAV:   2    -0.331747131321E+04   -0.40387E-04   -0.59226E-04  3904   0.175E-02    0.179E-02
DAV:   3    -0.331747131476E+04   -0.15481E-05   -0.98059E-06  4160   0.321E-03    0.135E-02
DAV:   4    -0.331747132528E+04   -0.10516E-04   -0.10121E-05  3520   0.369E-03    0.384E-03
DAV:   5    -0.331747132556E+04   -0.27998E-06   -0.21459E-06  3584   0.154E-03
  94 F= -.33315906E+04 E0= -.33315906E+04  d E =-.132896E-03
 BRION: g(F)=  0.162E-03 g(S)=  0.000E+00 retain N=  2 mean eig= 0.19
 eig:   0.265  0.109
 bond charge predicted
       N       E                     dE             d eps       ncg     rms          rms(c)
DAV:   1    -0.331747136405E+04   -0.38777E-04   -0.22751E-03  3808   0.443E-02    0.102E-02
DAV:   2    -0.331747136777E+04   -0.37148E-05   -0.59392E-05  3904   0.595E-03    0.611E-03
DAV:   3    -0.331747136789E+04   -0.12678E-06   -0.97792E-07  2976   0.118E-03
  95 F= -.33315906E+04 E0= -.33315906E+04  d E =-.381418E-04
 BRION: g(F)=  0.144E-03 g(S)=  0.000E+00 retain N=  1 mean eig= 0.27
 eig:   0.271
 bond charge predicted
       N       E                     dE             d eps       ncg     rms          rms(c)
DAV:   1    -0.331747146281E+04   -0.95047E-04   -0.26273E-02  3776   0.141E-01    0.312E-02
DAV:   2    -0.331747150478E+04   -0.41962E-04   -0.61081E-04  3904   0.178E-02    0.181E-02
DAV:   3    -0.331747150635E+04   -0.15690E-05   -0.10109E-05  4160   0.323E-03    0.136E-02
DAV:   4    -0.331747151699E+04   -0.10646E-04   -0.99176E-06  3520   0.364E-03    0.388E-03
DAV:   5    -0.331747151735E+04   -0.35402E-06   -0.21434E-06  3552   0.153E-03
  96 F= -.33315907E+04 E0= -.33315907E+04  d E =-.134886E-03
 BRION: g(F)=  0.160E-03 g(S)=  0.000E+00 retain N=  2 mean eig= 0.22
 eig:   0.334  0.108
 bond charge predicted
       N       E                     dE             d eps       ncg     rms          rms(c)
DAV:   1    -0.331747155262E+04   -0.35625E-04   -0.19611E-03  3776   0.414E-02    0.948E-03
DAV:   2    -0.331747155588E+04   -0.32611E-05   -0.51440E-05  3872   0.561E-03    0.570E-03
DAV:   3    -0.331747155598E+04   -0.10384E-06   -0.82754E-07  2880   0.111E-03
  97 F= -.33315908E+04 E0= -.33315908E+04  d E =-.356919E-04
 BRION: g(F)=  0.144E-03 g(S)=  0.000E+00 retain N=  1 mean eig= 0.23
 eig:   0.229
 bond charge predicted
       N       E                     dE             d eps       ncg     rms          rms(c)
DAV:   1    -0.331747164801E+04   -0.92135E-04   -0.25504E-02  3776   0.139E-01    0.309E-02
DAV:   2    -0.331747168988E+04   -0.41865E-04   -0.59907E-04  3904   0.176E-02    0.180E-02
DAV:   3    -0.331747169141E+04   -0.15317E-05   -0.99127E-06  4160   0.322E-03    0.136E-02
DAV:   4    -0.331747170100E+04   -0.95926E-05   -0.10145E-05  3520   0.369E-03    0.387E-03
DAV:   5    -0.331747170130E+04   -0.30256E-06   -0.21698E-06  3584   0.154E-03
  98 F= -.33315909E+04 E0= -.33315909E+04  d E =-.131926E-03
 BRION: g(F)=  0.157E-03 g(S)=  0.000E+00 retain N=  2 mean eig= 0.19
 eig:   0.293  0.096
 bond charge predicted
       N       E                     dE             d eps       ncg     rms          rms(c)
DAV:   1    -0.331747173974E+04   -0.38742E-04   -0.22601E-03  3808   0.441E-02    0.102E-02
DAV:   2    -0.331747174352E+04   -0.37737E-05   -0.59119E-05  3904   0.592E-03    0.609E-03
DAV:   3    -0.331747174363E+04   -0.10838E-06   -0.95143E-07  2976   0.117E-03
  99 F= -.33315909E+04 E0= -.33315909E+04  d E =-.379685E-04
 BRION: g(F)=  0.142E-03 g(S)=  0.000E+00 retain N=  1 mean eig= 0.27
 eig:   0.267
 bond charge predicted
       N       E                     dE             d eps       ncg     rms          rms(c)
DAV:   1    -0.331747183701E+04   -0.93488E-04   -0.25475E-02  3776   0.138E-01    0.307E-02
DAV:   2    -0.331747187877E+04   -0.41769E-04   -0.59552E-04  3904   0.175E-02    0.179E-02
DAV:   3    -0.331747188020E+04   -0.14268E-05   -0.98600E-06  4160   0.319E-03    0.135E-02
DAV:   4    -0.331747189000E+04   -0.98010E-05   -0.96294E-06  3520   0.359E-03    0.384E-03
DAV:   5    -0.331747189030E+04   -0.29977E-06   -0.20983E-06  3552   0.152E-03
 100 F= -.33315911E+04 E0= -.33315911E+04  d E =-.131772E-03
 BRION: g(F)=  0.158E-03 g(S)=  0.000E+00 retain N=  2 mean eig= 0.20
 eig:   0.326  0.080
 bond charge predicted
       N       E                     dE             d eps       ncg     rms          rms(c)
DAV:   1    -0.331747192452E+04   -0.34521E-04   -0.18449E-03  3776   0.402E-02    0.924E-03
DAV:   2    -0.331747192764E+04   -0.31203E-05   -0.48590E-05  3872   0.545E-03    0.555E-03
DAV:   3    -0.331747192781E+04   -0.16287E-06   -0.77819E-07  2848   0.108E-03
 101 F= -.33315911E+04 E0= -.33315911E+04  d E =-.345627E-04
 BRION: g(F)=  0.141E-03 g(S)=  0.000E+00 retain N=  1 mean eig= 0.24
 eig:   0.238
 bond charge predicted
       N       E                     dE             d eps       ncg     rms          rms(c)
DAV:   1    -0.331747201927E+04   -0.91624E-04   -0.25529E-02  3776   0.139E-01    0.309E-02
DAV:   2    -0.331747206118E+04   -0.41909E-04   -0.60160E-04  3904   0.176E-02    0.180E-02
DAV:   3    -0.331747206290E+04   -0.17239E-05   -0.99603E-06  4160   0.323E-03    0.136E-02
DAV:   4    -0.331747207231E+04   -0.94135E-05   -0.10183E-05  3520   0.370E-03    0.389E-03
DAV:   5    -0.331747207255E+04   -0.24051E-06   -0.21916E-06  3616   0.155E-03
 102 F= -.33315912E+04 E0= -.33315912E+04  d E =-.130764E-03
 BRION: g(F)=  0.155E-03 g(S)=  0.000E+00 retain N=  2 mean eig= 0.21
 eig:   0.311  0.107
 bond charge predicted
       N       E                     dE             d eps       ncg     rms          rms(c)
DAV:   1    -0.331747211105E+04   -0.38742E-04   -0.22923E-03  3808   0.444E-02    0.103E-02
DAV:   2    -0.331747211504E+04   -0.39859E-05   -0.60072E-05  3904   0.597E-03    0.616E-03
DAV:   3    -0.331747211514E+04   -0.10128E-06   -0.96962E-07  2976   0.118E-03
 103 F= -.33315913E+04 E0= -.33315913E+04  d E =-.380679E-04
 BRION: g(F)=  0.139E-03 g(S)=  0.000E+00 retain N=  1 mean eig= 0.27
 eig:   0.269
 bond charge predicted
       N       E                     dE             d eps       ncg     rms          rms(c)
DAV:   1    -0.331747220744E+04   -0.92401E-04   -0.24899E-02  3776   0.136E-01    0.304E-02
DAV:   2    -0.331747224886E+04   -0.41421E-04   -0.58336E-04  3904   0.173E-02    0.177E-02
DAV:   3    -0.331747225088E+04   -0.20200E-05   -0.96132E-06  4160   0.315E-03    0.133E-02
DAV:   4    -0.331747225932E+04   -0.84365E-05   -0.94249E-06  3520   0.354E-03    0.381E-03
DAV:   5    -0.331747225957E+04   -0.24610E-06   -0.20432E-06  3552   0.150E-03
 104 F= -.33315914E+04 E0= -.33315914E+04  d E =-.129190E-03
 BRION: g(F)=  0.151E-03 g(S)=  0.000E+00 retain N=  2 mean eig= 0.21
 eig:   0.331  0.083
 bond charge predicted
       N       E                     dE             d eps       ncg     rms          rms(c)
DAV:   1    -0.331747229432E+04   -0.34998E-04   -0.19825E-03  3776   0.412E-02    0.951E-03
DAV:   2    -0.331747229780E+04   -0.34852E-05   -0.52054E-05  3872   0.557E-03    0.564E-03
DAV:   3    -0.331747229794E+04   -0.13842E-06   -0.81790E-07  2912   0.110E-03
 105 F= -.33315914E+04 E0= -.33315914E+04  d E =-.351108E-04
 BRION: g(F)=  0.138E-03 g(S)=  0.000E+00 retain N=  1 mean eig= 0.25
 eig:   0.248
 bond charge predicted
       N       E                     dE             d eps       ncg     rms          rms(c)
DAV:   1    -0.331747238823E+04   -0.90427E-04   -0.24253E-02  3776   0.135E-01    0.301E-02
DAV:   2    -0.331747242859E+04   -0.40358E-04   -0.57187E-04  3904   0.171E-02    0.175E-02
DAV:   3    -0.331747243049E+04   -0.19048E-05   -0.94819E-06  4160   0.314E-03    0.132E-02
DAV:   4    -0.331747243884E+04   -0.83462E-05   -0.95095E-06  3520   0.357E-03    0.380E-03
DAV:   5    -0.331747243907E+04   -0.23108E-06   -0.20552E-06  3520   0.150E-03
 106 F= -.33315916E+04 E0= -.33315916E+04  d E =-.126844E-03
 BRION: g(F)=  0.148E-03 g(S)=  0.000E+00 retain N=  2 mean eig= 0.23
 eig:   0.314  0.144
 bond charge predicted
       N       E                     dE             d eps       ncg     rms          rms(c)
DAV:   1    -0.331747247796E+04   -0.39126E-04   -0.23910E-03  3808   0.450E-02    0.104E-02
DAV:   2    -0.331747248219E+04   -0.42288E-05   -0.62379E-05  3904   0.602E-03    0.618E-03
DAV:   3    -0.331747248233E+04   -0.13923E-06   -0.98586E-07  3040   0.118E-03
 107 F= -.33315916E+04 E0= -.33315916E+04  d E =-.385394E-04
 BRION: g(F)=  0.135E-03 g(S)=  0.000E+00 retain N=  1 mean eig= 0.28
 eig:   0.279
 bond charge predicted
       N       E                     dE             d eps       ncg     rms          rms(c)
DAV:   1    -0.331747257293E+04   -0.90734E-04   -0.23639E-02  3776   0.133E-01    0.296E-02
DAV:   2    -0.331747261188E+04   -0.38955E-04   -0.55488E-04  3904   0.168E-02    0.172E-02
DAV:   3    -0.331747261348E+04   -0.15933E-05   -0.91391E-06  4160   0.307E-03    0.130E-02
DAV:   4    -0.331747262208E+04   -0.86052E-05   -0.88967E-06  3520   0.344E-03    0.371E-03
DAV:   5    -0.331747262228E+04   -0.19581E-06   -0.19216E-06  3520   0.146E-03
 108 F= -.33315917E+04 E0= -.33315917E+04  d E =-.124638E-03
 BRION: g(F)=  0.144E-03 g(S)=  0.000E+00 retain N=  2 mean eig= 0.25
 eig:   0.334  0.161
 bond charge predicted
       N       E                     dE             d eps       ncg     rms          rms(c)
DAV:   1    -0.331747265918E+04   -0.37099E-04   -0.23524E-03  3776   0.445E-02    0.102E-02
DAV:   2    -0.331747266342E+04   -0.42387E-05   -0.61266E-05  3904   0.598E-03    0.601E-03
DAV:   3    -0.331747266357E+04   -0.15099E-06   -0.96618E-07  2944   0.117E-03
 109 F= -.33315918E+04 E0= -.33315918E+04  d E =-.374853E-04
 BRION: g(F)=  0.132E-03 g(S)=  0.000E+00 retain N=  1 mean eig= 0.26
 eig:   0.261
 bond charge predicted
       N       E                     dE             d eps       ncg     rms          rms(c)
DAV:   1    -0.331747275128E+04   -0.87857E-04   -0.22150E-02  3776   0.129E-01    0.288E-02
DAV:   2    -0.331747278799E+04   -0.36718E-04   -0.52138E-04  3904   0.163E-02    0.167E-02
DAV:   3    -0.331747278933E+04   -0.13345E-05   -0.86635E-06  4160   0.300E-03    0.126E-02
DAV:   4    -0.331747279715E+04   -0.78188E-05   -0.83957E-06  3520   0.334E-03    0.362E-03
DAV:   5    -0.331747279735E+04   -0.20617E-06   -0.18052E-06  3520   0.141E-03
 110 F= -.33315919E+04 E0= -.33315919E+04  d E =-.119421E-03
 BRION: g(F)=  0.135E-03 g(S)=  0.000E+00 retain N=  2 mean eig= 0.31
 eig:   0.308  0.308
 bond charge predicted
       N       E                     dE             d eps       ncg     rms          rms(c)
DAV:   1    -0.331747284114E+04   -0.43990E-04   -0.34482E-03  3744   0.530E-02    0.121E-02
[...]
 140 F= -.33315937E+04 E0= -.33315937E+04  d E =-.302527E-04
 BRION: g(F)=  0.834E-04 g(S)=  0.000E+00 retain N=  1 mean eig= 0.23
 eig:   0.228
 bond charge predicted
       N       E                     dE             d eps       ncg     rms          rms(c)
DAV:   1    -0.331747497927E+04   -0.60352E-04   -0.14194E-02  3744   0.106E-01    0.234E-02
DAV:   2    -0.331747500366E+04   -0.24386E-04   -0.33694E-04  3904   0.135E-02    0.143E-02
DAV:   3    -0.331747500429E+04   -0.63528E-06   -0.56197E-06  4032   0.251E-03
 141 F= -.33315938E+04 E0= -.33315938E+04  d E =-.718038E-04
 BRION: g(F)=  0.928E-04 g(S)=  0.000E+00 retain N=  2 mean eig= 0.21
 eig:   0.206  0.206
 bond charge predicted
       N       E                     dE             d eps       ncg     rms          rms(c)
DAV:   1    -0.331747503147E+04   -0.27817E-04   -0.97622E-04  3776   0.301E-02    0.801E-03
DAV:   2    -0.331747503223E+04   -0.75507E-06   -0.20470E-05  3904   0.383E-03    0.510E-03
DAV:   3    -0.331747503254E+04   -0.30606E-06   -0.98009E-07  3104   0.109E-03
 142 F= -.33315938E+04 E0= -.33315938E+04  d E =-.248335E-04
 BRION: g(F)=  0.799E-04 g(S)=  0.000E+00 retain N=  2 mean eig= 3.81
 eig:   0.083  7.540
 bond charge predicted
       N       E                     dE             d eps       ncg     rms          rms(c)
DAV:   1    -0.331747509309E+04   -0.60861E-04   -0.17144E-02  3744   0.116E-01    0.256E-02
DAV:   2    -0.331747512306E+04   -0.29965E-04   -0.40825E-04  3904   0.148E-02    0.156E-02
DAV:   3    -0.331747512372E+04   -0.66042E-06   -0.66059E-06  4032   0.273E-03
 143 F= -.33315939E+04 E0= -.33315939E+04  d E =-.768233E-04
 BRION: g(F)=  0.885E-04 g(S)=  0.000E+00 retain N=  2 mean eig= 0.30
 eig:   0.298  0.298
 bond charge predicted
       N       E                     dE             d eps       ncg     rms          rms(c)
DAV:   1    -0.331747514563E+04   -0.22578E-04   -0.52364E-04  3712   0.231E-02    0.668E-03
DAV:   2    -0.331747514574E+04   -0.10710E-06   -0.10520E-05  3840   0.305E-03    0.441E-03
DAV:   3    -0.331747514599E+04   -0.24575E-06   -0.97876E-07  3072   0.110E-03
 144 F= -.33315939E+04 E0= -.33315939E+04  d E =-.197905E-04
 BRION: g(F)=  0.780E-04 g(S)=  0.000E+00 retain N=  1 mean eig= 0.21
 eig:   0.211
 bond charge predicted
       N       E                     dE             d eps       ncg     rms          rms(c)
DAV:   1    -0.331747520305E+04   -0.57311E-04   -0.14324E-02  3744   0.107E-01    0.234E-02
DAV:   2    -0.331747522837E+04   -0.25320E-04   -0.34176E-04  3904   0.136E-02    0.143E-02
DAV:   3    -0.331747522894E+04   -0.56322E-06   -0.54871E-06  4032   0.250E-03
 145 F= -.33315940E+04 E0= -.33315940E+04  d E =-.694043E-04
 BRION: g(F)=  0.872E-04 g(S)=  0.000E+00 retain N=  2 mean eig= 0.24
 eig:   0.238  0.238
 bond charge predicted
       N       E                     dE             d eps       ncg     rms          rms(c)
DAV:   1    -0.331747525477E+04   -0.26397E-04   -0.96323E-04  3744   0.300E-02    0.792E-03
DAV:   2    -0.331747525555E+04   -0.77602E-06   -0.20121E-05  3904   0.382E-03    0.504E-03
DAV:   3    -0.331747525581E+04   -0.26845E-06   -0.97065E-07  3104   0.109E-03
 146 F= -.33315940E+04 E0= -.33315940E+04  d E =-.236866E-04
 BRION: g(F)=  0.751E-04 g(S)=  0.000E+00 retain N=  1 mean eig= 0.22
 eig:   0.224
 bond charge predicted
       N       E                     dE             d eps       ncg     rms          rms(c)
DAV:   1    -0.331747531101E+04   -0.55466E-04   -0.13470E-02  3744   0.104E-01    0.228E-02
DAV:   2    -0.331747533488E+04   -0.23865E-04   -0.32107E-04  3904   0.132E-02    0.139E-02
DAV:   3    -0.331747533535E+04   -0.47684E-06   -0.52444E-06  4032   0.245E-03
 147 F= -.33315941E+04 E0= -.33315941E+04  d E =-.668453E-04
 BRION: g(F)=  0.818E-04 g(S)=  0.000E+00 retain N=  2 mean eig= 0.28
 eig:   0.279  0.279
 bond charge predicted
       N       E                     dE             d eps       ncg     rms          rms(c)
DAV:   1    -0.331747536134E+04   -0.26462E-04   -0.10154E-03  3744   0.303E-02    0.802E-03
DAV:   2    -0.331747536222E+04   -0.87859E-06   -0.21105E-05  3872   0.379E-03    0.506E-03
DAV:   3    -0.331747536250E+04   -0.28359E-06   -0.94061E-07  3104   0.106E-03
 148 F= -.33315941E+04 E0= -.33315941E+04  d E =-.235408E-04
 BRION: g(F)=  0.728E-04 g(S)=  0.000E+00 retain N=  2 mean eig= 3.07
 eig:   0.058  6.080
 bond charge predicted
       N       E                     dE             d eps       ncg     rms          rms(c)
DAV:   1    -0.331747541437E+04   -0.52158E-04   -0.11427E-02  3744   0.958E-02    0.210E-02
DAV:   2    -0.331747543469E+04   -0.20315E-04   -0.27216E-04  3904   0.122E-02    0.129E-02
DAV:   3    -0.331747543507E+04   -0.37660E-06   -0.44631E-06  4000   0.227E-03
 149 F= -.33315942E+04 E0= -.33315942E+04  d E =-.608267E-04
 BRION: g(F)=  0.802E-04 g(S)=  0.000E+00 retain N=  2 mean eig= 0.23
 eig:   0.231  0.231
 bond charge predicted
       N       E                     dE             d eps       ncg     rms          rms(c)
DAV:   1    -0.331747546385E+04   -0.29161E-04   -0.14807E-03  3776   0.361E-02    0.904E-03
DAV:   2    -0.331747546551E+04   -0.16559E-05   -0.31804E-05  3872   0.451E-03    0.561E-03
DAV:   3    -0.331747546581E+04   -0.29954E-06   -0.10587E-06  3104   0.113E-03
 150 F= -.33315942E+04 E0= -.33315942E+04  d E =-.264421E-04
 BRION: g(F)=  0.705E-04 g(S)=  0.000E+00 retain N=  2 mean eig= 2.75
 eig:   0.050  5.448
 bond charge predicted
       N       E                     dE             d eps       ncg     rms          rms(c)
DAV:   1    -0.331747551359E+04   -0.48086E-04   -0.91691E-03  3808   0.863E-02    0.190E-02
DAV:   2    -0.331747552975E+04   -0.16157E-04   -0.21816E-04  3904   0.110E-02    0.118E-02
DAV:   3    -0.331747553005E+04   -0.29861E-06   -0.36474E-06  3968   0.207E-03
 151 F= -.33315943E+04 E0= -.33315943E+04  d E =-.537535E-04
 BRION: g(F)=  0.780E-04 g(S)=  0.000E+00 retain N=  2 mean eig= 0.27
 eig:   0.273  0.273
 bond charge predicted
       N       E                     dE             d eps       ncg     rms          rms(c)
DAV:   1    -0.331747556147E+04   -0.31716E-04   -0.20648E-03  3776   0.421E-02    0.101E-02
DAV:   2    -0.331747556420E+04   -0.27391E-05   -0.45471E-05  3872   0.524E-03    0.620E-03
DAV:   3    -0.331747556451E+04   -0.30734E-06   -0.12196E-06  3264   0.120E-03
 152 F= -.33315943E+04 E0= -.33315943E+04  d E =-.295066E-04
 BRION: g(F)=  0.679E-04 g(S)=  0.000E+00 retain N=  2 mean eig= 3.16
 eig:   0.068  6.248
 bond charge predicted
       N       E                     dE             d eps       ncg     rms          rms(c)
DAV:   1    -0.331747561011E+04   -0.45908E-04   -0.79705E-03  3808   0.808E-02    0.178E-02
DAV:   2    -0.331747562405E+04   -0.13933E-04   -0.18873E-04  3904   0.103E-02    0.110E-02
DAV:   3    -0.331747562433E+04   -0.28068E-06   -0.32146E-06  3936   0.195E-03
 153 F= -.33315943E+04 E0= -.33315943E+04  d E =-.499158E-04
 BRION: g(F)=  0.748E-04 g(S)=  0.000E+00 retain N=  2 mean eig= 0.26
 eig:   0.261  0.261
 bond charge predicted
       N       E                     dE             d eps       ncg     rms          rms(c)
DAV:   1    -0.331747565701E+04   -0.32964E-04   -0.24852E-03  3744   0.460E-02    0.108E-02
DAV:   2    -0.331747566054E+04   -0.35296E-05   -0.55359E-05  3840   0.573E-03    0.661E-03
DAV:   3    -0.331747566085E+04   -0.30862E-06   -0.13221E-06  3296   0.126E-03
 154 F= -.33315944E+04 E0= -.33315944E+04  d E =-.311406E-04
 BRION: g(F)=  0.657E-04 g(S)=  0.000E+00 retain N=  2 mean eig= 2.88
 eig:   0.061  5.695
 bond charge predicted
       N       E                     dE             d eps       ncg     rms          rms(c)
DAV:   1    -0.331747570428E+04   -0.43740E-04   -0.72892E-03  3808   0.776E-02    0.170E-02
DAV:   2    -0.331747571696E+04   -0.12683E-04   -0.17200E-04  3904   0.984E-03    0.105E-02
DAV:   3    -0.331747571722E+04   -0.26135E-06   -0.30276E-06  3936   0.188E-03
 155 F= -.33315944E+04 E0= -.33315944E+04  d E =-.470991E-04
 BRION: g(F)=  0.726E-04 g(S)=  0.000E+00 retain N=  2 mean eig= 0.30
 eig:   0.296  0.296
 bond charge predicted
       N       E                     dE             d eps       ncg     rms          rms(c)
DAV:   1    -0.331747574905E+04   -0.32089E-04   -0.24227E-03  3744   0.456E-02    0.107E-02
DAV:   2    -0.331747575252E+04   -0.34655E-05   -0.54222E-05  3840   0.569E-03    0.658E-03
DAV:   3    -0.331747575281E+04   -0.29337E-06   -0.12549E-06  3296   0.124E-03
 156 F= -.33315944E+04 E0= -.33315944E+04  d E =-.300731E-04
 BRION: g(F)=  0.634E-04 g(S)=  0.000E+00 retain N=  2 mean eig= 3.68
 eig:   0.092  7.260
 bond charge predicted
       N       E                     dE             d eps       ncg     rms          rms(c)
DAV:   1    -0.331747579532E+04   -0.42807E-04   -0.71476E-03  3808   0.769E-02    0.168E-02
DAV:   2    -0.331747580778E+04   -0.12458E-04   -0.16821E-04  3904   0.974E-03    0.104E-02
DAV:   3    -0.331747580803E+04   -0.24855E-06   -0.29352E-06  3936   0.186E-03
 157 F= -.33315945E+04 E0= -.33315945E+04  d E =-.460282E-04
 BRION: g(F)=  0.694E-04 g(S)=  0.000E+00 retain N=  2 mean eig= 0.28
 eig:   0.279  0.279
 bond charge predicted
       N       E                     dE             d eps       ncg     rms          rms(c)
DAV:   1    -0.331747583851E+04   -0.30727E-04   -0.22666E-03  3776   0.441E-02    0.103E-02
DAV:   2    -0.331747584174E+04   -0.32329E-05   -0.50598E-05  3840   0.550E-03    0.636E-03
DAV:   3    -0.331747584202E+04   -0.27532E-06   -0.11835E-06  3296   0.121E-03
 158 F= -.33315945E+04 E0= -.33315945E+04  d E =-.286386E-04
 BRION: g(F)=  0.611E-04 g(S)=  0.000E+00 retain N=  2 mean eig= 3.03
 eig:   0.066  6.004
 bond charge predicted
       N       E                     dE             d eps       ncg     rms          rms(c)
DAV:   1    -0.331747588671E+04   -0.44969E-04   -0.89403E-03  3808   0.861E-02    0.186E-02
DAV:   2    -0.331747590249E+04   -0.15783E-04   -0.21091E-04  3904   0.109E-02    0.115E-02
DAV:   3    -0.331747590274E+04   -0.24482E-06   -0.36292E-06  3968   0.208E-03
 159 F= -.33315946E+04 E0= -.33315946E+04  d E =-.501993E-04
 BRION: g(F)=  0.680E-04 g(S)=  0.000E+00 retain N=  2 mean eig= 0.32
 eig:   0.317  0.317
 bond charge predicted
       N       E                     dE             d eps       ncg     rms          rms(c)
DAV:   1    -0.331747592705E+04   -0.24552E-04   -0.12823E-03  3776   0.339E-02    0.832E-03
DAV:   2    -0.331747592857E+04   -0.15284E-05   -0.27754E-05  3872   0.424E-03    0.524E-03
DAV:   3    -0.331747592882E+04   -0.24645E-06   -0.87558E-07  3008   0.105E-03
 160 F= -.33315946E+04 E0= -.33315946E+04  d E =-.222339E-04
 BRION: g(F)=  0.590E-04 g(S)=  0.000E+00 retain N=  2 mean eig= 3.53
 eig:   0.071  6.997
 bond charge predicted
       N       E                     dE             d eps       ncg     rms          rms(c)
DAV:   1    -0.331747597141E+04   -0.42832E-04   -0.83241E-03  3776   0.832E-02    0.180E-02
DAV:   2    -0.331747598628E+04   -0.14877E-04   -0.19817E-04  3904   0.106E-02    0.112E-02
DAV:   3    -0.331747598648E+04   -0.19267E-06   -0.33207E-06  3936   0.200E-03
 161 F= -.33315946E+04 E0= -.33315946E+04  d E =-.474257E-04
 BRION: g(F)=  0.664E-04 g(S)=  0.000E+00 retain N=  2 mean eig= 0.25
 eig:   0.248  0.248
 bond charge predicted
       N       E                     dE             d eps       ncg     rms          rms(c)
DAV:   1    -0.331747601128E+04   -0.25001E-04   -0.13859E-03  3776   0.352E-02    0.849E-03
DAV:   2    -0.331747601300E+04   -0.17197E-05   -0.30026E-05  3872   0.438E-03    0.530E-03
DAV:   3    -0.331747601323E+04   -0.22375E-06   -0.87551E-07  3008   0.106E-03
 162 F= -.33315947E+04 E0= -.33315947E+04  d E =-.226478E-04
 BRION: g(F)=  0.571E-04 g(S)=  0.000E+00 retain N=  2 mean eig= 2.77
 eig:   0.070  5.475
 bond charge predicted
       N       E                     dE             d eps       ncg     rms          rms(c)
DAV:   1    -0.331747605072E+04   -0.37721E-04   -0.58711E-03  3776   0.701E-02    0.153E-02
DAV:   2    -0.331747606107E+04   -0.10345E-04   -0.13957E-04  3904   0.894E-03    0.955E-03
DAV:   3    -0.331747606126E+04   -0.18883E-06   -0.23764E-06  3808   0.171E-03
 163 F= -.33315947E+04 E0= -.33315947E+04  d E =-.395512E-04
 BRION: g(F)=  0.623E-04 g(S)=  0.000E+00 retain N=  2 mean eig= 0.27
 eig:   0.274  0.274
 bond charge predicted
       N       E                     dE             d eps       ncg     rms          rms(c)
DAV:   1    -0.331747609139E+04   -0.30325E-04   -0.25249E-03  3744   0.465E-02    0.106E-02
DAV:   2    -0.331747609517E+04   -0.37764E-05   -0.56507E-05  3840   0.577E-03    0.652E-03
DAV:   3    -0.331747609542E+04   -0.24715E-06   -0.12009E-06  3296   0.122E-03
 164 F= -.33315947E+04 E0= -.33315947E+04  d E =-.283836E-04
 BRION: g(F)=  0.553E-04 g(S)=  0.000E+00 retain N=  2 mean eig= 2.94
 eig:   0.069  5.803
 bond charge predicted
       N       E                     dE             d eps       ncg     rms          rms(c)
DAV:   1    -0.331747613083E+04   -0.35659E-04   -0.50567E-03  3776   0.654E-02    0.142E-02
DAV:   2    -0.331747613954E+04   -0.87122E-05   -0.11842E-04  3872   0.827E-03    0.884E-03
DAV:   3    -0.331747613974E+04   -0.19523E-06   -0.20895E-06  3776   0.160E-03
 165 F= -.33315948E+04 E0= -.33315948E+04  d E =-.363724E-04
 BRION: g(F)=  0.598E-04 g(S)=  0.000E+00 retain N=  2 mean eig= 0.30
 eig:   0.304  0.304
 bond charge predicted
       N       E                     dE             d eps       ncg     rms          rms(c)
DAV:   1    -0.331747617085E+04   -0.31304E-04   -0.29557E-03  3776   0.503E-02    0.113E-02
DAV:   2    -0.331747617547E+04   -0.46280E-05   -0.66947E-05  3840   0.627E-03    0.694E-03
DAV:   3    -0.331747617571E+04   -0.24051E-06   -0.13449E-06  3360   0.130E-03
 166 F= -.33315948E+04 E0= -.33315948E+04  d E =-.297373E-04
 BRION: g(F)=  0.538E-04 g(S)=  0.000E+00 retain N=  2 mean eig= 2.10
 eig:   0.048  4.145
 bond charge predicted
       N       E                     dE             d eps       ncg     rms          rms(c)
DAV:   1    -0.331747620868E+04   -0.33210E-04   -0.40759E-03  3776   0.591E-02    0.129E-02
DAV:   2    -0.331747621556E+04   -0.68769E-05   -0.94790E-05  3840   0.745E-03    0.805E-03
DAV:   3    -0.331747621574E+04   -0.17905E-06   -0.16982E-06  3520   0.147E-03
 167 F= -.33315948E+04 E0= -.33315948E+04  d E =-.327032E-04
 BRION: g(F)=  0.577E-04 g(S)=  0.000E+00 retain N=  2 mean eig= 0.30
 eig:   0.297  0.297
 bond charge predicted
       N       E                     dE             d eps       ncg     rms          rms(c)
DAV:   1    -0.331747624642E+04   -0.30855E-04   -0.30518E-03  3776   0.511E-02    0.113E-02
DAV:   2    -0.331747625131E+04   -0.48977E-05   -0.69509E-05  3840   0.638E-03    0.698E-03
DAV:   3    -0.331747625154E+04   -0.22235E-06   -0.13461E-06  3360   0.130E-03
 168 F= -.33315949E+04 E0= -.33315949E+04  d E =-.295918E-04
 BRION: g(F)=  0.521E-04 g(S)=  0.000E+00 retain N=  2 mean eig= 2.50
 eig:   0.076  4.919
 bond charge predicted
       N       E                     dE             d eps       ncg     rms          rms(c)
DAV:   1    -0.331747628483E+04   -0.33514E-04   -0.44051E-03  3776   0.613E-02    0.133E-02
DAV:   2    -0.331747629227E+04   -0.74470E-05   -0.10197E-04  3840   0.771E-03    0.827E-03
DAV:   3    -0.331747629247E+04   -0.19616E-06   -0.18201E-06  3616   0.151E-03
 169 F= -.33315949E+04 E0= -.33315949E+04  d E =-.332657E-04
 BRION: g(F)=  0.549E-04 g(S)=  0.000E+00 retain N=  2 mean eig= 0.32
 eig:   0.321  0.321
 bond charge predicted
       N       E                     dE             d eps       ncg     rms          rms(c)
DAV:   1    -0.331747632193E+04   -0.29651E-04   -0.27938E-03  3776   0.491E-02    0.109E-02
DAV:   2    -0.331747632635E+04   -0.44263E-05   -0.63280E-05  3840   0.611E-03    0.673E-03
DAV:   3    -0.331747632657E+04   -0.22026E-06   -0.12266E-06  3328   0.125E-03
 170 F= -.33315949E+04 E0= -.33315949E+04  d E =-.280204E-04
 BRION: g(F)=  0.505E-04 g(S)=  0.000E+00 retain N=  2 mean eig= 1.67
 eig:   0.026  3.308
 bond charge predicted
       N       E                     dE             d eps       ncg     rms          rms(c)
DAV:   1    -0.331747636098E+04   -0.34626E-04   -0.50535E-03  3776   0.657E-02    0.141E-02
DAV:   2    -0.331747636963E+04   -0.86547E-05   -0.11732E-04  3840   0.826E-03    0.875E-03
DAV:   3    -0.331747636984E+04   -0.21153E-06   -0.20986E-06  3776   0.161E-03
 171 F= -.33315950E+04 E0= -.33315950E+04  d E =-.351471E-04
 BRION: g(F)=  0.538E-04 g(S)=  0.000E+00 retain N=  2 mean eig= 0.35
 eig:   0.351  0.351
 bond charge predicted
       N       E                     dE             d eps       ncg     rms          rms(c)
DAV:   1    -0.331747639566E+04   -0.26031E-04   -0.20172E-03  3744   0.420E-02    0.950E-03
DAV:   2    -0.331747639869E+04   -0.30269E-05   -0.45099E-05  3840   0.522E-03    0.595E-03
DAV:   3    -0.331747639889E+04   -0.20058E-06   -0.93081E-07  3040   0.111E-03
 172 F= -.33315950E+04 E0= -.33315950E+04  d E =-.237324E-04
 BRION: g(F)=  0.491E-04 g(S)=  0.000E+00 retain N=  2 mean eig= 2.13
 eig:   0.078  4.177
 bond charge predicted
       N       E                     dE             d eps       ncg     rms          rms(c)
DAV:   1    -0.331747643099E+04   -0.32301E-04   -0.43064E-03  3776   0.608E-02    0.130E-02
DAV:   2    -0.331747643841E+04   -0.74224E-05   -0.10038E-04  3840   0.766E-03    0.812E-03
DAV:   3    -0.331747643858E+04   -0.16543E-06   -0.17105E-06  3520   0.148E-03
 173 F= -.33315950E+04 E0= -.33315950E+04  d E =-.320966E-04
 BRION: g(F)=  0.517E-04 g(S)=  0.000E+00 retain N=  2 mean eig= 0.27
 eig:   0.267  0.267
 bond charge predicted
       N       E                     dE             d eps       ncg     rms          rms(c)
DAV:   1    -0.331747646572E+04   -0.27303E-04   -0.24462E-03  3776   0.461E-02    0.102E-02
DAV:   2    -0.331747646955E+04   -0.38282E-05   -0.54942E-05  3840   0.570E-03    0.629E-03
DAV:   3    -0.331747646975E+04   -0.20082E-06   -0.10648E-06  3232   0.118E-03
 174 F= -.33315950E+04 E0= -.33315950E+04  d E =-.253499E-04
 BRION: g(F)=  0.475E-04 g(S)=  0.000E+00 retain N=  2 mean eig= 1.40
 eig:   0.002  2.796
 bond charge predicted
       N       E                     dE             d eps       ncg     rms          rms(c)
DAV:   1    -0.331747650146E+04   -0.31917E-04   -0.42636E-03  3776   0.606E-02    0.129E-02
DAV:   2    -0.331747650874E+04   -0.72824E-05   -0.98893E-05  3840   0.762E-03    0.809E-03
DAV:   3    -0.331747650892E+04   -0.17928E-06   -0.17107E-06  3520   0.149E-03
 175 F= -.33315951E+04 E0= -.33315951E+04  d E =-.314682E-04
 BRION: g(F)=  0.501E-04 g(S)=  0.000E+00 retain N=  2 mean eig= 0.34
 eig:   0.335  0.335
 bond charge predicted
       N       E                     dE             d eps       ncg     rms          rms(c)
DAV:   1    -0.331747653614E+04   -0.27393E-04   -0.25397E-03  3776   0.470E-02    0.103E-02
DAV:   2    -0.331747654014E+04   -0.40006E-05   -0.57087E-05  3840   0.582E-03    0.641E-03
DAV:   3    -0.331747654034E+04   -0.20093E-06   -0.11086E-06  3232   0.120E-03
 176 F= -.33315951E+04 E0= -.33315951E+04  d E =-.255477E-04
 BRION: g(F)=  0.462E-04 g(S)=  0.000E+00 retain N=  2 mean eig= 1.97
 eig:   0.024  3.917
 bond charge predicted
       N       E                     dE             d eps       ncg     rms          rms(c)
DAV:   1    -0.331747656974E+04   -0.29606E-04   -0.35275E-03  3776   0.554E-02    0.118E-02
DAV:   2    -0.331747657570E+04   -0.59584E-05   -0.81468E-05  3840   0.696E-03    0.746E-03
DAV:   3    -0.331747657586E+04   -0.15926E-06   -0.14136E-06  3328   0.137E-03
 soft stop encountered!  aborting job ...
 177 F= -.33315951E+04 E0= -.33315951E+04  d E =-.285071E-04
 BRION: g(F)=  0.493E-04 g(S)=  0.000E+00 retain N=  2 mean eig= 0.29
 eig:   0.289  0.289
 deleting file STOPCAR
 PROFILE, used timers:     329
