 running  256 mpi-ranks, with    1 threads/rank, on    7 nodes
 distrk:  each k-point on  128 cores,    2 groups
 distr:  one band on    4 cores,   32 groups
 vasp.6.4.1 05Apr23 (build May 18 2023 13:19:41) complex                         
 POSCAR found type information on POSCAR C S O 
 POSCAR found :  3 types and     366 ions
 Reading from existing POTCAR
 scaLAPACK will be used
 Reading from existing POTCAR
 -----------------------------------------------------------------------------
|                                                                             |
|               ----> ADVICE to this user running VASP <----                  |
|                                                                             |
|     You have a (more or less) 'large supercell' and for larger cells it     |
|     might be more efficient to use real-space projection operators.         |
|     Therefore, try LREAL= Auto in the INCAR file.                           |
|     Mind: If you want to do very accurate calculations, keep the            |
|     reciprocal projection scheme (i.e. LREAL=.FALSE.).                      |
|                                                                             |
 -----------------------------------------------------------------------------

 LDA part: xc-table for Pade appr. of Perdew
 POSCAR, INCAR and KPOINTS ok, starting setup
 FFT: planning ... GRIDC
 FFT: planning ... GRID_SOFT
 FFT: planning ... GRID
 WAVECAR not read
 charge-density read from file: 01_AOPT                                 
 WARNING: random wavefunctions but no delay for mixing, default for NELMDL
 entering main loop
       N       E                     dE             d eps       ncg     rms          rms(c)
DAV:   1     0.112549376882E+05    0.11255E+05   -0.41486E+05  4288   0.934E+02
DAV:   2     0.390005311181E+03   -0.10865E+05   -0.10101E+05  5632   0.212E+02
DAV:   3    -0.301313857389E+04   -0.34031E+04   -0.32446E+04  4608   0.115E+02
DAV:   4    -0.330571934803E+04   -0.29258E+03   -0.28375E+03  4448   0.386E+01
DAV:   5    -0.331721173920E+04   -0.11492E+02   -0.11268E+02  5088   0.692E+00    0.128E-01
DAV:   6    -0.331747006115E+04   -0.25832E+00   -0.25587E+00  4832   0.105E+00    0.348E-02
DAV:   7    -0.331747640149E+04   -0.63403E-02   -0.62880E-02  4928   0.184E-01    0.323E-02
DAV:   8    -0.331747663510E+04   -0.23361E-03   -0.26039E-03  4800   0.358E-02    0.258E-02
DAV:   9    -0.331747662344E+04    0.11663E-04   -0.96334E-05  4480   0.779E-03    0.201E-02
DAV:  10    -0.331747660702E+04    0.16421E-04   -0.13600E-05  4160   0.407E-03    0.131E-02
DAV:  11    -0.331747659547E+04    0.11546E-04   -0.61755E-06  4192   0.277E-03    0.720E-03
DAV:  12    -0.331747658645E+04    0.90183E-05   -0.93433E-07  2880   0.150E-03    0.357E-03
DAV:  13    -0.331747658030E+04    0.61459E-05   -0.93303E-07  2656   0.122E-03    0.114E-03
DAV:  14    -0.331747657857E+04    0.17349E-05   -0.23583E-07  2688   0.671E-04    0.676E-04
DAV:  15    -0.331747657790E+04    0.67323E-06   -0.13032E-09  2464   0.375E-04
   1 F= -.33315951E+04 E0= -.33315951E+04  d E =-.333160E+04
 BRION: g(F)=  0.493E-04 g(S)=  0.000E+00
 bond charge predicted
       N       E                     dE             d eps       ncg     rms          rms(c)
DAV:   1    -0.331747660409E+04   -0.25517E-04   -0.90210E-03  4096   0.919E-02    0.174E-02
DAV:   2    -0.331747662133E+04   -0.17238E-04   -0.21889E-04  4000   0.120E-02    0.114E-02
DAV:   3    -0.331747662095E+04    0.37311E-06   -0.42250E-06  4000   0.228E-03
   2 F= -.33315952E+04 E0= -.33315952E+04  d E =-.330279E-04
 BRION: g(F)=  0.138E-03 g(S)=  0.000E+00 retain N=  1 mean eig= 0.20
 eig:   0.205
 bond charge predicted
       N       E                     dE             d eps       ncg     rms          rms(c)
DAV:   1    -0.331747664070E+04   -0.19376E-04   -0.76773E-04  3840   0.328E-02    0.655E-03
DAV:   2    -0.331747664186E+04   -0.11555E-05   -0.20173E-05  4160   0.477E-03    0.542E-03
DAV:   3    -0.331747664163E+04    0.22771E-06   -0.10512E-06  2528   0.124E-03
   3 F= -.33315952E+04 E0= -.33315952E+04  d E =-.185285E-04
 BRION: g(F)=  0.431E-04 g(S)=  0.000E+00 retain N=  1 mean eig= 0.20
 eig:   0.201
 bond charge predicted
       N       E                     dE             d eps       ncg     rms          rms(c)
DAV:   1    -0.331747667838E+04   -0.36520E-04   -0.82435E-03  3968   0.836E-02    0.177E-02
DAV:   2    -0.331747669317E+04   -0.14796E-04   -0.19503E-04  3968   0.106E-02    0.111E-02
DAV:   3    -0.331747669328E+04   -0.10733E-06   -0.31437E-06  3904   0.200E-03
   4 F= -.33315952E+04 E0= -.33315952E+04  d E =-.407435E-04
 BRION: g(F)=  0.435E-04 g(S)=  0.000E+00 retain N=  2 mean eig= 0.42
 eig:   0.171  0.677
 bond charge predicted
       N       E                     dE             d eps       ncg     rms          rms(c)
DAV:   1    -0.331747671299E+04   -0.19818E-04   -0.10146E-03  3904   0.302E-02    0.731E-03
DAV:   2    -0.331747671413E+04   -0.11361E-05   -0.20849E-05  4032   0.363E-03    0.460E-03
DAV:   3    -0.331747671432E+04   -0.19348E-06   -0.59378E-07  2784   0.921E-04
   5 F= -.33315952E+04 E0= -.33315952E+04  d E =-.170933E-04
 BRION: g(F)=  0.414E-04 g(S)=  0.000E+00 retain N=  3 mean eig= 1.16
 eig:   0.191  2.484  0.816
 bond charge predicted
       N       E                     dE             d eps       ncg     rms          rms(c)
DAV:   1    -0.331747661524E+04    0.98892E-04   -0.15858E-01  3840   0.369E-01    0.735E-02
DAV:   2    -0.331747691299E+04   -0.29775E-03   -0.37377E-03  3968   0.468E-02    0.455E-02
DAV:   3    -0.331747691065E+04    0.23368E-05   -0.61642E-05  4224   0.870E-03    0.347E-02
DAV:   4    -0.331747693738E+04   -0.26731E-04   -0.75536E-05  3872   0.102E-02    0.927E-03
DAV:   5    -0.331747693822E+04   -0.83388E-06   -0.17314E-05  4000   0.428E-03    0.772E-03
DAV:   6    -0.331747693762E+04    0.59372E-06   -0.42853E-06  3552   0.231E-03
   6 F= -.33315954E+04 E0= -.33315954E+04  d E =-.176091E-03
 BRION: g(F)=  0.870E-04 g(S)=  0.000E+00 retain N=  2 mean eig= 0.47
 eig:   0.468  0.468
 bond charge predicted
       N       E                     dE             d eps       ncg     rms          rms(c)
DAV:   1    -0.331747666479E+04    0.27343E-03   -0.66623E-02  3840   0.240E-01    0.465E-02
DAV:   2    -0.331747678821E+04   -0.12342E-03   -0.15662E-03  3936   0.304E-02    0.292E-02
DAV:   3    -0.331747678626E+04    0.19578E-05   -0.26259E-05  4224   0.569E-03    0.223E-02
DAV:   4    -0.331747679550E+04   -0.92480E-05   -0.36154E-05  3872   0.705E-03    0.624E-03
DAV:   5    -0.331747679606E+04   -0.55274E-06   -0.81890E-06  3936   0.295E-03
   7 F= -.33315953E+04 E0= -.33315953E+04  d E =0.111008E-03
 BRION: g(F)=  0.450E-04 g(S)=  0.000E+00 retain N=  1 mean eig= 0.28
 eig:   0.277
 bond charge predicted
       N       E                     dE             d eps       ncg     rms          rms(c)
DAV:   1    -0.331747683497E+04   -0.39465E-04   -0.12039E-02  3840   0.103E-01    0.190E-02
DAV:   2    -0.331747685716E+04   -0.22189E-04   -0.28004E-04  3968   0.131E-02    0.126E-02
DAV:   3    -0.331747685636E+04    0.79814E-06   -0.49039E-06  3968   0.247E-03
   8 F= -.33315953E+04 E0= -.33315953E+04  d E =-.460190E-04
 BRION: g(F)=  0.630E-04 g(S)=  0.000E+00 retain N=  2 mean eig= 0.22
 eig:   0.326  0.115
 bond charge predicted
       N       E                     dE             d eps       ncg     rms          rms(c)
DAV:   1    -0.331747688274E+04   -0.25585E-04   -0.27917E-03  3808   0.510E-02    0.117E-02
DAV:   2    -0.331747688670E+04   -0.39618E-05   -0.62332E-05  3936   0.641E-03    0.764E-03
DAV:   3    -0.331747688677E+04   -0.62748E-07   -0.19333E-06  3456   0.156E-03
   9 F= -.33315954E+04 E0= -.33315954E+04  d E =-.252247E-04
 BRION: g(F)=  0.382E-04 g(S)=  0.000E+00 retain N=  1 mean eig= 0.37
 eig:   0.367
 bond charge predicted
       N       E                     dE             d eps       ncg     rms          rms(c)
DAV:   1    -0.331747692095E+04   -0.34249E-04   -0.68878E-03  3840   0.781E-02    0.168E-02
DAV:   2    -0.331747693297E+04   -0.12013E-04   -0.16485E-04  3936   0.997E-03    0.111E-02
DAV:   3    -0.331747693318E+04   -0.21432E-06   -0.28683E-06  3840   0.195E-03
  10 F= -.33315954E+04 E0= -.33315954E+04  d E =-.358978E-04
 BRION: g(F)=  0.453E-04 g(S)=  0.000E+00 retain N=  2 mean eig= 0.30
 eig:   0.418  0.189
 bond charge predicted
       N       E                     dE             d eps       ncg     rms          rms(c)
DAV:   1    -0.331747694505E+04   -0.12082E-04   -0.36836E-04  3776   0.190E-02    0.521E-03
DAV:   2    -0.331747694534E+04   -0.29011E-06   -0.77195E-06  3840   0.241E-03
  11 F= -.33315954E+04 E0= -.33315954E+04  d E =-.105395E-04
 BRION: g(F)=  0.358E-04 g(S)=  0.000E+00 retain N=  1 mean eig= 0.32
 eig:   0.320
 bond charge predicted
       N       E                     dE             d eps       ncg     rms          rms(c)
DAV:   1    -0.331747697537E+04   -0.30326E-04   -0.73800E-03  3840   0.801E-02    0.174E-02
DAV:   2    -0.331747698860E+04   -0.13225E-04   -0.17791E-04  3936   0.103E-02    0.112E-02
DAV:   3    -0.331747698868E+04   -0.85332E-07   -0.29565E-06  3808   0.199E-03
  12 F= -.33315954E+04 E0= -.33315954E+04  d E =-.343709E-04
 BRION: g(F)=  0.472E-04 g(S)=  0.000E+00 retain N=  2 mean eig= 0.40
 eig:   0.400  0.400
 bond charge predicted
       N       E                     dE             d eps       ncg     rms          rms(c)
DAV:   1    -0.331747700390E+04   -0.15297E-04   -0.51243E-04  3712   0.215E-02    0.566E-03
DAV:   2    -0.331747700448E+04   -0.58126E-06   -0.12453E-05  3872   0.279E-03    0.387E-03
DAV:   3    -0.331747700460E+04   -0.11944E-06   -0.33209E-07  2528   0.726E-04
  13 F= -.33315955E+04 E0= -.33315955E+04  d E =-.126973E-04
 BRION: g(F)=  0.384E-04 g(S)=  0.000E+00 retain N=  2 mean eig= 3.77
 eig:   0.380  7.150
 bond charge predicted
       N       E                     dE             d eps       ncg     rms          rms(c)
DAV:   1    -0.331747698940E+04    0.15078E-04   -0.61268E-04  3712   0.233E-02    0.430E-03
DAV:   2    -0.331747699085E+04   -0.14475E-05   -0.16765E-05  4000   0.319E-03    0.296E-03
DAV:   3    -0.331747699084E+04    0.11409E-07   -0.16912E-07  2368   0.616E-04
  14 F= -.33315955E+04 E0= -.33315955E+04  d E =0.103807E-04
 BRION: g(F)=  0.376E-04 g(S)=  0.000E+00 retain N=  2 mean eig= 0.20
 eig:   0.200  0.191
 bond charge predicted
       N       E                     dE             d eps       ncg     rms          rms(c)
DAV:   1    -0.331747702482E+04   -0.33973E-04   -0.98630E-03  3840   0.920E-02    0.177E-02
DAV:   2    -0.331747704411E+04   -0.19287E-04   -0.23875E-04  3936   0.118E-02    0.109E-02
DAV:   3    -0.331747704403E+04    0.75554E-07   -0.37032E-06  3936   0.218E-03
  15 F= -.33315955E+04 E0= -.33315955E+04  d E =-.411699E-04
 BRION: g(F)=  0.382E-04 g(S)=  0.000E+00 retain N=  3 mean eig= 0.43
 eig:   0.402  0.442  0.442
 bond charge predicted
       N       E                     dE             d eps       ncg     rms          rms(c)
DAV:   1    -0.331747705793E+04   -0.13824E-04   -0.51110E-04  3776   0.218E-02    0.585E-03
DAV:   2    -0.331747705826E+04   -0.32503E-06   -0.96738E-06  3872   0.261E-03
  16 F= -.33315955E+04 E0= -.33315955E+04  d E =-.113102E-04
 BRION: g(F)=  0.336E-04 g(S)=  0.000E+00 retain N=  4 mean eig= 1.72
 eig:   5.457  0.609  0.404  0.404
 bond charge predicted
       N       E                     dE             d eps       ncg     rms          rms(c)
DAV:   1    -0.331747707308E+04   -0.15147E-04   -0.48760E-02  3840   0.206E-01    0.426E-02
DAV:   2    -0.331747716288E+04   -0.89801E-04   -0.11678E-03  3936   0.263E-02    0.272E-02
DAV:   3    -0.331747716247E+04    0.40489E-06   -0.19866E-05  4224   0.501E-03    0.206E-02
DAV:   4    -0.331747717266E+04   -0.10190E-04   -0.26100E-05  3840   0.602E-03    0.555E-03
DAV:   5    -0.331747717279E+04   -0.12841E-06   -0.57716E-06  3872   0.257E-03
  17 F= -.33315956E+04 E0= -.33315956E+04  d E =-.894154E-04
 BRION: g(F)=  0.698E-04 g(S)=  0.000E+00 retain N=  3 mean eig= 1.22
 eig:   1.540  1.540  0.567
 bond charge predicted
       N       E                     dE             d eps       ncg     rms          rms(c)
DAV:   1    -0.331747719536E+04   -0.22693E-04   -0.56984E-03  3840   0.733E-02    0.155E-02
DAV:   2    -0.331747720654E+04   -0.11184E-04   -0.14781E-04  3936   0.983E-03    0.977E-03
DAV:   3    -0.331747720640E+04    0.14366E-06   -0.27761E-06  3744   0.195E-03
  18 F= -.33315956E+04 E0= -.33315956E+04  d E =-.271879E-04
 BRION: g(F)=  0.688E-04 g(S)=  0.000E+00 retain N=  3 mean eig= 0.65
 eig:   0.786  0.786  0.385
 bond charge predicted
       N       E                     dE             d eps       ncg     rms          rms(c)
DAV:   1    -0.331747712613E+04    0.80416E-04   -0.13248E-02  3840   0.108E-01    0.201E-02
DAV:   2    -0.331747715275E+04   -0.26629E-04   -0.32699E-04  3968   0.140E-02    0.125E-02
DAV:   3    -0.331747715194E+04    0.81398E-06   -0.51200E-06  3968   0.256E-03
  19 F= -.33315956E+04 E0= -.33315956E+04  d E =0.430178E-04
 BRION: g(F)=  0.390E-04 g(S)=  0.000E+00 retain N=  2 mean eig= 0.34
 eig:   0.352  0.330
 bond charge predicted
       N       E                     dE             d eps       ncg     rms          rms(c)
DAV:   1    -0.331747717667E+04   -0.23916E-04   -0.10853E-02  3840   0.101E-01    0.176E-02
DAV:   2    -0.331747720007E+04   -0.23398E-04   -0.27791E-04  3936   0.136E-02    0.117E-02
DAV:   3    -0.331747719915E+04    0.92352E-06   -0.48685E-06  3968   0.251E-03
  20 F= -.33315956E+04 E0= -.33315956E+04  d E =-.338186E-04
 BRION: g(F)=  0.112E-03 g(S)=  0.000E+00 retain N=  3 mean eig= 0.30
 eig:   0.321  0.358  0.223
 bond charge predicted
       N       E                     dE             d eps       ncg     rms          rms(c)
DAV:   1    -0.331747721712E+04   -0.17053E-04   -0.88966E-04  3712   0.345E-02    0.699E-03
DAV:   2    -0.331747721833E+04   -0.12084E-05   -0.22407E-05  3968   0.498E-03    0.575E-03
DAV:   3    -0.331747721807E+04    0.25553E-06   -0.11840E-06  2784   0.133E-03
  21 F= -.33315956E+04 E0= -.33315956E+04  d E =-.175477E-04
 BRION: g(F)=  0.322E-04 g(S)=  0.000E+00 retain N=  1 mean eig= 0.22
 eig:   0.222
 bond charge predicted
       N       E                     dE             d eps       ncg     rms          rms(c)
DAV:   1    -0.331747724650E+04   -0.28170E-04   -0.61844E-03  3840   0.744E-02    0.153E-02
DAV:   2    -0.331747725731E+04   -0.10809E-04   -0.14382E-04  3936   0.938E-03    0.995E-03
DAV:   3    -0.331747725734E+04   -0.32480E-07   -0.23879E-06  3776   0.180E-03
  22 F= -.33315957E+04 E0= -.33315957E+04  d E =-.301586E-04
 BRION: g(F)=  0.356E-04 g(S)=  0.000E+00 retain N=  2 mean eig= 0.22
 eig:   0.140  0.309
 bond charge predicted
       N       E                     dE             d eps       ncg     rms          rms(c)
DAV:   1    -0.331747726732E+04   -0.10007E-04   -0.25344E-04  3712   0.161E-02    0.420E-03
DAV:   2    -0.331747726746E+04   -0.14657E-06   -0.48968E-06  3648   0.201E-03
  23 F= -.33315957E+04 E0= -.33315957E+04  d E =-.827919E-05
 BRION: g(F)=  0.292E-04 g(S)=  0.000E+00 retain N=  2 mean eig= 2.48
 eig:   0.000  4.953
 bond charge predicted
       N       E                     dE             d eps       ncg     rms          rms(c)
DAV:   1    -0.331747729677E+04   -0.29457E-04   -0.20877E-02  3776   0.137E-01    0.279E-02
DAV:   2    -0.331747733484E+04   -0.38067E-04   -0.49776E-04  3936   0.175E-02    0.181E-02
DAV:   3    -0.331747733465E+04    0.18685E-06   -0.86139E-06  4128   0.336E-03
  24 F= -.33315957E+04 E0= -.33315957E+04  d E =-.511364E-04
 BRION: g(F)=  0.540E-04 g(S)=  0.000E+00 retain N=  2 mean eig= 0.22
 eig:   0.219  0.219
 bond charge predicted
       N       E                     dE             d eps       ncg     rms          rms(c)
DAV:   1    -0.331747730719E+04    0.27649E-04   -0.31521E-03  3840   0.547E-02    0.896E-03
DAV:   2    -0.331747731483E+04   -0.76399E-05   -0.89207E-05  3968   0.785E-03    0.645E-03
DAV:   3    -0.331747731433E+04    0.50152E-06   -0.15034E-06  3008   0.149E-03
  25 F= -.33315957E+04 E0= -.33315957E+04  d E =0.142362E-04
 BRION: g(F)=  0.329E-04 g(S)=  0.000E+00 retain N=  2 mean eig= 2.70
 eig:   0.152  5.245
 bond charge predicted
       N       E                     dE             d eps       ncg     rms          rms(c)
DAV:   1    -0.331747731253E+04    0.23008E-05   -0.70745E-05  3712   0.101E-02    0.264E-03
DAV:   2    -0.331747731265E+04   -0.11781E-06   -0.20007E-06  3040   0.159E-03
  26 F= -.33315957E+04 E0= -.33315957E+04  d E =0.155488E-05
 BRION: g(F)=  0.307E-04 g(S)=  0.000E+00 retain N=  2 mean eig= 0.21
 eig:   0.205  0.205
 bond charge predicted
       N       E                     dE             d eps       ncg     rms          rms(c)
DAV:   1    -0.331747733810E+04   -0.25568E-04   -0.45645E-03  3840   0.632E-02    0.117E-02
DAV:   2    -0.331747734705E+04   -0.89488E-05   -0.10890E-04  3936   0.806E-03    0.699E-03
DAV:   3    -0.331747734703E+04    0.18044E-07   -0.16225E-06  3456   0.148E-03
  27 F= -.33315957E+04 E0= -.33315957E+04  d E =-.258769E-04
 BRION: g(F)=  0.308E-04 g(S)=  0.000E+00 retain N=  3 mean eig= 0.27
 eig:   0.217  0.217  0.375
 bond charge predicted
       N       E                     dE             d eps       ncg     rms          rms(c)
DAV:   1    -0.331747735627E+04   -0.92241E-05   -0.33076E-04  3776   0.176E-02    0.440E-03
DAV:   2    -0.331747735658E+04   -0.30885E-06   -0.64659E-06  3712   0.211E-03
  28 F= -.33315957E+04 E0= -.33315957E+04  d E =-.780684E-05
 BRION: g(F)=  0.276E-04 g(S)=  0.000E+00 retain N=  4 mean eig= 1.58
 eig:   3.000  3.000  0.161  0.161
 bond charge predicted
       N       E                     dE             d eps       ncg     rms          rms(c)
DAV:   1    -0.331747712747E+04    0.22880E-03   -0.22499E-01  3776   0.447E-01    0.884E-02
DAV:   2    -0.331747754842E+04   -0.42095E-03   -0.53244E-03  3968   0.569E-02    0.561E-02
DAV:   3    -0.331747754267E+04    0.57584E-05   -0.90748E-05  4224   0.108E-02    0.427E-02
DAV:   4    -0.331747758005E+04   -0.37384E-04   -0.11576E-04  3872   0.127E-02    0.114E-02
DAV:   5    -0.331747758125E+04   -0.12020E-05   -0.26623E-05  4032   0.535E-03    0.938E-03
DAV:   6    -0.331747758036E+04    0.89174E-06   -0.67275E-06  3744   0.287E-03
  29 F= -.33315959E+04 E0= -.33315959E+04  d E =-.172366E-03
 BRION: g(F)=  0.749E-04 g(S)=  0.000E+00 retain N=  5 mean eig= 1.72
 eig:   3.847  3.847  0.157  0.157  0.581
 bond charge predicted
       N       E                     dE             d eps       ncg     rms          rms(c)
DAV:   1    -0.331747712875E+04    0.45250E-03   -0.34763E-01  3776   0.555E-01    0.109E-01
DAV:   2    -0.331747778958E+04   -0.66083E-03   -0.82677E-03  3936   0.708E-02    0.680E-02
DAV:   3    -0.331747778422E+04    0.53601E-05   -0.13745E-04  4224   0.133E-02    0.519E-02
DAV:   4    -0.331747784480E+04   -0.60577E-04   -0.16753E-04  3872   0.153E-02    0.139E-02
DAV:   5    -0.331747784643E+04   -0.16335E-05   -0.38261E-05  3968   0.647E-03    0.114E-02
DAV:   6    -0.331747784521E+04    0.12242E-05   -0.10139E-05  4032   0.351E-03    0.552E-03
DAV:   7    -0.331747784512E+04    0.90222E-07   -0.18956E-06  3552   0.164E-03
  30 F= -.33315961E+04 E0= -.33315961E+04  d E =-.199356E-03
 BRION: g(F)=  0.292E-04 g(S)=  0.000E+00 retain N=  3 mean eig= 3.64
 eig:   7.440  0.742  2.739
 bond charge predicted
       N       E                     dE             d eps       ncg     rms          rms(c)
DAV:   1    -0.331747692164E+04    0.92357E-03   -0.32961E-01  3776   0.540E-01    0.106E-01
DAV:   2    -0.331747754236E+04   -0.62071E-03   -0.78773E-03  3936   0.686E-02    0.660E-02
DAV:   3    -0.331747753548E+04    0.68785E-05   -0.13198E-04  4192   0.129E-02    0.505E-02
DAV:   4    -0.331747759080E+04   -0.55321E-04   -0.16869E-04  3840   0.154E-02    0.143E-02
DAV:   5    -0.331747759307E+04   -0.22725E-05   -0.39076E-05  4000   0.648E-03    0.117E-02
DAV:   6    -0.331747759214E+04    0.93482E-06   -0.10252E-05  4000   0.350E-03    0.560E-03
DAV:   7    -0.331747759205E+04    0.87544E-07   -0.19263E-06  3680   0.164E-03
  31 F= -.33315959E+04 E0= -.33315959E+04  d E =0.191374E-03
 BRION: g(F)=  0.547E-04 g(S)=  0.000E+00 retain N=  2 mean eig= 2.11
 eig:   2.114  2.114
 bond charge predicted
       N       E                     dE             d eps       ncg     rms          rms(c)
DAV:   1    -0.331747737447E+04    0.21766E-03   -0.21481E-01  3776   0.439E-01    0.839E-02
DAV:   2    -0.331747777601E+04   -0.40154E-03   -0.50146E-03  3936   0.553E-02    0.532E-02
DAV:   3    -0.331747776931E+04    0.67041E-05   -0.84153E-05  4224   0.104E-02    0.406E-02
DAV:   4    -0.331747779988E+04   -0.30574E-04   -0.10888E-04  3872   0.123E-02    0.108E-02
DAV:   5    -0.331747780114E+04   -0.12527E-05   -0.25238E-05  4000   0.521E-03    0.892E-03
DAV:   6    -0.331747780035E+04    0.78406E-06   -0.59866E-06  3680   0.271E-03
  32 F= -.33315961E+04 E0= -.33315961E+04  d E =-.157404E-03
 BRION: g(F)=  0.412E-04 g(S)=  0.000E+00 retain N=  3 mean eig= 2.07
 eig:   1.760  1.760  2.692
 bond charge predicted
       N       E                     dE             d eps       ncg     rms          rms(c)
DAV:   1    -0.331747781978E+04   -0.18649E-04   -0.48016E-03  3776   0.667E-02    0.139E-02
DAV:   2    -0.331747782912E+04   -0.93339E-05   -0.12088E-04  3968   0.876E-03    0.856E-03
DAV:   3    -0.331747782946E+04   -0.33702E-06   -0.19633E-06  3648   0.168E-03
  33 F= -.33315961E+04 E0= -.33315961E+04  d E =-.212017E-04
 BRION: g(F)=  0.241E-04 g(S)=  0.000E+00 retain N=  3 mean eig= 4.01
 eig:   7.653  2.184  2.184
 bond charge predicted
       N       E                     dE             d eps       ncg     rms          rms(c)
DAV:   1    -0.331747784706E+04   -0.17940E-04   -0.23744E-03  3712   0.486E-02    0.986E-03
DAV:   2    -0.331747785080E+04   -0.37430E-05   -0.54598E-05  3872   0.616E-03    0.679E-03
DAV:   3    -0.331747785083E+04   -0.24796E-07   -0.11690E-06  3104   0.131E-03
  34 F= -.33315961E+04 E0= -.33315961E+04  d E =-.156840E-04
 BRION: g(F)=  0.265E-04 g(S)=  0.000E+00 retain N=  3 mean eig= 1.24
 eig:   1.815  1.815  0.087
 bond charge predicted
       N       E                     dE             d eps       ncg     rms          rms(c)
DAV:   1    -0.331747781646E+04    0.34345E-04   -0.75881E-02  3776   0.265E-01    0.506E-02
DAV:   2    -0.331747795428E+04   -0.13783E-03   -0.17585E-03  3904   0.333E-02    0.327E-02
DAV:   3    -0.331747795242E+04    0.18593E-05   -0.30772E-05  4224   0.639E-03    0.249E-02
DAV:   4    -0.331747796527E+04   -0.12845E-04   -0.38878E-05  3936   0.744E-03    0.654E-03
DAV:   5    -0.331747796584E+04   -0.57393E-06   -0.89778E-06  3968   0.314E-03
  35 F= -.33315962E+04 E0= -.33315962E+04  d E =-.844593E-04
 BRION: g(F)=  0.196E-04 g(S)=  0.000E+00 retain N=  4 mean eig= 3.55
 eig:   6.263  6.263  1.251  0.411
 bond charge predicted
       N       E                     dE             d eps       ncg     rms          rms(c)
DAV:   1    -0.331747753084E+04    0.43443E-03   -0.31662E-01  3776   0.539E-01    0.103E-01
DAV:   2    -0.331747812536E+04   -0.59452E-03   -0.74646E-03  3936   0.684E-02    0.656E-02
DAV:   3    -0.331747811781E+04    0.75570E-05   -0.12575E-04  4224   0.130E-02    0.502E-02
DAV:   4    -0.331747817190E+04   -0.54091E-04   -0.15848E-04  3872   0.150E-02    0.131E-02
DAV:   5    -0.331747817374E+04   -0.18391E-05   -0.36678E-05  3968   0.641E-03    0.106E-02
DAV:   6    -0.331747817267E+04    0.10668E-05   -0.91072E-06  4032   0.334E-03    0.530E-03
DAV:   7    -0.331747817256E+04    0.10768E-06   -0.16963E-06  3424   0.159E-03
  36 F= -.33315963E+04 E0= -.33315963E+04  d E =-.146314E-03
 BRION: g(F)=  0.460E-04 g(S)=  0.000E+00 retain N=  4 mean eig= 3.44
 eig:   6.408  6.408  0.472  0.472
 reached required accuracy - stopping structural energy minimisation
 PROFILE, used timers:     329
